/*--------------------------------*- C++ -*----------------------------------*\
  =========                 |
  \\      /  F ield         | OpenFOAM: The Open Source CFD Toolbox
   \\    /   O peration     | Website:  https://openfoam.org
    \\  /    A nd           | Version:  8
     \\/     M anipulation  |
\*---------------------------------------------------------------------------*/
FoamFile
{
    version     2.0;
    format      ascii;
    class       volScalarField;
    location    "0.02";
    object      p_rgh;
}
// * * * * * * * * * * * * * * * * * * * * * * * * * * * * * * * * * * * * * //

dimensions      [1 -1 -2 0 0 0 0];

internalField   nonuniform List<scalar> 
42400
(
101357.699
101357.685
101357.67
101357.655
101357.641
101357.627
101357.614
101357.601
101357.589
101357.577
101357.565
101357.554
101357.543
101357.533
101357.523
101357.514
101357.505
101357.496
101357.487
101357.479
101357.47
101357.462
101357.453
101357.445
101357.436
101357.426
101357.416
101357.406
101357.394
101357.382
101357.368
101357.354
101357.338
101357.321
101357.302
101357.281
101357.259
101357.236
101357.222
101357.218
101357.215
101357.198
101357.155
101357.097
101357.036
101356.99
101356.96
101356.93
101356.899
101356.868
101356.836
101356.802
101356.765
101356.752
101356.76
101356.78
101356.777
101356.742
101356.736
101356.767
101356.819
101356.874
101356.94
101357.022
101357.125
101357.258
101357.431
101357.648
101358.034
101358.515
101358.762
101359.557
101361.019
101360.263
101359.719
101361.621
101362.325
101364.472
101370.831
101375.347
101358.201
101358.19
101358.177
101358.165
101358.154
101358.142
101358.131
101358.12
101358.109
101358.099
101358.089
101358.079
101358.069
101358.06
101358.052
101358.043
101358.035
101358.027
101358.019
101358.011
101358.003
101357.995
101357.987
101357.979
101357.97
101357.961
101357.952
101357.942
101357.931
101357.919
101357.906
101357.892
101357.877
101357.86
101357.841
101357.828
101357.822
101357.819
101357.806
101357.77
101357.718
101357.668
101357.632
101357.603
101357.574
101357.543
101357.512
101357.478
101357.437
101357.411
101357.41
101357.423
101357.409
101357.36
101357.331
101357.334
101357.358
101357.379
101357.404
101357.441
101357.496
101357.578
101357.694
101357.844
101358.022
101358.24
101358.522
101358.878
101359.454
101360.341
101361.138
101362.047
101363.912
101364.913
101365.027
101368.992
101373.064
101375.985
101377.464
101379.594
101358.671
101358.662
101358.652
101358.642
101358.633
101358.623
101358.614
101358.605
101358.597
101358.588
101358.58
101358.573
101358.565
101358.558
101358.552
101358.545
101358.539
101358.533
101358.528
101358.523
101358.517
101358.512
101358.507
101358.502
101358.497
101358.491
101358.485
101358.479
101358.472
101358.465
101358.456
101358.446
101358.439
101358.437
101358.437
101358.431
101358.41
101358.378
101358.343
101358.318
101358.302
101358.286
101358.267
101358.247
101358.225
101358.194
101358.182
101358.2
101358.217
101358.173
101358.115
101358.103
101358.113
101358.12
101358.125
101358.135
101358.155
101358.192
101358.25
101358.33
101358.435
101358.574
101358.767
101359.039
101359.38
101359.789
101360.237
101360.797
101361.513
101362.627
101363.728
101364.672
101366.839
101371.945
101374.563
101373.565
101374.821
101378.724
101381.072
101383.644
101359.129
101359.122
101359.113
101359.105
101359.098
101359.09
101359.083
101359.076
101359.069
101359.063
101359.057
101359.052
101359.047
101359.043
101359.039
101359.036
101359.033
101359.031
101359.03
101359.029
101359.028
101359.028
101359.028
101359.029
101359.03
101359.031
101359.032
101359.033
101359.035
101359.038
101359.044
101359.051
101359.052
101359.045
101359.035
101359.023
101359.018
101359.018
101359.017
101359.013
101359.01
101359.003
101358.988
101358.99
101359.018
101359.019
101358.987
101358.972
101358.98
101358.992
101358.993
101358.994
101359.001
101359.018
101359.047
101359.088
101359.142
101359.213
101359.309
101359.441
101359.627
101359.88
101360.225
101360.682
101361.232
101361.881
101362.514
101363.296
101363.865
101364.894
101367.819
101371.472
101372.575
101372.277
101373.701
101375.799
101378.019
101380.115
101382.211
101384.435
101359.583
101359.576
101359.569
101359.562
101359.555
101359.549
101359.543
101359.537
101359.533
101359.529
101359.525
101359.523
101359.521
101359.521
101359.521
101359.522
101359.524
101359.527
101359.531
101359.536
101359.542
101359.549
101359.556
101359.564
101359.572
101359.582
101359.594
101359.607
101359.619
101359.63
101359.641
101359.651
101359.664
101359.679
101359.695
101359.709
101359.722
101359.735
101359.746
101359.75
101359.767
101359.808
101359.824
101359.809
101359.814
101359.834
101359.85
101359.863
101359.877
101359.896
101359.92
101359.95
101359.987
101360.035
101360.097
101360.18
101360.288
101360.43
101360.624
101360.874
101361.204
101361.608
101362.143
101362.805
101363.638
101364.496
101365.264
101366.535
101369.513
101371.883
101372.346
101372.589
101374.204
101376.067
101377.628
101379.552
101381.546
101383.63
101385.821
101387.887
101360.01
101360.003
101359.995
101359.989
101359.983
101359.977
101359.973
101359.969
101359.966
101359.964
101359.964
101359.964
101359.966
101359.969
101359.974
101359.98
101359.987
101359.996
101360.007
101360.018
101360.03
101360.043
101360.059
101360.079
101360.1
101360.123
101360.146
101360.171
101360.197
101360.224
101360.252
101360.28
101360.308
101360.337
101360.367
101360.395
101360.417
101360.451
101360.506
101360.538
101360.543
101360.569
101360.607
101360.638
101360.667
101360.698
101360.73
101360.764
101360.802
101360.846
101360.899
101360.965
101361.047
101361.148
101361.275
101361.435
101361.646
101361.91
101362.244
101362.63
101363.112
101363.642
101364.313
101364.978
101365.914
101367.988
101370.939
101372.19
101372.386
101373.601
101374.92
101376.05
101377.695
101379.368
101380.988
101382.85
101384.739
101386.624
101388.42
101390.023
101360.374
101360.366
101360.359
101360.352
101360.347
101360.342
101360.339
101360.337
101360.336
101360.337
101360.34
101360.344
101360.35
101360.358
101360.368
101360.38
101360.393
101360.407
101360.424
101360.446
101360.471
101360.498
101360.526
101360.556
101360.587
101360.621
101360.656
101360.693
101360.732
101360.772
101360.814
101360.857
101360.9
101360.938
101360.987
101361.056
101361.104
101361.13
101361.175
101361.231
101361.28
101361.327
101361.375
101361.424
101361.474
101361.527
101361.585
101361.651
101361.726
101361.815
101361.919
101362.044
101362.194
101362.379
101362.615
101362.908
101363.271
101363.7
101364.219
101364.787
101365.472
101366.16
101367.016
101369.049
101371.061
101371.978
101372.463
101373.636
101375.137
101376.183
101377.367
101378.905
101380.65
101382.159
101383.693
101385.514
101387.462
101389.305
101391.074
101392.866
101360.623
101360.616
101360.608
101360.602
101360.598
101360.595
101360.593
101360.594
101360.596
101360.6
101360.606
101360.615
101360.626
101360.639
101360.655
101360.674
101360.696
101360.722
101360.749
101360.779
101360.812
101360.847
101360.885
101360.925
101360.968
101361.014
101361.063
101361.114
101361.167
101361.218
101361.27
101361.331
101361.41
101361.473
101361.516
101361.578
101361.65
101361.716
101361.78
101361.846
101361.913
101361.982
101362.053
101362.129
101362.211
101362.302
101362.403
101362.518
101362.649
101362.803
101362.982
101363.197
101363.459
101363.778
101364.164
101364.618
101365.153
101365.752
101366.463
101367.125
101368.052
101370.019
101371.865
101372.571
101373.199
101374.259
101375.459
101376.7
101377.828
101379.1
101380.608
101382.128
101383.597
101385.207
101386.956
101388.667
101390.446
101392.147
101393.892
101395.757
101360.702
101360.695
101360.689
101360.685
101360.682
101360.682
101360.684
101360.688
101360.694
101360.703
101360.715
101360.729
101360.746
101360.767
101360.79
101360.817
101360.847
101360.88
101360.917
101360.957
101361
101361.047
101361.097
101361.15
101361.206
101361.265
101361.323
101361.387
101361.467
101361.552
101361.613
101361.672
101361.747
101361.831
101361.911
101361.99
101362.072
101362.155
101362.241
101362.33
101362.424
101362.523
101362.629
101362.745
101362.874
101363.018
101363.181
101363.366
101363.58
101363.828
101364.12
101364.468
101364.879
101365.354
101365.911
101366.542
101367.278
101368.03
101369.087
101370.966
101372.179
101372.705
101373.669
101374.828
101375.778
101376.672
101377.929
101379.191
101380.504
101381.969
101383.449
101384.949
101386.503
101388.102
101389.807
101391.552
101393.312
101394.874
101396.541
101397.919
101360.544
101360.54
101360.536
101360.534
101360.535
101360.539
101360.545
101360.555
101360.567
101360.583
101360.601
101360.623
101360.648
101360.676
101360.709
101360.745
101360.785
101360.829
101360.876
101360.928
101360.983
101361.042
101361.104
101361.167
101361.239
101361.323
101361.4
101361.47
101361.552
101361.641
101361.733
101361.823
101361.914
101362.009
101362.106
101362.206
101362.309
101362.417
101362.531
101362.652
101362.783
101362.924
101363.08
101363.254
101363.448
101363.668
101363.918
101364.203
101364.532
101364.917
101365.363
101365.872
101366.457
101367.102
101367.839
101368.599
101369.606
101371.221
101372.37
101372.983
101374.023
101375.139
101375.944
101376.796
101377.93
101379.082
101380.399
101381.837
101383.259
101384.706
101386.125
101387.501
101388.921
101390.61
101392.682
101394.913
101396.845
101398.233
101399.96
101401.833
101360.102
101360.1
101360.101
101360.104
101360.11
101360.119
101360.131
101360.147
101360.166
101360.189
101360.215
101360.246
101360.281
101360.32
101360.363
101360.41
101360.461
101360.517
101360.578
101360.642
101360.708
101360.782
101360.868
101360.949
101361.025
101361.112
101361.208
101361.304
101361.403
101361.504
101361.61
101361.718
101361.829
101361.945
101362.065
101362.191
101362.324
101362.466
101362.618
101362.783
101362.964
101363.164
101363.387
101363.637
101363.918
101364.237
101364.598
101365.011
101365.485
101366.024
101366.636
101367.311
101368.078
101368.886
101369.925
101371.229
101372.069
101372.729
101373.705
101374.78
101375.83
101376.836
101377.812
101378.976
101380.221
101381.632
101383.218
101384.769
101386.385
101388.033
101389.743
101391.59
101393.377
101394.947
101395.883
101396.934
101398.892
101401.121
101403.189
101404.743
101359.302
101359.306
101359.312
101359.321
101359.333
101359.349
101359.369
101359.393
101359.421
101359.454
101359.491
101359.532
101359.578
101359.629
101359.684
101359.745
101359.81
101359.878
101359.953
101360.039
101360.123
101360.205
101360.297
101360.397
101360.499
101360.603
101360.712
101360.824
101360.941
101361.061
101361.186
101361.316
101361.452
101361.595
101361.746
101361.907
101362.08
101362.267
101362.473
101362.699
101362.949
101363.229
101363.542
101363.891
101364.283
101364.721
101365.211
101365.757
101366.358
101367.006
101367.71
101368.435
101369.325
101370.691
101371.962
101372.963
101374.252
101375.359
101376.326
101377.136
101378.089
101379.562
101381.07
101382.732
101384.587
101386.011
101387.126
101388.352
101389.588
101390.886
101392.217
101393.544
101395.108
101396.954
101398.921
101400.691
101401.919
101403.35
101405.51
101407.773
101358.084
101358.093
101358.107
101358.124
101358.144
101358.17
101358.199
101358.233
101358.272
101358.316
101358.364
101358.418
101358.477
101358.541
101358.609
101358.684
101358.769
101358.854
101358.939
101359.034
101359.136
101359.241
101359.35
101359.464
101359.582
101359.705
101359.832
101359.965
101360.103
101360.247
101360.398
101360.558
101360.728
101360.909
101361.104
101361.317
101361.549
101361.805
101362.089
101362.405
101362.757
101363.15
101363.588
101364.075
101364.615
101365.216
101365.878
101366.605
101367.393
101368.234
101369.244
101370.691
101372.166
101373.259
101374.131
101375.007
101375.927
101376.817
101377.84
101379.343
101381.02
101382.319
101383.594
101384.869
101386.122
101387.51
101388.998
101390.351
101391.797
101393.363
101395.065
101396.865
101398.407
101399.723
101401.258
101403.467
101405.538
101407.122
101408.754
101410.582
101356.374
101356.392
101356.415
101356.442
101356.473
101356.509
101356.55
101356.596
101356.647
101356.704
101356.766
101356.833
101356.907
101356.989
101357.073
101357.161
101357.256
101357.359
101357.465
101357.577
101357.694
101357.816
101357.943
101358.075
101358.213
101358.357
101358.508
101358.666
101358.833
101359.009
101359.197
101359.399
101359.618
101359.856
101360.117
101360.405
101360.725
101361.08
101361.475
101361.914
101362.403
101362.943
101363.539
101364.191
101364.902
101365.677
101366.495
101367.355
101368.283
101369.58
101371.093
101372.026
101372.768
101373.717
101374.825
101376.092
101377.451
101378.939
101380.462
101381.951
101383.221
101384.475
101385.708
101386.864
101388.275
101389.746
101391.002
101392.54
101394.263
101395.729
101397.122
101398.513
101400.148
101402.149
101403.703
101405.106
101407.307
101409.39
101410.738
101412.83
101354.115
101354.143
101354.178
101354.217
101354.26
101354.309
101354.363
101354.422
101354.487
101354.559
101354.636
101354.718
101354.806
101354.901
101355.002
101355.108
101355.22
101355.337
101355.46
101355.589
101355.724
101355.864
101356.011
101356.165
101356.326
101356.496
101356.676
101356.867
101357.072
101357.292
101357.531
101357.792
101358.079
101358.395
101358.746
101359.136
101359.569
101360.05
101360.584
101361.175
101361.825
101362.538
101363.316
101364.162
101365.076
101366.066
101367.114
101368.226
101369.394
101370.55
101371.647
101372.927
101374.289
101375.534
101376.892
101378.201
101379.297
101380.39
101381.567
101382.737
101383.931
101385.314
101386.963
101388.495
101389.768
101391.213
101392.839
101394.126
101395.538
101397.302
101398.973
101400.733
101402.407
101404.151
101406.318
101408.193
101409.242
101410.492
101412.046
101413.952
101351.265
101351.305
101351.354
101351.406
101351.464
101351.527
101351.596
101351.67
101351.75
101351.837
101351.929
101352.028
101352.132
101352.242
101352.359
101352.481
101352.61
101352.745
101352.886
101353.033
101353.188
101353.351
101353.522
101353.702
101353.894
101354.099
101354.319
101354.557
101354.816
101355.099
101355.411
101355.755
101356.136
101356.559
101357.028
101357.549
101358.124
101358.759
101359.455
101360.215
101361.04
101361.93
101362.888
101363.915
101365.019
101366.175
101367.407
101368.694
101370.096
101371.343
101372.375
101373.481
101374.673
101375.856
101377.003
101378.182
101379.461
101380.833
101382.2
101383.768
101385.597
101387.267
101388.859
101390.485
101392.033
101393.536
101395.096
101396.697
101398.373
101400.153
101402.053
101403.917
101405.865
101407.909
101409.928
101411.216
101411.84
101413.346
101415.024
101416.204
101347.799
101347.853
101347.918
101347.986
101348.059
101348.137
101348.222
101348.312
101348.409
101348.511
101348.62
101348.734
101348.855
101348.983
101349.116
101349.257
101349.404
101349.559
101349.721
101349.893
101350.074
101350.266
101350.471
101350.691
101350.928
101351.185
101351.466
101351.774
101352.112
101352.486
101352.9
101353.359
101353.866
101354.427
101355.043
101355.719
101356.456
101357.253
101358.111
101359.026
101359.991
101360.989
101362.03
101363.086
101364.222
101365.479
101366.615
101367.857
101369.323
101370.805
101372.34
101373.912
101375.551
101377.233
101378.905
101380.659
101382.52
101384.419
101386.481
101388.095
101389.362
101390.741
101392.219
101393.761
101395.367
101397.009
101398.711
101400.519
101402.341
101403.94
101405.463
101406.987
101408.451
101410.141
101411.889
101413.196
101414.281
101415.834
101417.863
101420.191
101343.751
101343.82
101343.903
101343.988
101344.078
101344.173
101344.275
101344.382
101344.495
101344.615
101344.741
101344.874
101345.014
101345.161
101345.316
101345.478
101345.651
101345.833
101346.026
101346.233
101346.454
101346.693
101346.952
101347.234
101347.543
101347.884
101348.259
101348.674
101349.134
101349.642
101350.205
101350.824
101351.504
101352.246
101353.052
101353.921
101354.853
101355.845
101356.895
101357.997
101359.136
101360.377
101362.04
101364.164
101366.255
101367.78
101369.123
101370.645
101372.14
101373.513
101374.962
101376.422
101377.905
101379.458
101381.082
101382.845
101384.699
101386.215
101387.588
101389.147
101390.773
101392.403
101394.064
101395.726
101397.376
101399.008
101400.605
101402.152
101403.637
101405.261
101406.894
101408.5
101410.486
101412.762
101414.711
101416.639
101418.398
101420.637
101422.894
101424.965
101339.147
101339.233
101339.334
101339.436
101339.543
101339.655
101339.773
101339.897
101340.028
101340.165
101340.309
101340.461
101340.622
101340.791
101340.971
101341.163
101341.367
101341.587
101341.825
101342.083
101342.365
101342.674
101343.015
101343.393
101343.812
101344.278
101344.796
101345.371
101346.01
101346.716
101347.494
101348.348
101349.279
101350.29
101351.38
101352.548
101353.791
101355.109
101356.494
101357.936
101359.407
101360.881
101362.461
101364.161
101365.806
101367.574
101369.608
101371.243
101372.611
101374.013
101375.412
101376.825
101378.261
101379.694
101381.119
101382.499
101384.057
101386.158
101388.459
101390.422
101392.207
101394.032
101395.996
101397.721
101399.334
101401.101
101402.924
101404.79
101406.654
101408.447
101410.243
101412.287
101414.51
101416.285
101417.803
101420.139
101422.497
101424.072
101426.021
101427.692
101334.13
101334.232
101334.351
101334.47
101334.593
101334.722
101334.857
101334.998
101335.145
101335.301
101335.465
101335.639
101335.824
101336.021
101336.232
101336.46
101336.707
101336.977
101337.273
101337.598
101337.959
101338.359
101338.804
101339.3
101339.852
101340.465
101341.145
101341.897
101342.724
101343.629
101344.613
101345.678
101346.821
101348.039
101349.327
101350.679
101352.087
101353.55
101355.051
101356.567
101358.103
101359.879
101361.816
101363.682
101365.36
101366.85
101368.231
101369.697
101371.358
101373.199
101375.176
101377.23
101379.33
101381.474
101383.678
101386.011
101387.833
101389.335
101390.719
101392.067
101393.848
101395.677
101397.245
101399.315
101402.222
101404.28
101405.914
101407.723
101409.513
101411.083
101412.635
101414.821
101416.911
101418.126
101419.963
101423.281
101426.114
101427.384
101428.391
101429.258
101322.845
101322.848
101322.849
101322.849
101322.847
101322.843
101322.838
101322.831
101322.821
101322.81
101322.797
101322.782
101322.765
101322.745
101322.723
101322.699
101322.673
101322.643
101322.611
101322.577
101322.539
101322.498
101322.454
101322.407
101322.356
101322.302
101322.243
101322.181
101322.115
101322.045
101321.97
101321.89
101321.805
101321.716
101321.621
101321.521
101321.415
101321.303
101321.185
101321.061
101320.928
101320.788
101320.643
101320.492
101320.333
101320.167
101319.993
101319.811
101319.621
101319.423
101319.216
101319
101318.774
101318.537
101318.288
101318.023
101317.738
101317.432
101317.099
101316.737
101316.338
101315.896
101315.404
101314.854
101314.238
101313.551
101312.788
101311.947
101311.018
101309.985
101308.825
101307.511
101306.01
101304.292
101302.345
101300.165
101297.728
101295.062
101292.279
101289.659
101324.755
101324.757
101324.758
101324.758
101324.756
101324.753
101324.749
101324.743
101324.736
101324.727
101324.717
101324.704
101324.691
101324.675
101324.658
101324.638
101324.617
101324.594
101324.568
101324.54
101324.51
101324.477
101324.442
101324.404
101324.363
101324.32
101324.273
101324.223
101324.17
101324.114
101324.054
101323.99
101323.923
101323.852
101323.776
101323.697
101323.613
101323.524
101323.432
101323.334
101323.231
101323.121
101323.007
101322.89
101322.767
101322.64
101322.507
101322.369
101322.226
101322.078
101321.924
101321.766
101321.602
101321.433
101321.258
101321.076
101320.884
101320.68
101320.46
101320.221
101319.958
101319.666
101319.337
101318.964
101318.537
101318.046
101317.479
101316.82
101316.047
101315.143
101314.102
101312.934
101311.653
101310.254
101308.73
101307.094
101305.355
101303.477
101301.416
101299.37
101326.861
101326.863
101326.864
101326.864
101326.863
101326.861
101326.858
101326.854
101326.849
101326.842
101326.835
101326.826
101326.816
101326.805
101326.792
101326.778
101326.762
101326.745
101326.726
101326.706
101326.683
101326.659
101326.633
101326.605
101326.575
101326.543
101326.509
101326.472
101326.433
101326.392
101326.348
101326.301
101326.252
101326.199
101326.144
101326.086
101326.025
101325.961
101325.894
101325.825
101325.752
101325.674
101325.592
101325.508
101325.422
101325.333
101325.241
101325.147
101325.05
101324.951
101324.85
101324.747
101324.643
101324.537
101324.429
101324.321
101324.21
101324.097
101323.978
101323.85
101323.709
101323.55
101323.364
101323.143
101322.874
101322.542
101322.13
101321.616
101320.985
101320.237
101319.389
101318.471
101317.502
101316.47
101315.344
101314.119
101312.774
101311.255
101309.616
101308.422
101329.118
101329.12
101329.121
101329.121
101329.12
101329.119
101329.117
101329.115
101329.112
101329.108
101329.104
101329.098
101329.092
101329.085
101329.077
101329.068
101329.058
101329.048
101329.036
101329.023
101329.009
101328.993
101328.977
101328.959
101328.939
101328.919
101328.897
101328.873
101328.848
101328.821
101328.793
101328.763
101328.732
101328.698
101328.663
101328.626
101328.588
101328.548
101328.506
101328.462
101328.417
101328.37
101328.32
101328.27
101328.218
101328.166
101328.112
101328.058
101328.004
101327.949
101327.894
101327.84
101327.787
101327.735
101327.685
101327.636
101327.588
101327.542
101327.496
101327.449
101327.398
101327.338
101327.263
101327.163
101327.026
101326.838
101326.582
101326.241
101325.807
101325.283
101324.689
101324.047
101323.379
101322.684
101321.932
101321.12
101320.269
101319.344
101318.319
101317.458
101331.474
101331.475
101331.475
101331.476
101331.476
101331.476
101331.475
101331.475
101331.474
101331.472
101331.47
101331.468
101331.466
101331.463
101331.46
101331.456
101331.452
101331.447
101331.442
101331.436
101331.429
101331.422
101331.415
101331.406
101331.397
101331.388
101331.377
101331.366
101331.354
101331.342
101331.328
101331.314
101331.299
101331.283
101331.267
101331.25
101331.232
101331.214
101331.195
101331.176
101331.157
101331.137
101331.117
101331.097
101331.078
101331.058
101331.04
101331.022
101331.005
101330.989
101330.975
101330.963
101330.954
101330.947
101330.943
101330.943
101330.947
101330.954
101330.963
101330.975
101330.99
101331.007
101331.018
101331.017
101330.998
101330.948
101330.855
101330.702
101330.48
101330.188
101329.839
101329.452
101329.052
101328.656
101328.256
101327.825
101327.362
101326.846
101326.251
101325.746
101333.881
101333.882
101333.883
101333.883
101333.884
101333.885
101333.885
101333.886
101333.887
101333.888
101333.889
101333.89
101333.891
101333.892
101333.893
101333.893
101333.894
101333.895
101333.896
101333.897
101333.897
101333.898
101333.899
101333.899
101333.899
101333.9
101333.9
101333.9
101333.901
101333.901
101333.901
101333.901
101333.901
101333.902
101333.902
101333.903
101333.904
101333.906
101333.908
101333.912
101333.916
101333.92
101333.926
101333.933
101333.941
101333.95
101333.962
101333.975
101333.991
101334.01
101334.032
101334.056
101334.085
101334.117
101334.153
101334.194
101334.241
101334.291
101334.347
101334.405
101334.471
101334.541
101334.609
101334.68
101334.751
101334.81
101334.849
101334.858
101334.828
101334.753
101334.63
101334.467
101334.282
101334.1
101333.937
101333.775
101333.581
101333.32
101333.02
101332.974
101336.294
101336.295
101336.295
101336.296
101336.297
101336.298
101336.3
101336.302
101336.305
101336.308
101336.311
101336.314
101336.318
101336.323
101336.327
101336.332
101336.338
101336.344
101336.35
101336.356
101336.363
101336.371
101336.378
101336.387
101336.395
101336.404
101336.414
101336.424
101336.435
101336.447
101336.459
101336.471
101336.485
101336.5
101336.516
101336.533
101336.551
101336.571
101336.592
101336.614
101336.637
101336.662
101336.69
101336.719
101336.751
101336.786
101336.824
101336.864
101336.908
101336.956
101337.008
101337.065
101337.126
101337.192
101337.263
101337.34
101337.423
101337.512
101337.609
101337.713
101337.822
101337.936
101338.058
101338.193
101338.336
101338.479
101338.624
101338.761
101338.887
101338.996
101339.088
101339.169
101339.242
101339.298
101339.345
101339.391
101339.437
101339.465
101339.477
101339.632
101338.675
101338.675
101338.675
101338.676
101338.677
101338.679
101338.682
101338.685
101338.688
101338.693
101338.698
101338.704
101338.71
101338.717
101338.725
101338.733
101338.743
101338.752
101338.763
101338.774
101338.787
101338.8
101338.814
101338.828
101338.844
101338.861
101338.878
101338.897
101338.917
101338.938
101338.961
101338.985
101339.01
101339.037
101339.065
101339.096
101339.128
101339.162
101339.197
101339.235
101339.275
101339.317
101339.363
101339.411
101339.463
101339.518
101339.577
101339.641
101339.708
101339.78
101339.857
101339.94
101340.028
101340.122
101340.223
101340.33
101340.446
101340.571
101340.707
101340.854
101341.012
101341.182
101341.365
101341.556
101341.759
101341.984
101342.227
101342.476
101342.733
101342.997
101343.27
101343.552
101343.826
101344.087
101344.344
101344.603
101344.868
101345.178
101345.535
101345.831
101340.986
101340.986
101340.985
101340.986
101340.987
101340.989
101340.992
101340.996
101341.001
101341.006
101341.012
101341.02
101341.028
101341.037
101341.047
101341.058
101341.07
101341.083
101341.097
101341.112
101341.129
101341.146
101341.165
101341.185
101341.207
101341.23
101341.254
101341.279
101341.307
101341.335
101341.366
101341.398
101341.432
101341.468
101341.506
101341.546
101341.588
101341.632
101341.679
101341.729
101341.782
101341.838
101341.898
101341.961
101342.029
101342.1
101342.176
101342.257
101342.343
101342.434
101342.532
101342.637
101342.749
101342.869
101342.998
101343.134
101343.277
101343.429
101343.594
101343.772
101343.969
101344.186
101344.417
101344.662
101344.927
101345.211
101345.529
101345.87
101346.228
101346.613
101347.023
101347.451
101347.889
101348.342
101348.813
101349.283
101349.749
101350.3
101350.926
101351.458
101343.202
101343.2
101343.199
101343.199
101343.2
101343.202
101343.205
101343.209
101343.214
101343.22
101343.227
101343.235
101343.245
101343.255
101343.267
101343.279
101343.293
101343.309
101343.325
101343.343
101343.362
101343.383
101343.405
101343.428
101343.453
101343.479
101343.508
101343.538
101343.57
101343.603
101343.639
101343.676
101343.715
101343.757
101343.801
101343.847
101343.897
101343.949
101344.004
101344.063
101344.125
101344.191
101344.26
101344.334
101344.413
101344.497
101344.586
101344.683
101344.786
101344.895
101345.01
101345.13
101345.258
101345.395
101345.54
101345.697
101345.869
101346.059
101346.259
101346.467
101346.686
101346.922
101347.175
101347.445
101347.741
101348.074
101348.444
101348.84
101349.268
101349.741
101350.26
101350.819
101351.418
101352.06
101352.725
101353.383
101354.074
101354.847
101355.697
101356.39
101345.296
101345.293
101345.291
101345.29
101345.29
101345.292
101345.294
101345.297
101345.302
101345.307
101345.314
101345.322
101345.332
101345.342
101345.354
101345.368
101345.382
101345.398
101345.416
101345.434
101345.455
101345.477
101345.5
101345.525
101345.552
101345.58
101345.61
101345.642
101345.676
101345.712
101345.75
101345.79
101345.833
101345.878
101345.926
101345.976
101346.03
101346.087
101346.146
101346.209
101346.277
101346.348
101346.425
101346.507
101346.594
101346.684
101346.777
101346.876
101346.983
101347.098
101347.226
101347.369
101347.521
101347.678
101347.843
101348.018
101348.2
101348.392
101348.597
101348.817
101349.053
101349.303
101349.573
101349.866
101350.188
101350.54
101350.92
101351.339
101351.805
101352.325
101352.904
101353.553
101354.272
101355.056
101355.901
101356.809
101357.775
101358.81
101359.916
101360.68
101347.251
101347.247
101347.243
101347.241
101347.24
101347.24
101347.241
101347.243
101347.246
101347.251
101347.257
101347.264
101347.273
101347.283
101347.294
101347.306
101347.32
101347.336
101347.353
101347.371
101347.392
101347.413
101347.436
101347.461
101347.488
101347.517
101347.547
101347.579
101347.613
101347.649
101347.688
101347.728
101347.771
101347.816
101347.864
101347.915
101347.969
101348.027
101348.089
101348.154
101348.221
101348.29
101348.363
101348.44
101348.524
101348.619
101348.722
101348.835
101348.954
101349.076
101349.202
101349.334
101349.476
101349.629
101349.794
101349.97
101350.158
101350.358
101350.572
101350.799
101351.042
101351.302
101351.581
101351.881
101352.207
101352.561
101352.948
101353.376
101353.85
101354.378
101354.967
101355.626
101356.364
101357.2
101358.172
101359.266
101360.438
101361.723
101363.05
101363.847
101349.057
101349.052
101349.046
101349.042
101349.039
101349.037
101349.036
101349.036
101349.038
101349.041
101349.045
101349.05
101349.057
101349.065
101349.074
101349.085
101349.098
101349.111
101349.127
101349.143
101349.162
101349.182
101349.203
101349.226
101349.251
101349.277
101349.306
101349.336
101349.368
101349.402
101349.438
101349.477
101349.518
101349.562
101349.609
101349.656
101349.705
101349.755
101349.808
101349.866
101349.931
101350.004
101350.08
101350.159
101350.242
101350.328
101350.418
101350.515
101350.619
101350.732
101350.853
101350.983
101351.123
101351.272
101351.432
101351.603
101351.786
101351.981
101352.189
101352.411
101352.648
101352.901
101353.172
101353.463
101353.777
101354.118
101354.491
101354.903
101355.357
101355.859
101356.417
101357.053
101357.798
101358.69
101359.71
101360.727
101361.798
101363.144
101364.694
101365.517
101350.705
101350.697
101350.689
101350.682
101350.676
101350.672
101350.669
101350.666
101350.665
101350.666
101350.667
101350.67
101350.674
101350.68
101350.686
101350.695
101350.704
101350.715
101350.728
101350.742
101350.757
101350.774
101350.793
101350.813
101350.835
101350.859
101350.885
101350.912
101350.941
101350.971
101351.002
101351.034
101351.068
101351.103
101351.14
101351.182
101351.228
101351.277
101351.329
101351.382
101351.436
101351.491
101351.552
101351.617
101351.687
101351.763
101351.844
101351.931
101352.025
101352.125