/*--------------------------------*- C++ -*----------------------------------*\
  =========                 |
  \\      /  F ield         | OpenFOAM: The Open Source CFD Toolbox
   \\    /   O peration     | Website:  https://openfoam.org
    \\  /    A nd           | Version:  8
     \\/     M anipulation  |
\*---------------------------------------------------------------------------*/
FoamFile
{
    version     2.0;
    format      ascii;
    class       surfaceScalarField;
    location    "0.02";
    object      phi;
}
// * * * * * * * * * * * * * * * * * * * * * * * * * * * * * * * * * * * * * //

dimensions      [1 0 -1 0 0 0 0];

internalField   nonuniform List<scalar> 
84340
(
-7.08428515e-08
3.07821833e-07
-2.36645234e-07
-2.86437919e-07
9.75663405e-07
-7.59528719e-07
-6.53169882e-07
1.70901522e-06
-1.34161688e-06
-1.17669206e-06
2.4982293e-06
-1.97393138e-06
-1.86258275e-06
3.33660676e-06
-2.64984375e-06
-2.71647798e-06
4.22013699e-06
-3.36527989e-06
-3.74414234e-06
5.14679452e-06
-4.11808099e-06
-4.95149303e-06
6.11593477e-06
-4.90744637e-06
-6.34459664e-06
7.12787108e-06
-5.73353757e-06
-7.92964133e-06
8.18354844e-06
-6.59717637e-06
-9.71288645e-06
9.28427824e-06
-7.49960177e-06
-1.17005918e-05
1.04315225e-05
-8.44227451e-06
-1.38989298e-05
1.16267334e-05
-9.42673334e-06
-1.63138835e-05
1.28712463e-05
-1.04545025e-05
-1.89511213e-05
1.4166209e-05
-1.15270437e-05
-2.18158733e-05
1.55125595e-05
-1.2645733e-05
-2.49127756e-05
1.6911011e-05
-1.38118767e-05
-2.82457164e-05
1.83620598e-05
-1.50267183e-05
-3.18176572e-05
1.98659998e-05
-1.62914782e-05
-3.56304416e-05
2.14229332e-05
-1.76073754e-05
-3.96845857e-05
2.30327798e-05
-1.89756565e-05
-4.39790465e-05
2.4695279e-05
-2.03976196e-05
-4.85109582e-05
2.64099744e-05
-2.18746299e-05
-5.32753493e-05
2.81761954e-05
-2.34081216e-05
-5.82648096e-05
2.99930061e-05
-2.49995965e-05
-6.34691275e-05
3.18591497e-05
-2.66505984e-05
-6.88748861e-05
3.37729593e-05
-2.83626643e-05
-7.44650072e-05
3.5732258e-05
-3.01372779e-05
-8.02182588e-05
3.7734228e-05
-3.19757734e-05
-8.6108709e-05
3.97752441e-05
-3.38792248e-05
-9.21051267e-05
4.1850666e-05
-3.58482894e-05
-9.81703251e-05
4.395457e-05
-3.78829982e-05
-0.000104260716
4.60797236e-05
-3.99825184e-05
-0.00011032678
4.82181951e-05
-4.2144846e-05
-0.000116313849
5.03613065e-05
-4.43664651e-05
-0.00012215927
5.24962086e-05
-4.66424921e-05
-0.000127766039
5.45846482e-05
-4.8969006e-05
-0.000133030896
5.66180014e-05
-5.13436972e-05
-0.000137860902
5.86024148e-05
-5.37623332e-05
-0.000142176431
6.05089271e-05
-5.61828348e-05
-0.000145825045
6.22697555e-05
-5.86101758e-05
-0.000148549453
6.37639692e-05
-6.10277444e-05
-0.000150071206
6.49402169e-05
-6.34056942e-05
-0.000150088711
6.57374586e-05
-6.570643e-05
-0.000148290411
6.60604514e-05
-6.78442946e-05
-0.000144381517
6.57946612e-05
-6.96881422e-05
-0.000137949933
6.48099705e-05
-7.12253035e-05
-0.000128560592
6.29417449e-05
-7.23138985e-05
-0.000115753755
6.00330215e-05
-7.28216954e-05
-9.89717507e-05
5.58628283e-05
-7.26256626e-05
-7.77820608e-05
5.03840111e-05
-7.15535086e-05
-5.16274042e-05
4.33226044e-05
-6.94560578e-05
-2.02478105e-05
3.47348079e-05
-6.60921486e-05
1.72853963e-05
2.36280296e-05
-6.11377884e-05
6.19709211e-05
9.90344734e-06
-5.4564677e-05
0.000114913724
-6.94447806e-06
-4.59732937e-05
0.000177377553
-2.70156733e-05
-3.54216991e-05
0.000250857375
-5.1682242e-05
-2.1769427e-05
0.000337024672
-8.13233313e-05
-4.81431525e-06
0.000437370937
-0.000116423708
1.61086777e-05
0.000553883905
-0.000157675194
4.11952318e-05
0.000687949027
-0.000206032641
7.20027024e-05
0.000841766718
-0.000262405537
0.000108625662
0.0010174791
-0.000327653395
0.000151981945
0.00121686706
-0.000402165667
0.00020282209
0.00144172859
-0.000487123101
0.000262307895
0.0016935833
-0.000583381533
0.00033157213
0.00197341752
-0.000692286148
0.000412496334
0.0022902812
-0.000828602834
0.000511782809
0.00265508788
-0.00097960125
0.000614837863
0.00303668195
-0.00110107664
0.000719525069
0.00342024887
-0.00130132757
0.000917802254
0.003937964
-0.00157894359
0.00106126917
0.00454837815
-0.00163692771
0.00102655256
0.00496034373
-0.0017439073
0.00133197643
0.00530847669
-0.00218649923
0.00183839765
0.00590690434
-0.00252360172
0.00192519922
0.00665967257
-0.00255779007
0.00180503949
0.00713591353
-0.00266507912
0.00218885177
-0.00285155241
0.00264613476
0.00734134024
-5.66506236e-08
3.64939407e-07
-2.30109104e-07
1.14978792e-06
-5.25897807e-07
2.00557331e-06
-9.48688894e-07
2.92188482e-06
-1.5028154e-06
3.89168696e-06
-2.19263594e-06
4.91099837e-06
-3.02251821e-06
5.97780582e-06
-3.9968603e-06
7.09149746e-06
-5.12007672e-06
8.25240482e-06
-6.3965561e-06
9.46144818e-06
-7.83059177e-06
1.07198446e-05
-9.42629058e-06
1.20288704e-05
-1.11874599e-05
1.33896789e-05
-1.31174734e-05
1.48031722e-05
-1.52191275e-05
1.62699217e-05
-1.74944638e-05
1.77901109e-05
-1.9944587e-05
1.93635167e-05
-2.25694563e-05
2.09894904e-05
-2.53676512e-05
2.26669471e-05
-2.83361192e-05
2.43943572e-05
-3.14698932e-05
2.61697271e-05
-3.47617739e-05
2.79905643e-05
-3.82019892e-05
2.98538408e-05
-4.17778057e-05
3.17559251e-05
-4.54730982e-05
3.36924909e-05
-4.92678725e-05
3.56584127e-05
-5.3137714e-05
3.76476046e-05
-5.70531856e-05
3.96528681e-05
-6.09792157e-05
4.1665752e-05
-6.48746461e-05
4.36765459e-05
-6.86919778e-05
4.56742678e-05
-7.23770422e-05
4.7646322e-05
-7.58632489e-05
4.95730859e-05
-7.90715438e-05
5.1434155e-05
-8.19190269e-05
5.32168525e-05
-8.43233548e-05
5.49090105e-05
-8.62003805e-05
5.6470759e-05
-8.74087948e-05
5.78360881e-05
-8.77361233e-05
5.89399981e-05
-8.69285589e-05
5.97122811e-05
-8.47230991e-05
6.0075926e-05
-8.08893392e-05
5.99426459e-05
-7.51459056e-05
5.92100312e-05
-6.71622832e-05
5.7767898e-05
-5.65737311e-05
5.54868014e-05
-4.29902034e-05
5.22269079e-05
-2.59086631e-05
4.77451026e-05
-4.90381658e-06
4.19544544e-05
2.02403147e-05
3.49073361e-05
4.98416744e-05
2.62809546e-05
8.50135934e-05
1.52323656e-05
0.000126638703
1.71847056e-06
0.000175749011
-1.43532491e-05
0.000233531519
-3.41308494e-05
0.000301363717
-5.79039315e-05
0.000380573642
-8.61283031e-05
0.000472909687
-0.000119324327
0.000579552322
-0.000158296079
0.000702051747
-0.000203792438
0.000842240078
-0.000256579862
0.00100210964
-0.000317510838
0.00118366785
-0.000387555034
0.00138903362
-0.000467733905
0.00162047328
-0.000559056007
0.00187941421
-0.000661071805
0.00216641049
-0.000774086114
0.00248271172
-0.00089965067
0.0028282998
-0.00103784255
0.00319941152
-0.00119968314
0.0036173974
-0.00139755528
0.00408552312
-0.00156917031
0.00451156704
-0.00172733888
0.00493284276
-0.00200018722
0.00553206549
-0.00223612112
0.00611892612
-0.00233074203
0.00642996634
-0.00249751406
0.00661819618
-0.00271180621
0.00692157202
-0.0028611428
0.00725402308
-0.00299751174
-0.00309072098
0.00749320437
-4.41402475e-08
4.09638999e-07
-1.79923906e-07
1.2863704e-06
-4.1165709e-07
2.23822957e-06
-7.42677086e-07
3.2539417e-06
-1.17589957e-06
4.32605255e-06
-1.71390835e-06
5.450253e-06
-2.35921437e-06
6.62446075e-06
-3.11428166e-06
7.84801969e-06
-3.98142675e-06
9.12111581e-06
-4.96275959e-06
1.04444641e-05
-6.06009394e-06
1.18189864e-05
-7.2748317e-06
1.32455479e-05
-8.60782588e-06
1.47247536e-05
-1.0059221e-05
1.62567975e-05
-1.16282715e-05
1.78413615e-05
-1.33131437e-05
1.94775413e-05
-1.5110685e-05
2.11637957e-05
-1.70161797e-05
2.28979131e-05
-1.90230685e-05
2.46769658e-05
-2.1122641e-05
2.64972733e-05
-2.3303694e-05
2.83543504e-05
-2.55521509e-05
3.02428316e-05
-2.78506425e-05
3.21563972e-05
-3.01780103e-05
3.4087627e-05
-3.25087525e-05
3.60278527e-05
-3.48124478e-05
3.79670306e-05
-3.70532783e-05
3.98936769e-05
-3.91894397e-05
4.17946077e-05
-4.11709244e-05
4.36531775e-05
-4.29400813e-05
4.54520399e-05
-4.44334469e-05
4.71743576e-05
-4.55818073e-05
4.88017745e-05
-4.63147677e-05
5.03135926e-05
-4.65313348e-05
5.16587638e-05
-4.61011114e-05
5.27951188e-05
-4.48494424e-05
5.36663656e-05
-4.25731183e-05
5.42040543e-05
-3.90648423e-05
5.43380251e-05
-3.40952715e-05
5.39813378e-05
-2.74038222e-05
5.30324873e-05
-1.87245292e-05
5.14090182e-05
-7.75632389e-06
4.89875906e-05
5.83137749e-06
4.56362817e-05
2.24480621e-05
4.11659922e-05
4.24732594e-05
3.54772743e-05
6.60568961e-05
2.86599463e-05
9.39542801e-05
1.98651703e-05
0.000126838995
9.08758286e-06
0.000165509571
-3.74461399e-06
0.000210960068
-1.91493879e-05
0.00026440716
-3.81930907e-05
0.000326954243
-6.080574e-05
0.000400093321
-8.74682205e-05
0.000484808301
-0.000118820424
0.000582422013
-0.000155490924
0.000694448719
-0.000198126823
0.000822595497
-0.00024744143
0.000968557126
-0.000304226639
0.00113401961
-0.000369222593
0.00132067037
-0.000443196768
0.00153030472
-0.00052711103
0.00176464797
-0.000621865726
0.00202587378
-0.000728929615
0.00231602297
-0.000849176929
0.0026360885
-0.000981110544
0.0029839971
-0.00112196858
0.00335673083
-0.00127235862
0.00375624705
-0.00143733255
0.00416716355
-0.00161057291
0.00458887179
-0.00181923566
0.00504949406
-0.00202976458
0.00551283124
-0.00219064833
0.00586638746
-0.00235371735
0.00617044698
-0.00254015249
0.00651126218
-0.00267152173
0.00679621378
-0.00278243537
0.00695915179
-0.00287471613
0.00708600072
-0.00298796148
0.00719438678
-0.00310588028
-0.00321544523
0.0073191227
-3.63673095e-08
4.46547961e-07
-1.48021141e-07
1.39879346e-06
-3.37791392e-07
2.42888537e-06
-6.0733114e-07
3.52447394e-06
-9.57856996e-07
4.67767156e-06
-1.39015221e-06
5.88373966e-06
-1.90457817e-06
7.14017739e-06
-2.50112261e-06
8.44595754e-06
-3.17962489e-06
9.80111967e-06
-3.93949124e-06
1.12059469e-05
-4.77957627e-06
1.26608106e-05
-5.69804548e-06
1.41658872e-05
-6.69220343e-06
1.57209217e-05
-7.75830831e-06
1.73250621e-05
-8.89135943e-06
1.89767319e-05
-1.00848538e-05
2.0673525e-05
-1.13305274e-05
2.24121396e-05
-1.26180567e-05
2.41883049e-05
-1.39347393e-05
2.59967151e-05
-1.52651075e-05
2.78309247e-05
-1.65904562e-05
2.96832119e-05
-1.78883272e-05
3.15444583e-05
-1.9132013e-05
3.34040949e-05
-2.02901455e-05
3.52500418e-05
-2.1326114e-05
3.70683936e-05
-2.21986073e-05
3.88444067e-05
-2.28616229e-05
4.05618833e-05
-2.32644108e-05
4.22028958e-05
-2.33443844e-05
4.37389921e-05
-2.30220386e-05
4.51359152e-05
-2.22019776e-05
4.6360917e-05
-2.07673832e-05
4.73742173e-05
-1.85704649e-05
4.81241527e-05
-1.54579783e-05
4.85542075e-05
-1.12510896e-05
4.85966428e-05
-5.74341825e-06
4.81676662e-05
1.29800182e-06
4.71722002e-05
1.0109476e-05
4.55367099e-05
2.09547392e-05
4.31468563e-05
3.41208707e-05
3.98777959e-05
4.99811806e-05
3.55608263e-05
6.89003018e-05
3.00813318e-05
9.10345629e-05
2.35156842e-05
0.000117108614
1.51061831e-05
0.000147750957
4.84974354e-06
0.000183719944
-7.29319819e-06
0.000225848465
-2.22464089e-05
0.000275128178
-4.01741662e-05
0.000332852182
-6.14495506e-05
0.000400237764
-8.65147375e-05
0.000478005757
-0.000115939658
0.000567492369
-0.000150269643
0.000670154006
-0.000190105788
0.000787482545
-0.000236123472
0.000920997724
-0.000288979401
0.00107227956
-0.000349380774
0.00124293053
-0.000418063277
0.00143439517
-0.000495660697
0.00164819373
-0.000582990653
0.00188557111
-0.000680545497
0.00214757669
-0.000789090113
0.0024346597
-0.000908923941
0.00274762448
-0.00104187112
0.00308616857
-0.00118769867
0.00344990904
-0.00134482936
0.00383404182
-0.00150607968
0.004230093
-0.00166838793
0.00463724451
-0.00184446124
0.00504697146
-0.0020202772
0.00541737506
-0.00218961772
0.00573392377
-0.00234629119
0.00602406191
-0.0024807547
0.00626164995
-0.00259127213
0.0064254833
-0.00270396087
0.00656632348
-0.00281233626
0.00670521963
-0.00292130274
0.00685040697
-0.00301987358
0.00697255624
-0.00311008459
0.00707090507
-0.00320421107
-0.00329982294
0.00715529444
-3.40980632e-08
4.81307974e-07
-1.37642734e-07
1.50327602e-06
-3.11721453e-07
2.60404202e-06
-5.56097728e-07
3.77005605e-06
-8.69848389e-07
4.99274733e-06
-1.2516544e-06
6.26698633e-06
-1.69962042e-06
7.58970001e-06
-2.21114027e-06
8.95915263e-06
-2.78302188e-06
1.03747996e-05
-3.41145953e-06
1.18363122e-05
-4.09176682e-06
1.33431819e-05
-4.81819948e-06
1.4894528e-05
-5.58375207e-06
1.64888348e-05
-6.37992278e-06
1.81237544e-05
-7.19644982e-06
1.97959508e-05
-8.02102583e-06
2.15009724e-05
-8.83895536e-06
2.323313e-05
-9.63275805e-06
2.49853683e-05
-1.03817576e-05
2.67491851e-05
-1.10617724e-05
2.85146306e-05
-1.16446571e-05
3.02700228e-05
-1.20984788e-05
3.20024561e-05
-1.23872898e-05
3.36973318e-05
-1.24680364e-05
3.5335476e-05
-1.22877593e-05
3.68930927e-05
-1.17845359e-05
3.83464536e-05
-1.08848284e-05
3.96677453e-05
-9.49942074e-06
4.08233947e-05
-7.52845195e-06
4.17742987e-05
-4.86085717e-06
4.24749657e-05
-1.36276468e-06
4.28698583e-05
3.12572515e-06
4.28932089e-05
8.79028728e-06
4.2467551e-05
1.58215575e-05
4.15313764e-05
2.44380057e-05
3.99891477e-05
3.48795034e-05
3.77356661e-05
4.74080768e-05
3.46537023e-05
6.23645129e-05
3.05909509e-05
8.00999966e-05
2.54227152e-05
0.000100791873
1.91979931e-05
0.000125114055
1.12512501e-05
0.000153642822
1.56570212e-06
0.000187050582
-9.87799193e-06
0.000226110523
-2.39386103e-05
0.000271720591
-4.07442024e-05
0.000325090847
-6.06462931e-05
0.000386946275
-8.40835933e-05
0.000458327466
-0.000111535949
0.000540412847
-0.000143514298
0.000634495657
-0.000180575549
0.000741894472
-0.000223315125
0.00086400612
-0.00027235668
0.00100227013
-0.000328344048
0.00115810776
-0.000391934171
0.00133295196
-0.000463795375
0.00152808426
-0.00054448336
0.00174465608
-0.000634605588
0.00198345395
-0.000734431056
0.00224485165
-0.000844362888
0.00252851969
-0.00096418977
0.00283360536
-0.00109415358
0.00315755415
-0.00123285164
0.0034981983
-0.00138249515
0.00385091733
-0.00154039802
0.00421470728
-0.00170859996
0.00458181565
-0.0018731686
0.00494059671
-0.00202715006
0.00526620282
-0.00217004927
0.00554558727
-0.00229964286
0.00576835899
-0.00241236554
0.0059440172
-0.00252192433
0.00609042866
-0.0026271431
0.0062240531
-0.00272486929
0.0063451918
-0.00282506637
0.00645215786
-0.00291927331
0.00654800076
-0.0030171218
0.00664320544
-0.00311505904
0.00674252359
-0.00320938416
0.00684795326
-0.00330961979
-0.00340233081
0.00695047459
-3.614642e-08
5.18037122e-07
-1.4374423e-07
1.61169598e-06
-3.21840335e-07
2.78308059e-06
-5.68020845e-07
4.01728982e-06
-8.78991433e-07
5.30487526e-06
-1.25070113e-06
6.639955e-06
-1.67846805e-06
8.01882955e-06
-2.15682219e-06
9.43897719e-06
-2.67891294e-06
1.08984736e-05
-3.23701886e-06
1.23961208e-05
-3.82207283e-06
1.39300656e-05
-4.42343465e-06
1.54978551e-05
-5.02861933e-06
1.70961294e-05
-5.62299548e-06
1.87203944e-05
-6.18943932e-06
2.03648222e-05
-6.70797434e-06
2.20221084e-05
-7.15543172e-06
2.36833734e-05
-7.50513708e-06
2.5338057e-05
-7.72672685e-06
2.69739598e-05
-7.78384969e-06
2.85751483e-05
-7.63368973e-06
3.01234854e-05
-7.22656923e-06
3.15992052e-05
-6.5041223e-06
3.29790085e-05
-5.40123964e-06
3.42369757e-05
-3.84364057e-06
3.53401517e-05
-1.74225193e-06
3.62500124e-05
1.00877909e-06
3.6921978e-05
4.53398584e-06
3.73037941e-05
8.97230978e-06
3.73419332e-05
1.44770053e-05
3.69765917e-05
2.1222113e-05
3.61314578e-05
2.94033983e-05
3.47190367e-05
3.92372653e-05
3.26412226e-05
5.09884045e-05
2.97882256e-05
6.49654685e-05
2.60205366e-05
8.15021615e-05
2.1207938e-05
0.00010078766
1.53777291e-05
0.00012343182
7.95673489e-06
0.000149956741
-1.09185545e-06
0.000180958352
-1.17925475e-05
0.000217127053
-2.49055794e-05
0.000259252842
-4.05474669e-05
0.000308426119
-5.90378616e-05
0.000365296114
-8.07943471e-05
0.000430818399
-0.00010625133
0.000506061926
-0.000135873676
0.000592168754
-0.000170173205
0.000690346505
-0.000209695364
0.000801856155
-0.000255004567
0.000927988592
-0.00030668755
0.00107003189
-0.000365336962
0.00122922351
-0.000431525745
0.00140670489
-0.000505801643
0.00160341137
-0.000588615472
0.00182005584
-0.000680414678
0.0020569907
-0.000781394506
0.00231410692
-0.000891699626
0.00259056831
-0.00101087156
0.00288467671
-0.00113845166
0.00319334231
-0.00127283666
0.00351323015
-0.0014140236
0.00383886889
-0.001558473
0.00416584481
-0.00170945411
0.00448778586
-0.00186232252
0.00478657931
-0.00200737839
0.00504896059
-0.00213553478
0.00527274858
-0.0022509205
0.00545292723
-0.00235020894
0.00560235468
-0.00244905121
0.00573280341
-0.00254279232
0.00584966379
-0.00263875823
0.00595451046
-0.00273196535
0.00605096395
-0.00282129806
0.00614037688
-0.00291445346
0.00622354317
-0.0030024192
0.00630498575
-0.00309854292
0.00639413507
-0.00320418867
0.00649279483
-0.00330802223
0.00659633192
-0.0034131391
-0.00351232811
0.00670633872
-3.97879045e-08
5.58531207e-07
-1.56010531e-07
1.72891475e-06
-3.45276633e-07
2.97348815e-06
-6.02528283e-07
4.27581572e-06
-9.21583793e-07
5.62532849e-06
-1.29521186e-06
7.01509951e-06
-1.7150812e-06
8.4403342e-06
-2.1717364e-06
9.89739054e-06
-2.65421073e-06
1.13828333e-05
-3.14959042e-06
1.28935179e-05
-3.64317302e-06
1.44258046e-05
-4.11796752e-06
1.59749521e-05
-4.55434583e-06
1.75349641e-05
-4.92963749e-06
1.90983053e-05
-5.217707e-06
2.0655683e-05
-5.38842553e-06
2.21957922e-05
-5.40693025e-06
2.37050262e-05
-5.23238055e-06
2.51668579e-05
-4.81762802e-06
2.65627639e-05
-4.11036877e-06
2.78716542e-05
-3.04974052e-06
2.90668461e-05
-1.56374558e-06
3.01174399e-05
4.32532345e-07
3.09872188e-05
3.03610628e-06
3.16381565e-05
6.35525279e-06
3.2026037e-05
1.05128189e-05
3.20977711e-05
1.56482035e-05
3.17922281e-05
2.19187055e-05
3.10392535e-05
2.95074759e-05
2.97594681e-05
3.86267036e-05
2.78640322e-05
4.95181484e-05
2.52470666e-05
6.24623808e-05
2.1782259e-05
7.77725491e-05
1.73389528e-05
9.56458303e-05
1.19233338e-05
0.000116623777
5.05135653e-06
0.000141172372
-3.33151418e-06
0.000169825583
-1.3265709e-05
0.000203198429
-2.54056325e-05
0.000241984228
-3.98665142e-05
0.000287145666
-5.69421343e-05
0.000339270166
-7.70174693e-05
0.000399223086
-0.000100486957
0.000467976292
-0.000127776757
0.000546551321
-0.000159354082
0.000636033068
-0.000195716783
0.000737557891
-0.000237381217
0.000852279583
-0.000284876645
0.000981336356
-0.000338732876
0.00112581387
-0.000399461833
0.00128668506
-0.000467537439
0.00146474497
-0.000543374404
0.00166052141
-0.000627278326
0.00187424017
-0.000719496416
0.00210571001
-0.00082006258
0.00235420055
-0.000928883867
0.00261835169
-0.00104552546
0.0028960837
-0.00116941262
0.00318423346
-0.00129900318
0.00347874835
-0.00143294925
0.00377378576
-0.00156785728
0.00406536878
-0.00170559039
0.0043473316
-0.00184042043
0.00460334893
-0.00196545722
0.00482260226
-0.00208156247
0.0049980844
-0.0021828466
0.00514025971
-0.0022776919
0.00526223239
-0.00237287601
0.0053733606
-0.00246131838
0.00547602387
-0.00255169363
0.00557187664
-0.00263862708
0.00565833535
-0.00272519487
0.00574160219
-0.00281521065
0.00582146759
-0.00290114192
0.00589831533
-0.00299127794
0.00597811179
-0.00308219851
0.00605674782
-0.00317716179
0.00613944912
-0.00328687217
0.00623712192
-0.00340567593
0.00634201413
-0.0035180154
-0.00361613694
0.00644583114
-4.23075915e-08
6.01412272e-07
-1.62849701e-07
1.85026356e-06
-3.55078786e-07
3.16664015e-06
-6.1056579e-07
4.53233281e-06
-9.19437307e-07
5.93533108e-06
-1.27037421e-06
7.36726603e-06
-1.65048779e-06
8.82177704e-06
-2.04513644e-06
1.0293473e-05
-2.43787698e-06
1.17771185e-05
-2.80951183e-06
1.32668143e-05
-3.13803898e-06
1.47561173e-05
-3.39815143e-06
1.62369823e-05
-3.56076017e-06
1.76996314e-05
-3.59242091e-06
1.91321754e-05
-3.4547247e-06
2.05203561e-05
-3.10358945e-06
2.18471908e-05
-2.48860547e-06
2.309275e-05
-1.55171872e-06
2.42328709e-05
-2.25006607e-07
2.52391549e-05
1.56873384e-06
2.60812258e-05
3.91742922e-06
2.67216835e-05
6.92059766e-06
2.7118039e-05
1.0690936e-05
2.72208946e-05
1.53595115e-05
2.69738526e-05
2.10781258e-05
2.63119642e-05
2.80194238e-05
2.51612971e-05
3.63790474e-05
2.34377253e-05
4.63823395e-05
2.10413895e-05
5.82880042e-05
1.78595463e-05
7.22951062e-05
1.38630234e-05
8.87015313e-05
8.84711809e-06
0.000107964555
2.5260143e-06
0.000130503524
-5.19294001e-06
0.000156793174
-1.43587724e-05
0.000187377469
-2.55248828e-05
0.000222862208
-3.88077175e-05
0.000264091635
-5.4486091e-05
0.000311599761
-7.29041704e-05
0.000366163436
-9.4420026e-05
0.000428654607
-0.000119422516
0.000499984958
-0.000148336349
0.000581122728
-0.000181612545
0.000673077904
-0.000219719059
0.000776874436
-0.000263137026
0.000893519768
-0.000312347803
0.00102396987
-0.000367816238
0.00116908127
-0.000429972202
0.00132955331
-0.000499188247
0.00150586161
-0.000575752528
0.0016981719
-0.000659829015
0.0019062665
-0.000751449936
0.00212946303
-0.00085045643
0.00236651208
-0.000956527969
0.00261555828
-0.00106909207
0.00287400426
-0.00118731394
0.00313839162
-0.00130989751
0.0034047088
-0.00143571511
0.00366799482
-0.00156227476
0.00392384755
-0.00168878789
0.00416654187
-0.00181053821
0.00438336159
-0.00192239811
0.00456696179
-0.00202400872
0.00471643078
-0.00211491265
0.00483666193
-0.00220177918
0.00494169276
-0.00228786331
0.00503542157
-0.00237140673
0.00511972402
-0.00245716337
0.00520091613
-0.00254249292
0.00527507955
-0.00262584018
0.00534689064
-0.00271042411
0.00541607783
-0.0027943669
0.00548601323
-0.00288512787
0.00556204997
-0.00297716068
0.00564200202
-0.00307121221
0.00572827705
-0.00316845648
0.00581541519
-0.00326428347
0.0058942716
-0.00336571339
0.00597614064
-0.00348752868
0.00607613787
-0.00361799939
-0.00372281458
0.00618282288
-4.02684107e-08
6.42402492e-07
-1.51300376e-07
1.96231349e-06
-3.22655422e-07
3.33916129e-06
-5.41751098e-07
4.75272969e-06
-7.9415939e-07
6.18916603e-06
-1.06349043e-06
7.63814427e-06
-1.33113844e-06
9.09109168e-06
-1.57594316e-06
1.05400663e-05
-1.77379821e-06
1.19768909e-05
-1.89724752e-06
1.33923152e-05
-1.9146849e-06
1.47757453e-05
-1.78991456e-06
1.61145487e-05
-1.48147741e-06
1.73936846e-05
-9.41903501e-07
1.85952531e-05
-1.16831636e-07
1.96981045e-05
1.0559758e-06
2.06773811e-05
2.6478763e-06
2.15040346e-05
4.73998111e-06
2.21441456e-05
7.42397529e-06
2.25587432e-05
1.08061259e-05
2.27028741e-05
1.50076054e-05
2.25242303e-05
2.01663007e-05
2.19636065e-05
2.64387146e-05
2.09529915e-05
3.40025611e-05
1.94147779e-05
4.30618072e-05
1.72577602e-05
5.3839612e-05
1.43888281e-05
6.6527669e-05
1.07553345e-05
8.14782637e-05
6.09675104e-06
9.9016685e-05
3.27306814e-07
0.000119518506
-6.63228286e-06
0.000143417865
-1.50452663e-05
0.000171192886
-2.52415788e-05
0.000203375203
-3.73673907e-05
0.000240701078
-5.16763078e-05
0.000283659597
-6.84745604e-05
0.000332946312
-8.8085052e-05
0.000389329616
-0.000110859436
0.000453616738
-0.000137180696
0.000526663975
-0.000167456013
0.000609362769
-0.000202109404
0.000702616423
-0.000241577435
0.000807315356
-0.000286298221
0.000924307315
-0.000336697062
0.00105435485
-0.000393169876
0.0011980856
-0.000456063135
0.0013559365
-0.000525650962
0.00152809053
-0.000602109209
0.00171440758
-0.000685487267
0.00191433768
-0.000775664057
0.00212686961
-0.000872342745
0.00235042255
-0.000974985555
0.00258279156
-0.00108280891
0.00282110735
-0.001194828
0.00306182506
-0.00130979462
0.00330093078
-0.00142640509
0.00353370642
-0.00154265892
0.00375595889
-0.00165795369
0.00396218227
-0.00176848497
0.00414377534
-0.00187036902
0.00429680176
-0.00196355214
0.00442191935
-0.00204750245
0.00452535959
-0.00212743545
0.00461762585
-0.00220716668
0.00470150858
-0.00228564807
0.00477954889
-0.00236588877
0.00485213069
-0.00244397559
0.00491802551
-0.00252304415
0.00498168841
-0.00260614136
0.00504358212
-0.00268771944
0.00510525701
-0.00277208394
0.00517054376
-0.00285963837
0.00523657738
-0.00295114571
0.00530615262
-0.00304672034
0.0053825874
-0.00314763158
0.00546919262
-0.00325504692
0.00556522499
-0.00336030146
0.00565719507
-0.00345767024
0.00573376413
-0.00356408386
0.00581499289
-0.00369921682
-0.00382670067
0.00591888557
-3.25893836e-08
6.75546937e-07
-1.16375403e-07
2.0468824e-06
-2.36001668e-07
3.45968477e-06
-3.73536475e-07
4.89126703e-06
-5.08635163e-07
6.32536646e-06
-6.18258639e-07
7.74896729e-06
-6.76259827e-07
9.15039158e-06
-6.52940915e-07
1.05181489e-05
-5.14409538e-07
1.18398705e-05
-2.22101463e-07
1.3101635e-05
2.67980576e-07
1.4287415e-05
1.00593088e-06
1.53784826e-05
2.04885858e-06
1.63527827e-05
3.4618766e-06
1.71844122e-05
5.31913915e-06
1.78431789e-05
7.70548659e-06
1.82935405e-05
1.07173677e-05
1.84948428e-05
1.44645922e-05
1.83998042e-05
1.90719916e-05
1.79544305e-05
2.4681321e-05
1.70968468e-05
3.14525069e-05
1.57565736e-05
3.9568174e-05
1.38517056e-05
4.92316555e-05
1.12935307e-05
6.06258789e-05
8.02484791e-06
7.40554562e-05
3.83272293e-06
8.98198684e-05
-1.37079252e-06
0.000108251995
-7.67167567e-06
0.000129728348
-1.53741433e-05
0.000154662375
-2.46009299e-05
0.000183608801
-3.5572559e-05
0.000217099661
-4.85296008e-05
0.000255605418
-6.37404136e-05
0.000299739031
-8.14936698e-05
0.000350175532
-0.000102105037
0.000407626602
-0.000125917392
0.000472846126
-0.000153295858
0.000546618192
-0.000184622319
0.000629738208
-0.000220291056
0.000722992166
-0.000260699842
0.000827131352
-0.000306237972
0.000942837052
-0.000357272034
0.00107067902
-0.00041412858
0.00121106746
-0.000477073405
0.00136419842
-0.000546288218
0.00152999384
-0.00062184541
0.00170804009
-0.000703683411
0.00189752153
-0.000791576202
0.00209717338
-0.000885124641
0.00230523647
-0.000983713304
0.00251940923
-0.00108650224
0.00273685122
-0.00119241485
0.00295411333
-0.00130005879
0.00316732925
-0.00140803214
0.00337227108
-0.00151472497
0.00356536803
-0.00161949077
0.00374247942
-0.00171975949
0.00389707287
-0.00181253735
0.0040263355
-0.00189773714
0.00413252097
-0.00197654315
0.00422194694
-0.00205296863
0.00430274199
-0.00212828739
0.00437765553
-0.00220233478
0.00444691265
-0.00227641118
0.0045114249
-0.00235015102
0.00457305367
-0.00242750634
0.00463458699
-0.00250549741
0.00469634297
-0.00258478945
0.00475842109
-0.00266820693
0.00482269566
-0.00275198134
0.00488855394
-0.00283792903
0.00495709663
-0.00292816772
0.00502697278
-0.00302100839
0.00509758095
-0.00311731625
0.00516735219
-0.00321739133
0.0052402654
-0.00332794772
0.0053219771
-0.00344200035
0.00541530252
-0.00355098445
0.00550489721
-0.00365366874
0.00557812468
-0.00377243502
-0.00390479129
0.00565622473
-1.854058e-08
6.94829131e-07
-5.52405793e-08
2.08462894e-06
-8.83050973e-08
3.49394879e-06
-9.28111417e-08
4.89711192e-06
-4.06812412e-08
6.27470489e-06
9.97454258e-08
7.61013433e-06
3.64280264e-07
8.88757545e-06
7.93509321e-07
1.00907657e-05
1.4333791e-06
1.12019785e-05
2.33594831e-06
1.22011814e-05
3.56033287e-06
1.30652913e-05
5.17375857e-06
1.37674709e-05
7.25249295e-06
1.42766221e-05
9.88367881e-06
1.4555968e-05
1.31661278e-05
1.45636521e-05
1.72121002e-05
1.4250681e-05
2.21487593e-05
1.35614958e-05
2.81197392e-05
1.24323465e-05
3.52882671e-05
1.07896443e-05
4.38383325e-05
8.55075913e-06
5.39426986e-05
5.65643853e-06
6.58655812e-05
1.93328848e-06
7.98706572e-05
-2.70683924e-06
9.62529165e-05
-8.35240031e-06
0.000115345123
-1.52541448e-05
0.000137522272
-2.35422744e-05
0.000163258283
-3.34016726e-05
0.000192940308
-4.50497876e-05
0.000227068823
-5.87226739e-05
0.000266183354
-7.46799058e-05
0.000310866087
-9.32047089e-05
0.000361737028
-0.000114603253
0.000419453912
-0.00013920196
0.000484701509
-0.000167343544
0.000558176707
-0.000199383
0.000640571453
-0.000235680499
0.000732551465
-0.000276591705
0.000834727468
-0.000322455898
0.000947620789
-0.000373581469
0.0010716235
-0.000430228443
0.00120695264
-0.000492588404
0.0013535995
-0.000560762119
0.00151127556
-0.000634735626
0.00167935834
-0.000714356546
0.00185684016
-0.000799312114
0.00204228163
-0.000889109364
0.00223379227
-0.000983071686
0.00242901787
-0.00108033572
0.00262519825
-0.00117987982
0.00281918454
-0.00128047519
0.00300765196
-0.00138086945
0.00318704753
-0.00147944185
0.00335432192
-0.0015752945
0.00350605517
-0.00166644704
0.00363776904
-0.00175119396
0.00374878962
-0.00183076864
0.00384095111
-0.00190468684
0.00392052885
-0.00197730452
0.00399280962
-0.00204881508
0.0040614248
-0.00212157463
0.00412467163
-0.00219152406
0.00418525341
-0.00226290447
0.00424381244
-0.00233495952
0.00430160645
-0.0024079352
0.00436102535
-0.00248691495
0.00442234057
-0.00256680252
0.00448633905
-0.00264877775
0.00455054803
-0.00273240546
0.00461524848
-0.00281667132
0.00468136451
-0.00290403473
0.00474769472
-0.0029944877
0.00481219912
-0.00308550109
0.0048724373
-0.00317754276
0.00492989433
-0.00327483596
0.00498838933
-0.00338642904
0.00506120027
-0.00351479871
0.00515003041
-0.00363980441
0.0052457232
-0.00374935279
0.005330375
-0.00385707722
-0.00397902035
0.00540461428
2.34459019e-09
6.9304481e-07
3.46313905e-08
2.0531343e-06
1.26660684e-07
3.4028292e-06
3.12065211e-07
4.71272583e-06
6.28524413e-07
5.95936718e-06
1.11833666e-06
7.12154506e-06
1.8290791e-06
8.17815941e-06
2.81446768e-06
9.10681157e-06
4.13524418e-06
9.88275126e-06
5.86016553e-06
1.04779323e-05
8.06692797e-06
1.08603317e-05
1.08440374e-05
1.09923044e-05
1.42915286e-05
1.08312269e-05
1.85226792e-05
1.0327078e-05
2.36655033e-05
9.42326376e-06
2.98645997e-05
8.05420684e-06
3.72834928e-05
6.14542665e-06
4.60831006e-05
3.63578096e-06
5.6490447e-05
3.85552469e-07
6.87364597e-05
-3.69177744e-06
8.30807524e-05
-8.68411299e-06
9.98151817e-05
-1.4797115e-05
0.000119265191
-2.21525341e-05
0.000141836139
-3.0918729e-05
0.00016787505
-4.12881134e-05
0.000197808631
-5.34705741e-05
0.000232109214
-6.76966166e-05
0.000271283362
-8.421792e-05
0.000315873444
-0.00010330634
0.000366452957
-0.000125252589
0.000423618692
-0.000150363201
0.000487979996
-0.000178956899
0.00056014521
-0.0002113591
0.000640704301
-0.000247894138
0.000730205835
-0.000288875622
0.000829129152
-0.000334594486
0.000937851721
-0.000385304541
0.00105661166
-0.000441205698
0.00118546556
-0.000502424865
0.00132424363
-0.000568995626
0.00147250333
-0.000640836888
0.00162948533
-0.00071773257
0.00179407527
-0.000799313665
0.00196477716
-0.000885046074
0.00213969791
-0.000974220447
0.00231656961
-0.00106596908
0.00249278051
-0.00115927117
0.00266547007
-0.00125301438
0.00283170243
-0.00134610177
0.00298863279
-0.00143739546
0.00313395318
-0.00152618007
0.00326554664
-0.00161102627
0.00338023471
-0.00168997443
0.00347814921
-0.0017643534
0.00356058768
-0.00183362521