/*--------------------------------*- C++ -*----------------------------------*\
  =========                 |
  \\      /  F ield         | OpenFOAM: The Open Source CFD Toolbox
   \\    /   O peration     | Website:  https://openfoam.org
    \\  /    A nd           | Version:  8
     \\/     M anipulation  |
\*---------------------------------------------------------------------------*/
FoamFile
{
    version     2.0;
    format      ascii;
    class       volScalarField;
    location    "0.02";
    object      T;
}
// * * * * * * * * * * * * * * * * * * * * * * * * * * * * * * * * * * * * * //

dimensions      [0 0 0 1 0 0 0];

internalField   nonuniform List<scalar> 
42400
(
472.202498
470.58988
468.934951
467.236803
465.494583
463.707513
461.874904
459.996169
458.070851
456.098638
454.079391
452.01317
449.900265
447.741227
445.5369
443.28846
440.997452
438.665826
436.295975
433.890776
431.453621
428.988452
426.499792
423.992761
421.473096
418.947156
416.421916
413.904948
411.404395
408.928919
406.487641
404.090063
401.745974
399.465345
397.258211
395.134552
393.104171
391.176541
389.360679
387.665087
386.097676
384.665709
383.375618
382.232886
381.242018
380.406459
379.728501
379.209345
378.848928
378.6458
378.597963
378.697795
378.941715
379.322482
379.82967
380.450197
381.16704
381.959557
382.790464
383.627627
384.45582
385.30427
385.820446
385.940528
385.684699
384.956733
383.955119
382.583265
380.719607
378.225255
375.094951
370.928378
366.285484
361.794042
355.404601
347.722881
340.842031
335.191055
326.960889
321.128093
472.237087
470.694415
469.111295
467.486881
465.820392
464.111125
462.358466
460.561914
458.721098
456.835795
454.905962
452.931758
450.913573
448.852061
446.748175
444.6032
442.418791
440.197012
437.94037
435.651858
433.334985
430.993811
428.632977
426.257725
423.873914
421.48803
419.107179
416.739074
414.392004
412.074791
409.796734
407.567534
405.397211
403.295996
401.274219
399.342199
397.510151
395.788055
394.185508
392.711583
391.374637
390.18211
389.140271
388.254054
387.526942
386.960813
386.555771
386.309787
386.218555
386.275013
386.471575
386.795623
387.231168
387.759122
388.348856
388.971915
389.608932
390.273015
390.688037
390.800808
390.614571
389.888733
388.937832
387.676398
386.03327
383.866453
381.083473
377.619906
373.363972
368.372716
362.903143
356.643086
349.741844
343.283532
336.701361
329.120475
322.187658
315.865272
310.866825
306.179187
472.281543
470.828775
469.337954
467.808326
466.239202
464.629981
462.980156
461.28934
459.557281
457.783883
455.969232
454.113624
452.217588
450.281922
448.307725
446.296431
444.249843
442.170174
440.060078
437.922692
435.761665
433.581191
431.386038
429.181565
426.973742
424.769153
422.574992
420.399049
418.249678
416.135757
414.066625
412.052019
410.101992
408.22683
406.436918
404.74261
403.154066
401.681033
400.332596
399.116919
398.040955
397.110225
396.328533
395.69767
395.217002
394.883323
394.691344
394.631595
394.686962
394.843337
395.07732
395.3643
395.683606
396.032748
396.207289
396.161572
395.836997
395.080156
394.128955
392.908731
391.349947
389.348405
386.787236
383.621998
379.830153
375.414321
370.384985
364.749783
358.513768
351.743367
344.842981
337.962149
330.912353
324.248706
318.294567
312.98481
308.26742
304.389196
301.275936
300.133387
472.332562
470.982967
469.598073
468.177225
466.71985
465.225463
463.693688
462.124277
460.517123
458.872286
457.190016
455.470777
453.715278
451.924498
450.099722
448.242575
446.355049
444.439546
442.498905
440.53644
438.555965
436.561828
434.558927
432.55273
430.549282
428.555208
426.577698
424.624492
422.703847
420.824486
418.99552
417.226361
415.526606
413.90589
412.373684
410.939082
409.610535
408.395534
407.30034
406.329635
405.486147
404.770231
404.179532
403.709151
403.349762
403.087985
402.908842
402.794382
402.727971
402.650552
402.468388
402.12821
401.565521
400.696531
399.656477
398.383609
396.817098
394.881455
392.464564
389.524509
386.025393
381.943526
377.264725
372.010295
366.246902
360.078312
353.59538
346.858908
340.003098
333.152069
326.564913
320.502679
315.026627
310.245049
306.295688
303.278096
301.020057
300.104913
299.899158
299.872124
472.386419
471.145738
469.872668
468.566669
467.227285
465.854167
464.447082
463.005931
461.530771
460.021835
458.479551
456.904572
455.297801
453.660416
451.993905
450.300089
448.58116
446.839704
445.078733
443.301712
441.512579
439.715765
437.916207
436.119352
434.331157
432.558067
430.806988
429.085238
427.40048
425.760626
424.173715
422.64776
421.190556
419.809438
418.511042
417.301003
416.18361
415.161433
414.234936
413.402078
412.658305
411.995664
411.403346
410.869414
410.366584
409.842158
409.255369
408.558562
407.69673
406.662457
405.473237
404.08026
402.431735
400.462443
398.085607
395.262286
391.959399
388.154097
383.837471
379.015264
373.702325
367.936918
361.76157
355.267642
348.579389
341.873385
335.286274
328.918192
322.899764
317.38184
312.501655
308.388881
305.103187
302.723326
300.952064
300.110091
299.922642
299.878123
299.863841
299.860913
472.438948
471.304501
470.140516
468.946568
467.722328
466.46758
465.18223
463.86633
462.520093
461.143911
459.738379
458.304316
456.842791
455.355143
453.843009
452.308349
450.753466
449.181029
447.594092
445.996108
444.390933
442.782835
441.176477
439.576902
437.989495
436.419934
434.874115
433.358055
431.877762
430.439083
429.047517
427.70799
426.424594
425.200287
424.036591
422.933217
421.887714
420.895404
419.948789
419.037054
418.138493
417.22651
416.270291
415.235455
414.098744
412.856013
411.473228
409.912753
408.130764
406.068433
403.670637
400.900983
397.727315
394.12472
390.078703
385.586215
380.655921
375.310994
369.584781
363.53403
357.22303
350.740009
344.165501
337.62614
331.273715
325.274748
319.743552
314.791526
310.508916
306.974958
304.227331
302.237729
300.896611
300.095083
299.924413
299.876806
299.863073
299.859686
299.85342
299.848835
472.485468
471.44511
470.377753
469.283085
468.160887
467.011059
465.833623
464.628747
463.396755
462.138147
460.853614
459.54406
458.210617
456.854662
455.477837
454.082059
452.669533
451.242758
449.804528
448.357926
446.906308
445.453274
444.002629
442.558321
441.124367
439.704751
438.303298
436.92352
435.568438
434.240367
432.940684
431.669545
430.425581
429.205565
428.004207
426.813666
425.622231
424.413809
423.169867
421.870896
420.49842
419.030271
417.440297
415.697265
413.761718
411.590308
409.149035
406.404663
403.327034
399.890936
396.078034
391.878151
387.290463
382.324615
377.000416
371.349469
365.40996
359.244324
352.927212
346.55042
340.204812
333.99911
328.045725
322.452919
317.347083
312.843866
309.021873
305.937662
303.585324
301.908856
300.829162
300.184191
299.954127
299.897256
299.879362
299.868694
299.858861
299.847939
299.833944
299.818992
472.521016
471.552562
470.559067
469.540303
468.496131
467.42652
466.33155
465.21143
464.066509
462.897283
461.704412
460.488728
459.251245
457.993164
456.715879
455.420977
454.110227
452.785573
451.449106
450.103037
448.749644
447.391218
446.02998
444.667987
443.307011
441.948397
440.592895
439.240468
437.890072
436.539424
435.184806
433.820837
432.440295
431.03355
429.588672
428.091031
426.524257
424.870633
423.108197
421.209793
419.149308
416.899209
414.431222
411.717186
408.730101
405.446099
401.845422
397.913657
393.642966
389.033194
384.092745
378.839214
373.29947
367.509775
361.511704
355.362625
349.134122
342.914719
336.80086
330.898449
325.313205
320.136661
315.474479
311.402987
307.987693
305.258466
303.199151
301.75054
300.813982
300.277682
300.009588
299.924979
299.898516
299.882958
299.867374
299.848541
299.828157
299.814857
299.81082
299.811193
472.540933
471.612773
470.660681
469.684466
468.68401
467.659274
466.610307
465.537248
464.440335
463.319908
462.176407
461.010378
459.822463
458.613396
457.384005
456.135193
454.867911
453.583123
452.281768
450.964706
449.632646
448.286066
446.925102
445.549425
444.158081
442.749332
441.320446
439.867407
438.384497
436.863699
435.296586
433.673061
431.981047
430.206687
428.333958
426.344888
424.219801
421.937583
419.47607
416.812617
413.924796
410.791091
407.392345
403.712473
399.739422
395.466176
390.891715
386.021916
380.870369
375.45905
369.818759
363.988894
358.016448
351.955521
345.875734
339.858124
333.991288
328.374934
323.110643
318.288501
313.996468
310.295766
307.232457
304.81374
302.999813
301.720658
300.884411
300.385603
300.120126
299.993584
299.938209
299.905305
299.872756
299.844304
299.825791
299.816708
299.815483
299.8114
299.809518
299.809759
472.541813
471.615435
470.665159
469.690764
468.692077
467.668974
466.621386
465.549295
464.45273
463.331768
462.186518
461.017117
459.823707
458.606419
457.365335
456.100471
454.811736
453.498876
452.161404
450.79851
449.408958
447.990949
446.541952
445.058491
443.534533
441.963331
440.338725
438.653421
436.899231
435.067391
433.146389
431.122987
428.982542
426.70913
424.285735
421.69454
418.917322
415.935904
412.732664
409.291637
405.599084
401.644205
397.419967
392.92394
388.159127
383.134765
377.867108
372.380142
366.706308
360.886988
354.972395
349.01953
343.096113
337.280689
331.658287
326.319775
321.355995
316.848606
312.871267
309.475727
306.693166
304.509495
302.875539
301.718732
300.949833
300.472265
300.19399
300.04011
299.954702
299.899589
299.858371
299.829873
299.817626
299.813719
299.812669
299.813845
299.814232
299.810846
299.80322
299.801555
472.524388
471.562802
470.576436
469.565038
468.52837
467.466207
466.378327
465.26451
464.124525
462.958132
461.765065
460.54502
459.297227
458.019994
456.711399
455.370096
453.994404
452.582251
451.131098
449.637867
448.098869
446.509742
444.86544
443.160224
441.389038
439.545642
437.621145
435.605545
433.487789
431.255787
428.896448
426.395812
423.73924
420.911678
417.897979
414.683261
411.253693
407.597006
403.703014
399.564288
395.176892
390.541149
385.662446
380.552049
375.227912
369.715432
364.048161
358.268365
352.427415
346.585611
340.809388
335.176101
329.76939
324.673947
319.972153
315.735779
312.025909
308.879214
306.309975
304.296831
302.789587
301.712827
300.980849
300.507488
300.215831
300.042522
299.936136
299.872633
299.838006
299.822281
299.819058
299.81661
299.815653
299.812912
299.808664
299.805247
299.804872
299.803249
299.797762
299.793558
472.487431
471.451128
470.388069
469.297894
468.180208
467.034567
465.860463
464.657065
463.422816
462.156543
460.856856
459.522094
458.150696
456.741573
455.293335
453.803387
452.268724
450.685871
449.05082
447.358995
445.605172
443.783394
441.886984
439.90848
437.839543
435.670979
433.392712
430.993832
428.462676
425.786957
422.953936
419.950643
416.764147
413.382074
409.793109
405.987359
401.956924
397.696525
393.204205
388.482089
383.537201
378.382315
373.036806
367.527466
361.889197
356.165504
350.408749
344.679838
339.047346
333.584653
328.369586
323.483683
319.003472
314.991275
311.495307
308.540851
306.1288
304.23083
302.795409
301.754835
301.033112
300.552797
300.245051
300.054193
299.939517
299.871236
299.840309
299.830303
299.824243
299.819855
299.81739
299.815465
299.812963
299.810081
299.805594
299.799626
299.794945
299.794609
299.794597
299.792359
472.432199
471.28419
470.106389
468.898231
467.659048
466.388044
465.083632
463.744673
462.370405
460.959274
459.509479
458.018939
456.485267
454.905721
453.277162
451.595989
449.858106
448.058867
446.19301
444.254654
442.237244
440.133493
437.935397
435.634233
433.220575
430.684338
428.014857
425.200997
422.231305
419.094206
415.778325
412.272972
408.568397
404.65626
400.530172
396.186314
391.624139
386.847137
381.86367
376.68783
371.340304
365.849169
360.250545
354.588998
348.917576
343.29733
337.796288
332.487153
327.444461
322.739674
318.44018
314.601314
311.263279
308.443258
306.135662
304.308735
302.911658
301.881962
301.150568
300.649725
300.319379
300.109487
299.980795
299.905061
299.863344
299.843969
299.834697
299.828435
299.823414
299.818765
299.814584
299.812366
299.811713
299.8103
299.805927
299.799354
299.795535
299.793413
299.791635
299.788164
472.363264
471.075849
469.754902
468.39966
467.009192
465.582204
464.1176
462.613851
461.069175
459.481502
457.848435
456.16722
454.434706
452.647302
450.800944
448.891041
446.912458
444.859477
442.725743
440.504274
438.187439
435.766971
433.233989
430.579043
427.792193
424.863113
421.781238
418.535942
415.117007
411.514791
407.720617
403.72723
399.529334
395.124209
390.512416
385.69856
380.692124
375.508316
370.168901
364.702942
359.14735
353.547147
347.955311
342.432063
337.043501
331.859544
326.951122
322.385681
318.223386
314.510844
311.278889
308.538459
306.282505
304.481168
303.087668
302.043739
301.286638
300.756195
300.397889
300.164968
300.019676
299.933157
299.884191
299.857789
299.843393
299.834555
299.827833
299.822131
299.818081
299.815318
299.813651
299.81234
299.81124
299.810686
299.807172
299.802135
299.796412
299.7919
299.787394
299.783666
472.283861
470.835877
469.350088
467.825534
466.261029
464.655131
463.006333
461.312711
459.572019
457.78166
455.938643
454.039552
452.080508
450.057137
447.964535
445.797227
443.549161
441.213684
438.783546
436.250902
433.607343
430.843945
427.951339
424.919825
421.739507
418.40058
414.89358
411.209651
407.340932
403.281004
399.025429
394.572358
389.923226
385.083506
380.063514
374.879223
369.553041
364.114477
358.600608
353.056221
347.5335
342.09114
336.792773
331.704714
326.892907
322.419683
318.339974
314.69661
311.517259
308.809706
306.564909
304.753867
303.333269
302.250721
301.450381
300.877795
300.482444
300.219586
300.051808
299.949384
299.889768
299.856549
299.838798
299.829199
299.824691
299.821196
299.818854
299.817274
299.81544
299.813591
299.812209
299.811175
299.80954
299.807065
299.805067
299.803778
299.79907
299.79365
299.787894
299.784631
472.195944
470.570176
468.901882
467.189894
465.432759
463.628849
461.776264
459.872676
457.915373
455.901226
453.826658
451.687603
449.479478
447.197162
444.834969
442.386634
439.845319
437.203616
434.453582
431.586785
428.594384
425.467234
422.196044
418.77166
415.185246
411.428597
407.494512
403.377243
399.073017
394.580637
389.902152
385.043583
380.015693
374.834751
369.523242
364.110463
358.632905
353.134319
347.665353
342.282624
337.047112
332.021863
327.268981
322.846358
318.803792
315.180185
312.000577
309.274253
306.993861
305.13449
303.658193
302.518321
301.663659
301.042451
300.605438
300.308786
300.114884
299.993168
299.919807
299.877456
299.853544
299.84022
299.83257
299.82803
299.824506
299.820913
299.81753
299.814835
299.812307
299.809349
299.806441
299.804244
299.80238
299.800117
299.795556
299.795713
299.799461
299.79726
299.791734
299.789949
472.100754
470.28249
468.416591
466.501698
464.536167
462.518072
460.44508
458.314444
456.122974
453.867009
451.542382
449.144401
446.667823
444.106842
441.45509
438.705649
435.851077
432.883461
429.794496
426.575582
423.218025
419.71323
416.05292
412.229446
408.236144
404.067778
399.721044
395.195148
390.492448
385.61915
380.586034
375.409161
370.110535
364.71863
359.268706
353.802824
348.369457
343.0226
337.820293
332.822525
328.088497
323.67339
319.62474
315.979707
312.762097
309.981274
307.631164
305.691987
304.131405
302.907883
301.974509
301.282853
300.785802
300.43992
300.20689
300.055088
299.959788
299.901854
299.867573
299.845233
299.832911
299.825013
299.819616
299.815435
299.811502
299.807826
299.803797
299.799767
299.795797
299.79222
299.789276
299.787035
299.786042
299.786291
299.787381
299.788105
299.794579
299.802935
299.803456
299.803372
471.999284
469.975826
467.89931
465.768188
463.580558
461.33413
459.026185
456.653548
454.212555
451.699023
449.108234
446.434919
443.673258
440.816885
437.858921
434.792021
431.608446
428.300166
424.859055
421.277051
417.546383
413.659867
409.611259
405.395667
401.010041
396.453722
391.729054
386.842043
381.803036
376.627395
371.336107
365.956275
360.5214
355.071386
349.652152
344.314791
339.11421
334.107231
329.35021
324.896269
320.792317
317.076118
313.772495
310.892574
308.434034
306.381813
304.708374
303.376262
302.342754
301.562901
300.991171
300.584533
300.304206
300.116993
299.995854
299.919506
299.872684
299.845668
299.830675
299.8248
299.820095
299.815878
299.812281
299.808581
299.805803
299.802149
299.797394
299.79237
299.788885
299.786467
299.784647
299.784154
299.784705
299.787493
299.789854
299.790003
299.79066
299.802069
299.810395
299.810796
471.892531
469.653187
467.355053
464.996358
462.574924
460.088138
457.532912
454.905658
452.202262
449.418073
446.547894
443.585988
440.526106
437.361525
434.08512
430.689459
427.166978
423.510128
419.711601
415.764603
411.663189
407.402655
402.980001
398.394446
393.648009
388.746131
383.698314
378.518763
373.226964
367.848158
362.413636
356.96077
351.532691
346.177552
340.947286
335.895896
331.077292
326.542767
322.338353
318.502261
315.062699
312.036253
309.426192
307.222695
305.403564
303.937171
302.784293
301.901335
301.243253
300.766795
300.432355
300.205185
300.056026
299.961321
299.903131
299.868606
299.84928
299.838121
299.83071
299.824855
299.819737
299.815424
299.811823
299.809045
299.805881
299.802179
299.797206
299.792591
299.78936
299.787101
299.786716
299.787199
299.789783
299.796211
299.803058
299.804716
299.799874
299.800084
299.81014
299.81319
471.781516
469.317663
466.789052
464.19368
461.529101
458.792385
455.980097
453.088275
450.112418
447.04749
443.887937
440.627721
437.260383
433.779126
430.176964
426.446872
422.581986
418.575857
414.422769
410.118099
405.658749
401.043636
396.274227
391.355133
386.294712
381.105679
375.805673
370.417727
364.970595
359.498846
354.042664
348.647269
343.361894
338.238277
333.328683
328.683616
324.349353
320.365416
316.76239
313.56001
310.766141
308.376971
306.376672
304.738929
303.428794
302.406141
301.628245
301.052555
300.638719
300.349942
300.154629
300.026865
299.946328
299.897386
299.868875
299.853149
299.843507
299.836519
299.830312
299.825195
299.820456
299.816102
299.813592
299.80986
299.805668
299.801899
299.79807
299.793921
299.790876
299.791092
299.794347
299.799146
299.805219
299.809223
299.810451
299.81537
299.819931
299.813237
299.811709
299.81897
472.584891
471.745568
470.884387
470.000954
469.094868
468.165727
467.21312
466.23663
465.235826
464.210269
463.159499
462.08304
460.98039
459.85102
458.69437
457.509838
456.296779
455.054496
453.782229
452.479148
451.144339
449.776797
448.375404
446.938921
445.465966
443.954998
442.40429
440.811924
439.175779
437.49353
435.762649
433.979423
432.138858
430.236613
428.26757
426.225658
424.105809
421.903855
419.612363
417.223356
414.728387
412.118728
409.385261
406.518623
403.509555
400.349347
397.03042
393.547082
389.896498
386.079887
382.103934
377.982364
373.737592
369.402231
365.020147
360.646653
356.34724
352.194365
348.265036
344.642478
341.401976
338.602746
336.27938
334.435587
333.041901
332.038554
331.343803
330.866427
330.518994
330.227864
329.937934
329.612325
329.228623
328.776006
328.257477
327.692361
327.109929
326.535618
325.993269
325.52966
472.585407
471.747153
470.887124
470.004967
469.100328
468.172855
467.222189
466.247973
465.24984
464.227416
463.180319
462.108154
461.010511
459.886963
458.737061
457.56033
456.356268
455.124335
453.863949
452.574479
451.255236
449.905461
448.524315
447.110868
445.664082
444.1828
442.665726
441.111362
439.518017
437.883777
436.206476
434.483658
432.712568
430.890176
429.013191
427.078109
425.079099
423.007949
420.85803
418.621352
416.288211
413.85553
411.31505
408.656462
405.869338
402.943579
399.869527
396.63827
393.242492
389.677513
385.942523
382.042041
377.987608
373.799593
369.508924
365.158453
360.803465
356.510957
352.35688
348.420997
344.784773
341.527997
338.714469
336.383235
334.54067
333.156877
332.168719
331.489856
331.025033
330.684401
330.394334
330.101915
329.772706
329.386583
328.936189
328.425035
327.865144
327.27436
326.67744
326.101976
472.582917
471.739649
470.874522
469.987217
469.077418
468.144814
467.189094
466.209948
465.207065
464.180131
463.12883
462.05284
460.951834
459.825476
458.673422
457.495314
456.290782
455.059437
453.800866
452.514629
451.20025
449.857211
448.484937
447.082787
445.650038
444.185862
442.689318
441.159357
439.594777
437.994192
436.356012
434.67841
432.9593
431.196307
429.386754
427.527645
425.615316
423.645651
421.614216
419.516351
417.347371
415.094072
412.746332
410.293731
407.723454
405.030202
402.207592
399.24343
396.126565
392.84791
389.400681
385.781262
381.990894
378.03755
373.937839
369.71899
365.420632
361.095966
356.811676
352.646202
348.685663
345.016826
341.72189
338.873304
336.517299
334.665017
333.287815
332.320037
331.669497
331.233365
330.915378
330.638253
330.34711
330.006952
329.600254
329.125614
328.597551
328.039575
327.46861
326.882786
472.577242
471.722516
470.845672
469.946418
469.024469
468.079547
467.111379
466.119697
465.104235
464.064731
463.000926
461.91256
460.799377
459.661122
458.497538
457.308371
456.093366
454.852264
453.584801
452.290706
450.969697
449.621472
448.245707
446.842046
445.41009
443.949388
442.459417
440.939572
439.389139
437.80727
436.192957
434.54499
432.861919
431.141996
429.383117
427.582738
425.738146
423.846192
421.903255
419.905229
417.847516
415.725055
413.531851
411.261607
408.90835
406.456541
403.889546
401.194301
398.354565
395.368069
392.229377
388.92692
385.452988
381.805862
377.989415
374.015494
369.906388
365.697096
361.436974
357.19052
353.036589
349.065168
345.371234
342.045294
339.161436
336.77425
334.901281
333.516331
332.551533
331.908916
331.480178
331.166818
330.892013
330.603068
330.269349
329.879116
329.43411
328.940291
328.400245
327.8163
472.568095
471.69489
470.79912
469.880511
468.938803
467.973743
466.985092
465.972614
464.936084
463.875285
462.790007
461.680046
460.545211
459.385318
458.200193
456.989675
455.753612
454.491864
453.204302
451.890805
450.551261
449.185561
447.793597
446.375256
444.930415
443.458929
441.960626
440.435287
438.882637
437.302322
435.693887
434.056749
432.390164
430.693188
428.964638
427.203033
425.406548
423.572936
421.699446
419.78273
417.818722
415.802511
413.728934
411.59242
409.386715
407.104952
404.740332
402.284976
399.731792
397.058516
394.244768
391.275419
388.131208
384.828256
381.357973
377.718148
373.915474
369.967513
365.903271
361.766012
357.615495
353.527719
349.592052
345.905875
342.565776
339.655633
337.232878
335.318578
333.89408
332.89632
332.230269
331.789416
331.47517
331.208878
330.934956
330.619161
330.245375
329.813306
329.335307
328.826811
472.555147
471.655772
470.73318
469.787109
468.817315
467.823567
466.805648
465.763352
464.696489
463.604878
462.488356
461.346772
460.179992
458.987901
457.770402
456.527422
455.258907
453.96483
452.645187
451.299998
449.92931
448.533189
447.111727
445.66503
444.19322
442.696427
441.174782
439.628408
438.057406
436.461846
434.841745
433.197045
431.527594
429.833107
428.113137
426.367028
424.593869
422.792439
420.961141
419.097929
417.200225
415.264842
413.287878
411.264611
409.189361
407.055334
404.854455
402.57857
400.219633
397.768956
395.218651
392.561063
389.790612
386.869256
383.785293
380.525841
377.090414
373.502959
369.770269
365.912962
361.96876
357.990105
354.045132
350.217308
346.600107
343.288767
340.370271
337.910395
335.940675
334.449742
333.386977
332.671661
332.205468
331.891801
331.647673
331.409504
331.136187
330.809931
330.429815
329.994871
472.538163
471.604459
470.646669
469.664539
468.657834
467.626337
466.569852
465.488195
464.381204
463.248735
462.090662
460.906882
459.697317
458.461915
457.20065
455.913531
454.600598
453.261929
451.897639
450.50788
449.092846
447.65277
446.187925
444.698622
443.185209
441.648064
440.087594
438.504228
436.898405
435.270568
433.621147
431.950546
430.259122
428.547162
426.814854
425.062253
423.289239
421.495476
419.680354
417.84293
415.981837
414.095221
412.180643
410.23499
408.254368
406.234001
404.168128
402.049944
399.871505
397.623639
395.29587
392.876767
390.357637
387.729549
384.986415
382.122713
379.125371
375.966512
372.644806
369.15937
365.561084
361.874683
358.14082
354.417836
350.778619
347.306886
344.0911
341.214805
338.745944
336.726608
335.164492
334.028928
333.256753
332.770766
332.480463
332.296536
332.14057
331.951653
331.689009
331.328923
472.516896
471.540201
470.53832
469.511
468.458008
467.379137
466.274199
465.143032
463.985493
462.801467
461.590863
460.35362
459.08971
457.799137
456.481946
455.138221
453.768094
452.37174
450.94939
449.501324
448.027879
446.529447
445.006478
443.45948
441.889015
440.295703
438.680213
437.043264
435.385615
433.708062
432.011421
430.296524
428.564198
426.815251
425.050445
423.270474
421.475921
419.66722
417.844604
416.008059
414.157249
412.291451
410.409477
408.50958
406.589365
404.645684
402.674531
400.670942
398.628917
396.541354
394.400029
392.195656
389.918015
387.556038
385.098009
382.53194
379.8516
377.053213
374.139461
371.115608
367.956019
364.674995
361.293506
357.85171
354.413051
351.032867
347.779569
344.729596
341.959771
339.538288
337.516069
335.919881
334.748538
333.967872
333.507669
333.289614
333.221152
333.19707
333.1151
332.90733
472.4911
471.462253
470.406874
469.3247
468.215491
467.079038
465.915156
464.723689
463.50451
462.257521
460.98266
459.6799
458.349255
456.990782
455.604589
454.190834
452.749733
451.281563
449.786667
448.265454
446.718408
445.146084
443.549115
441.928213
440.284167
438.617845
436.930192
435.22223
433.495048
431.749807
429.987722
428.210055
426.418103
424.613178
422.796593
420.969629
419.133515
417.289381
415.438214
413.58082
411.717755
409.849266
407.975215
406.094988
404.207413
402.310653
400.40211
398.478323
396.534872
394.566303
392.566075
390.5266
388.439281
386.294667
384.082687
381.793071
379.41589
376.942075
374.364064
371.677873
368.886974
366.000911
363.034022
359.999689
356.910576
353.807709
350.73922
347.769072
344.960928
342.38053
340.092963
338.156025
336.614083
335.490672
334.779933
334.43288
334.403955
334.56912
334.71484
334.769858
472.460664
471.370277
470.251756
469.104812
467.929188
466.724657
465.491024
464.228127
462.93584
461.614073
460.26278
458.881957
457.471653
456.03197
454.563071
453.065187
451.538616
449.983737
448.401009
446.790981
445.154292
443.491677
441.803973
440.092119
438.357157
436.600239
434.822618
433.025657
431.210816
429.379658
427.533834
425.675077
423.805189
421.926023
420.039465
418.147408
416.251725
414.354233
412.456647
410.560535
408.667257
406.777903
404.893216
403.013508
401.13857
399.267559
397.398932
395.530314
393.658412
391.778936
389.886513
387.974685
386.035964
384.062086
382.044058
379.972387
377.837609
375.630932
373.344923
370.974714
368.518671
365.97919
363.358767
360.672929
357.94117
355.188815
352.445708
349.743339
347.126921
344.647623
342.361753
340.329714
338.613646
337.274013
336.36292
335.909702
335.931433
336.347992
336.865922
337.235354
472.425775
471.264836
470.07391
468.852667
467.600814
466.318091
465.004276
463.659186
462.28268
460.87466
459.435083
457.963957
456.461354
454.927415
453.362353
451.766463
450.140133
448.483844
446.798181
445.083843
443.341642
441.572519
439.777541
437.95791
436.114964
434.250184
432.365193
430.461752
428.541763
426.607264
424.660419
422.703512
420.73893
418.769148
416.796704
414.824174
412.854138
410.889136
408.931625
406.983918
405.048127
403.126102
401.21934
399.328888
397.455248
395.598266
393.757042
391.929813
390.113928
388.305754
386.500574
384.692467
382.874363
381.038495
379.176442
377.279271
375.337998
373.344112
371.290129
369.170558
366.982573
364.726915
362.408581
360.037461
357.628428
355.201454
352.778986
350.390627
348.068253
345.847551
343.772608
341.891786
340.260807
338.944487
338.016962
337.555646
337.632968
338.287966
339.284041
340.228562
472.387053
471.147805
469.876496
468.572738
467.236181
465.866518
464.463478
463.026841
461.556433
460.052135
458.513889
456.941704
455.335665
453.695941
452.022791
450.316578
448.577776
446.80698
445.004914
443.172446
441.31059
439.420522
437.503583
435.561287
433.595329
431.607586
429.600123
427.575191
425.535227
423.482845
421.420833
419.352133
417.27983
415.207127
413.137313
411.073736
409.019757
406.9787
404.953785
402.948062
400.964345
399.005153
397.072601
395.168295
393.293228
391.447671
389.631051
387.841814
386.077476
384.334567
382.608549
380.893674
379.18299
377.468691
375.742305
373.994954
372.21777
370.402459
368.541928
366.631016
364.667211
362.651328
360.588038
358.486206
356.359023
354.224031
352.103593
350.024207
348.016179
346.11214
344.353162
342.780516
341.44219
340.39621
339.71285
339.478664
339.768782
340.759772
342.220058
343.865471
472.345652
471.022674
469.665397
468.27336
466.84614
465.38336
463.88469
462.34985
460.778619
459.17084
457.526431
455.84539
454.127805
452.373869
450.583889
448.758296
446.89766
445.002704
443.074314
441.113553
439.121676
437.100138
435.050608
432.974974
430.87536
428.754121
426.613855
424.457398
422.287824
420.108435
417.922751
415.734492
413.547549
411.365953
409.193838
407.035391
404.894803
402.776204
400.683582
398.620691
396.590997
394.597581
392.643052
390.729435
388.858058
387.029429
385.243105
383.497553
381.79015
380.117154
378.473682
376.853724
375.250207
373.655174
372.060054
370.456016
368.834446
367.187518
365.508861
363.794273
362.042429
360.255528
358.439797
356.605818
354.76861
352.94742
351.165936
349.45322
347.83363
346.325922
345.005106
343.903435
343.058907
342.514691
342.318482
342.512582
343.286333
344.556273
346.29156
348.362345
472.303353
470.894818
469.449682
467.967394
466.447446
464.889377
463.292778
461.657303
459.98267
458.268673
456.515197
454.722221
452.889838
451.018264
449.107855
447.159123
445.17275
443.149606
441.090764
438.99752
436.871406
434.714207
432.527972
430.315029
428.077994
425.819778
423.543588
421.252927
418.951591
416.643648
414.333431
412.025505
409.72464
407.435767
405.163929
402.914214
400.691696
398.501346
396.34794
394.235961
392.169508
390.152165
388.186912
386.276003
384.420848
382.621907
380.878611
379.189282
377.551084
375.960009
374.410901
372.897539
371.412778
369.948774