/*--------------------------------*- C++ -*----------------------------------*\
  =========                 |
  \\      /  F ield         | OpenFOAM: The Open Source CFD Toolbox
   \\    /   O peration     | Website:  https://openfoam.org
    \\  /    A nd           | Version:  8
     \\/     M anipulation  |
\*---------------------------------------------------------------------------*/
FoamFile
{
    version     2.0;
    format      ascii;
    class       volVectorField;
    location    "0.02";
    object      U;
}
// * * * * * * * * * * * * * * * * * * * * * * * * * * * * * * * * * * * * * //

dimensions      [0 1 -1 0 0 0 0];

internalField   nonuniform List<vector> 
42400
(
(-0.0167765115 0.0160402513 -1.07886955e-26)
(-0.0522889619 0.0488858536 3.50081646e-26)
(-0.0897878641 0.082275179 3.74968507e-26)
(-0.128540976 0.115441087 0)
(-0.16800644 0.147878365 0)
(-0.207849492 0.179256232 1.07626237e-27)
(-0.247873232 0.209369005 0)
(-0.287967626 0.238096759 -1.20590476e-27)
(-0.328077982 0.265375413 0)
(-0.368183206 0.291175241 -1.34893539e-27)
(-0.408279539 0.315485494 -1.42583228e-27)
(-0.448368899 0.338303839 1.50651812e-27)
(-0.488451315 0.359629814 -3.47858798e-26)
(-0.528520713 0.379461576 -3.4337588e-26)
(-0.56856313 0.397795034 1.77291043e-27)
(-0.60855654 0.414624564 0)
(-0.648471614 0.429944629 0)
(-0.688272878 0.443751792 0)
(-0.727919946 0.456046773 0)
(-0.767368597 0.466836343 0)
(-0.806571542 0.476134916 0)
(-0.845478838 0.483965787 5.11775951e-27)
(-0.884037886 0.490362001 -3.24782192e-26)
(-0.922193016 0.495366866 -7.46057389e-26)
(-0.959884646 0.499034112 -4.30321673e-26)
(-0.997048014 0.501427734 6.26162558e-27)
(-1.03361151 0.502621554 6.57954851e-27)
(-1.06949458 0.502698527 -1.38222543e-26)
(-1.10460524 0.501749786 0)
(-1.13883712 0.499873327 0)
(-1.1720656 0.497172264 7.75129245e-26)
(-1.20414293 0.493752559 8.66606413e-26)
(-1.23489306 0.489719781 -1.75781066e-26)
(-1.26410944 0.485173483 -1.08902436e-25)
(-1.29154962 0.480196984 -1.02903928e-25)
(-1.31693862 0.474835543 0)
(-1.34004773 0.469287422 0)
(-1.36081772 0.463864284 0)
(-1.37859985 0.459798579 0)
(-1.39309673 0.455078444 -2.64047748e-26)
(-1.40317131 0.450824764 -6.86467136e-26)
(-1.40812701 0.445392971 -2.1086001e-25)
(-1.40705389 0.441651025 -8.15394969e-25)
(-1.3988912 0.439623579 5.36593126e-26)
(-1.38223746 0.438199061 3.78362997e-25)
(-1.35323478 0.438195143 3.76654002e-25)
(-1.31225944 0.43711435 -6.06414276e-26)
(-1.25614211 0.43679983 -2.06992591e-25)
(-1.18305619 0.437241913 -6.87034249e-26)
(-1.09067432 0.438468456 -2.92922342e-25)
(-0.97691322 0.4407394 -4.23978285e-33)
(-0.839948477 0.444065551 5.28273172e-25)
(-0.678114984 0.447791471 4.38860169e-25)
(-0.485823492 0.453064272 -1.81144665e-25)
(-0.267289983 0.460424413 0)
(-0.00971435229 0.473415061 0)
(0.277230484 0.489811279 0)
(0.623108806 0.505335438 2.25972229e-25)
(1.02760792 0.519458667 2.33574213e-25)
(1.49239078 0.534625566 0)
(2.02322775 0.553074441 1.32551684e-24)
(2.62747241 0.574914778 1.24306216e-24)
(3.30885573 0.59957954 -1.91890856e-24)
(4.07193611 0.627558418 -2.45720022e-24)
(4.91825989 0.659896928 0)
(5.85126466 0.695348944 0)
(6.8707165 0.735301181 -4.56209247e-24)
(7.97959696 0.76429252 -6.05399598e-24)
(9.25748777 0.738854743 7.98992515e-25)
(10.5508468 0.81253842 0)
(11.7468621 1.05141299 0)
(13.594442 0.629178798 8.97411492e-25)
(15.26946 0.350434468 1.17284793e-24)
(15.5494772 2.01234187 0)
(17.1178737 2.38791455 1.2186142e-24)
(19.9409401 -0.127720846 9.82378806e-24)
(21.3406297 -0.576948479 9.8813015e-24)
(21.4941978 1.37998135 -2.7897679e-24)
(22.2720661 2.36103024 -2.87874555e-23)
(22.9428186 1.4094149 -5.62005179e-23)
(-0.0214341639 0.0189792536 0)
(-0.0659691568 0.0575489476 2.85604425e-26)
(-0.112240091 0.096593775 3.1296192e-26)
(-0.159426295 0.135335546 0)
(-0.206958075 0.173278046 0)
(-0.254481617 0.21010192 3.20178425e-26)
(-0.301789965 0.245611946 3.12790539e-26)
(-0.34876761 0.279696537 -1.09002601e-27)
(-0.395356087 0.312297592 0)
(-0.441530158 0.343388926 -1.22393666e-27)
(-0.48728011 0.372960879 -1.29636301e-27)
(-0.532599146 0.401009829 -3.10101201e-26)
(-0.577475251 0.427531782 -6.3075386e-26)
(-0.62188668 0.452519267 -3.06199891e-26)
(-0.665800109 0.475960664 3.20993404e-26)
(-0.709170519 0.497841126 2.69368764e-26)
(-0.751942072 0.518144428 0)
(-0.794049419 0.536855233 -3.86883084e-27)
(-0.835419047 0.553961417 0)
(-0.875970398 0.569456236 0)
(-0.915616626 0.583340198 0)
(-0.954264885 0.595622567 -2.92515835e-26)
(-0.991816117 0.606322478 -6.66614932e-26)
(-1.02816433 0.615469658 -3.82194301e-26)
(-1.06319535 0.623104794 0)
(-1.09678515 0.629279626 1.20100606e-26)
(-1.12879763 0.634056847 6.33028155e-27)
(-1.15908204 0.637509933 -1.33772308e-26)
(-1.18747016 0.639722852 -5.98536842e-26)
(-1.21377447 0.640789583 -6.67291603e-26)
(-1.23778587 0.640811786 1.5873984e-26)
(-1.25926852 0.639895506 1.67707765e-26)
(-1.27794845 0.638155336 -1.29526015e-25)
(-1.29357763 0.635741189 -1.06079346e-25)
(-1.30597819 0.632847497 1.18490603e-25)
(-1.3145831 0.630149263 8.10547674e-26)
(-1.3187155 0.626391978 0)
(-1.31762958 0.622270722 -2.33104016e-26)
(-1.31145181 0.617722584 0)
(-1.29945275 0.614105852 -4.97933915e-26)
(-1.27910541 0.611205313 -4.17854774e-25)
(-1.2486058 0.608351922 -3.24345466e-25)
(-1.20640635 0.604919502 -5.80902899e-26)
(-1.15163263 0.601009082 6.30909486e-26)
(-1.08233929 0.59752166 -1.37325577e-25)
(-0.996935446 0.594731763 7.26361499e-26)
(-0.89308812 0.592501435 -7.72009108e-26)
(-0.768082625 0.590592155 -2.44863941e-25)
(-0.620579345 0.588514484 -3.95681437e-25)
(-0.447517362 0.587150307 0)
(-0.252331913 0.587449687 9.72296971e-26)
(-0.024806322 0.593011872 -2.01557386e-25)
(0.226592817 0.602495276 -9.03114115e-26)
(0.530200507 0.611292051 -6.39659359e-25)
(0.884237793 0.618840471 -2.49196897e-25)
(1.29269853 0.627640226 2.42185737e-26)
(1.7591859 0.639888645 2.29591979e-25)
(2.29156355 0.655922076 3.02781365e-25)
(2.89355468 0.675142463 3.3028649e-25)
(3.5692268 0.697712716 1.10704528e-24)
(4.32312157 0.723914414 1.67971609e-24)
(5.15920983 0.754136105 -4.10988341e-25)
(6.08183633 0.788931868 4.39624892e-25)
(7.09312456 0.831185818 0)
(8.1841093 0.886772773 -3.07273537e-24)
(9.35220512 0.952577127 -8.80988423e-24)
(10.5883608 1.02184877 -4.02653155e-24)
(11.8762284 1.09627016 0)
(13.3289729 1.07044601 4.33502552e-26)
(14.8681892 0.969178032 9.59345964e-25)
(16.0688367 1.30435924 8.26495424e-24)
(17.4095427 1.52495613 1.31618082e-23)
(19.3606222 0.692119825 -1.03147504e-23)
(20.4319373 0.799283755 -2.08413259e-24)
(21.0154141 2.20989121 6.05272493e-26)
(22.1479807 2.09520289 2.26391293e-23)
(23.0668841 0.873216966 2.49028985e-23)
(23.2359732 0.888293731 -5.23350128e-24)
(23.3191922 1.04981919 -1.06914235e-23)
(23.193885 1.48978263 -2.99579922e-23)
(-0.0254285975 0.0208190263 3.46875555e-27)
(-0.0777482765 0.0629968224 -3.68140135e-28)
(-0.131614337 0.105632914 3.8681372e-28)
(-0.186123784 0.147947729 -4.14227303e-28)
(-0.240646898 0.189440698 0)
(-0.294819714 0.229808933 -2.49647201e-26)
(-0.348418446 0.268869055 -9.15712377e-34)
(-0.401316978 0.306517617 2.51835529e-26)
(-0.453448184 0.342702185 2.51096591e-26)
(-0.504777341 0.377399913 4.98587682e-26)
(-0.555282891 0.410602142 2.34104792e-26)
(-0.604942864 0.442303971 -1.31206147e-27)
(-0.653726145 0.472497995 -1.3909929e-27)
(-0.701587671 0.50117135 2.34250215e-26)
(-0.748466481 0.528305191 2.29461539e-26)
(-0.794285644 0.553875767 -4.98058393e-27)
(-0.838953211 0.577856408 -1.85204912e-26)
(-0.882363634 0.600219945 -4.33947454e-26)
(-0.924399178 0.620941187 -2.14807926e-26)
(-0.964931068 0.639999253 -4.21038333e-27)
(-1.00382021 0.657379636 4.46748228e-27)
(-1.04091744 0.673075935 4.74173023e-27)
(-1.07606315 0.687091255 0)
(-1.10908643 0.699439287 -1.06799099e-26)
(-1.13980325 0.710145089 2.55704838e-26)
(-1.16801415 0.71924531 -1.69802185e-29)
(-1.19350104 0.726787071 -3.03220733e-26)
(-1.21602306 0.732826906 -3.33543465e-26)
(-1.23531351 0.737437636 -3.70704938e-26)
(-1.25108614 0.740713235 2.73558989e-26)
(-1.26305581 0.742748742 1.65278187e-26)
(-1.27095879 0.743625627 -5.95198683e-26)
(-1.27411577 0.743600629 -6.29881765e-26)
(-1.27235943 0.742344258 0)
(-1.26508465 0.740564161 0)
(-1.2521638 0.738179734 2.18579301e-26)
(-1.23268375 0.735988754 0)
(-1.20427842 0.733527181 -4.89020789e-26)
(-1.16560987 0.730045978 -2.05705373e-25)
(-1.11411965 0.726023261 -1.13021736e-25)
(-1.05030316 0.721060774 5.65878854e-26)
(-0.972123545 0.716169091 0)
(-0.878032772 0.711451458 0)
(-0.765859026 0.70682485 -1.67482735e-25)
(-0.633382973 0.70223577 -2.99976009e-25)
(-0.47951524 0.697107835 -8.95984476e-26)
(-0.299498388 0.691770452 0)
(-0.0938904109 0.689291727 0)
(0.13329489 0.69342486 -1.1040111e-25)
(0.389485895 0.699659081 -4.55778686e-25)
(0.704974947 0.703378506 1.19856742e-25)
(1.06555633 0.706292533 0)
(1.47774149 0.71259547 -3.54243053e-25)
(1.94815332 0.72299004 -6.0635077e-26)
(2.48075844 0.737149517 -4.66650229e-25)
(3.07975597 0.755291725 -9.89816537e-25)
(3.74967901 0.777805126 -9.82653206e-25)
(4.49511156 0.805084815 4.57216457e-32)
(5.31999853 0.838120198 -6.04161453e-32)
(6.22709972 0.877608139 -4.17918608e-24)
(7.21797747 0.923356694 -2.74128319e-24)
(8.29089434 0.975663787 3.42118711e-24)
(9.44533222 1.03262931 4.65465562e-24)
(10.678856 1.09602217 0)
(11.9659229 1.17531417 6.18870534e-24)
(13.2877015 1.2812034 1.06736285e-23)
(14.6244697 1.38127279 5.64882217e-24)
(15.96615 1.48969081 0)
(17.3053204 1.58187771 -4.08023729e-26)
(18.7868587 1.4592048 1.00230498e-23)
(20.1034008 1.40009232 8.88383229e-24)
(20.9948102 1.82012755 0)
(21.9822551 1.86014859 0)
(23.0217352 1.3497266 9.93019663e-25)
(23.3091583 1.3613487 -1.38898637e-24)
(23.3537594 1.74438686 -1.76498387e-24)
(23.257801 2.05868401 1.19245005e-23)
(23.1916161 1.72376136 0)
(23.2358911 1.55012092 -1.25751436e-24)
(23.2445464 1.42646548 1.19147677e-23)
(-0.02887947 0.0218216174 -2.28749358e-28)
(-0.0879647158 0.0659404336 -3.58210389e-28)
(-0.148456408 0.110480104 1.01246699e-26)
(-0.209354243 0.154661106 -1.0887591e-26)
(-0.269994566 0.197996351 -1.01581032e-26)
(-0.329952926 0.240181132 0)
(-0.388998523 0.281045965 -1.98556204e-26)
(-0.446998729 0.32050347 -1.83889458e-26)
(-0.503870901 0.35851013 -1.8890065e-26)
(-0.559565732 0.395047899 -1.82012737e-26)
(-0.614044028 0.430110852 -1.97549382e-26)
(-0.667262003 0.463694962 -3.11206305e-34)
(-0.719162074 0.49579192 -1.36578957e-27)
(-0.769667812 0.526386343 -1.85634647e-33)
(-0.818681909 0.555455416 1.53919048e-27)
(-0.866086111 0.582970099 -1.39202508e-26)
(-0.911742244 0.608897235 1.24152327e-26)
(-0.955493672 0.63320206 3.69124753e-27)
(-0.997166745 0.655850777 -5.33427363e-27)
(-1.03657187 0.676813008 -4.18367468e-27)
(-1.07350389 0.696064141 8.91654644e-27)
(-1.10774189 0.71358761 -1.78167564e-28)
(-1.13904861 0.729376749 -1.89771799e-27)
(-1.16716896 0.743435535 -5.40514489e-27)
(-1.19182244 0.755775151 0)
(-1.21270766 0.766411423 -6.15552256e-27)
(-1.22951631 0.775368708 0)
(-1.24191332 0.782711159 1.60781627e-27)
(-1.24949582 0.788410227 2.8486072e-26)
(-1.25185931 0.792564496 7.321124e-27)
(-1.24864352 0.795473495 -3.47454295e-26)
(-1.23942713 0.797492656 -5.80202983e-27)
(-1.22413738 0.798520102 -3.90542004e-26)
(-1.20042906 0.798823985 -2.0846792e-26)
(-1.16747935 0.797871852 6.63496141e-26)
(-1.12373465 0.795519635 7.72005518e-26)
(-1.06709249 0.792095621 0)
(-0.997881919 0.787767063 -3.20566546e-26)
(-0.914288219 0.783133502 -1.58759249e-26)
(-0.814748495 0.778277171 -6.50188466e-26)
(-0.697214198 0.773204921 -6.98821991e-26)
(-0.559478256 0.767952824 0)
(-0.400233652 0.762114333 0)
(-0.215937171 0.756298909 0)
(-0.00529027806 0.754163234 -8.86434328e-26)
(0.223110132 0.756061509 -2.19731872e-25)
(0.498856656 0.757382607 -2.02258943e-25)
(0.81677136 0.757648974 0)
(1.1815605 0.759893473 0)
(1.59767429 0.765929073 6.29857969e-26)
(2.07029701 0.775931311 1.46289574e-25)
(2.6026271 0.789825322 3.73289066e-26)
(3.19931669 0.808222059 1.16176418e-25)
(3.86535242 0.831734469 3.32778818e-25)
(4.60500519 0.861456972 -1.08452506e-26)
(5.42152836 0.898465651 -8.80074102e-25)
(6.31700437 0.94341214 -1.31392776e-24)
(7.29135003 0.996652579 -2.16962535e-24)
(8.34305912 1.05791189 0)
(9.46613698 1.1282243 -4.43274417e-25)
(10.6566381 1.20632274 -3.60304478e-24)
(11.9056597 1.28863676 -8.26349991e-24)
(13.2108246 1.36889349 4.27697026e-25)
(14.558937 1.44809506 4.33239958e-25)
(15.9102363 1.53591548 -7.15174455e-24)
(17.2183289 1.67083656 6.0657516e-24)
(18.4397935 1.81068508 6.080211e-24)
(19.6642188 1.91929106 -9.65538435e-25)
(20.7404994 2.01236201 -3.26161863e-24)
(21.861377 2.04505754 -1.25864355e-23)
(22.7178968 1.92377372 9.08308244e-26)
(23.225288 1.92306607 -1.45179281e-23)
(23.3436378 2.03142632 -3.59922827e-24)
(23.3352868 2.0833352 0)
(23.3153129 2.03647142 -7.54836881e-24)
(23.3151366 1.90855482 -2.63477317e-23)
(23.2913338 1.9303399 1.80469172e-24)
(23.2503181 1.98304734 1.50241076e-23)
(23.2393491 1.97904283 1.07763716e-23)
(23.2356297 1.90263753 1.24525421e-23)
(-0.0321169906 0.0223472744 2.41951673e-27)
(-0.09753164 0.067386519 0)
(-0.16419778 0.112726514 0)
(-0.231015915 0.157593083 2.67869301e-30)
(-0.297268495 0.201518222 0)
(-0.362521064 0.244219481 0)
(-0.42649301 0.285529679 0)
(-0.489017321 0.325366428 1.94695018e-27)
(-0.550024502 0.363704665 0)
(-0.609440299 0.400539224 -1.09596375e-27)
(-0.667201349 0.435869823 -1.13332441e-26)
(-0.72323499 0.469696609 -1.54289628e-33)
(-0.777449101 0.502014535 2.82217368e-27)
(-0.829726891 0.532810561 0)
(-0.879924765 0.562063389 1.48301006e-27)
(-0.927872179 0.589744807 -3.15785284e-27)
(-0.973372555 0.615821961 0)
(-1.01620462 0.640260195 1.33525024e-26)
(-1.05612396 0.663026075 -3.82583507e-27)
(-1.09286405 0.684089489 -4.87164664e-26)
(-1.12612919 0.70342173 -2.27649961e-26)
(-1.15559426 0.720996128 -4.66567296e-27)
(-1.18091443 0.736790899 0)
(-1.20175696 0.750750149 -3.07808349e-26)
(-1.21768339 0.762973421 -3.60325713e-26)
(-1.22839058 0.773520091 -5.153716e-26)
(-1.23350444 0.782559008 -5.37355279e-26)
(-1.232652 0.790217071 5.60417981e-26)
(-1.22495575 0.796495136 6.15814667e-26)
(-1.20936161 0.801234121 0)
(-1.18493557 0.804393954 -5.58193518e-26)
(-1.15050541 0.805906015 -6.38587063e-26)
(-1.10438796 0.805895796 -2.02569489e-26)
(-1.04657833 0.80478251 -1.15275911e-25)
(-0.97555617 0.802860175 -9.10605159e-26)
(-0.889838224 0.800203306 5.1220837e-26)
(-0.787805968 0.796903499 -2.73974382e-26)
(-0.667438663 0.793058483 -7.99045018e-26)
(-0.526556762 0.788801443 -5.07964192e-26)
(-0.363654677 0.783837178 4.0324589e-26)
(-0.175456592 0.77866996 3.49690953e-25)
(0.0401032356 0.776767383 1.31134772e-25)
(0.273942063 0.778388092 0)
(0.555664344 0.779522977 9.03998204e-26)
(0.878620148 0.780061618 -1.02185057e-25)
(1.24745846 0.783082568 1.01215418e-25)
(1.66660988 0.789735694 -2.13978503e-32)
(2.13988093 0.800242713 -2.3596443e-25)
(2.67154119 0.815174845 0)
(3.26633788 0.835317606 1.34454747e-25)
(3.92895326 0.861486975 3.42689428e-26)
(4.66295146 0.89470113 -3.25525917e-25)
(5.47104957 0.935859501 6.61149852e-25)
(6.3547821 0.985600545 1.68703813e-25)
(7.31408868 1.04440126 -7.02926046e-25)
(8.34695065 1.11272969 -9.29394339e-25)
(9.4495202 1.19068788 -4.05787112e-24)
(10.6130141 1.27966015 -3.28592713e-24)
(11.8303222 1.37839464 -3.36190605e-24)
(13.0868846 1.48387962 -4.33790002e-24)
(14.3722 1.59590013 0)
(15.6595855 1.7078068 4.08118104e-25)
(16.9528561 1.81038878 -5.13792314e-24)
(18.2166657 1.89579344 -6.75975372e-24)
(19.4376548 1.97313553 -3.45990307e-26)
(20.5432705 2.07512192 0)
(21.4859228 2.19922515 9.76201941e-24)
(22.3575566 2.26922523 1.1736172e-23)
(23.0236179 2.30426367 1.08036032e-24)
(23.2742911 2.34070039 -1.0843947e-24)
(23.3386792 2.36331446 -1.25720724e-26)
(23.3458266 2.34770935 -1.01775552e-24)
(23.3271326 2.34482579 -1.08679275e-23)
(23.3226804 2.2687971 -1.14253933e-23)
(23.321176 2.24055064 -1.22397432e-24)
(23.3231389 2.19518104 0)
(23.3337798 2.14655373 -8.6012139e-24)
(23.3320645 2.13820858 -9.10407971e-24)
(23.3368575 2.11379877 0)
(23.3040909 2.12846042 -1.56212421e-23)
(-0.0354688511 0.0226643807 -5.38566363e-27)
(-0.107338999 0.0681054717 -9.03075006e-27)
(-0.180208493 0.113621943 -8.53376483e-27)
(-0.252878976 0.158453365 3.45394195e-28)
(-0.324579181 0.202155539 7.48145887e-27)
(-0.394839093 0.244470922 7.77634431e-28)
(-0.463372102 0.285256078 -6.82906484e-27)
(-0.529982283 0.324440021 -3.9745095e-27)
(-0.594550962 0.362003251 -9.25584384e-28)
(-0.656998753 0.397953177 -1.96337377e-27)
(-0.717227682 0.432303365 -1.05933245e-27)
(-0.775127104 0.465063043 -5.94174201e-27)
(-0.830560187 0.496235586 -8.36926938e-27)
(-0.883357878 0.525816329 -1.4515732e-26)
(-0.933316613 0.553792425 -1.34126668e-27)
(-0.980198302 0.58014441 2.16502371e-26)
(-1.02373099 0.604849086 0)
(-1.0636035 0.627881322 0)
(-1.09946812 0.649213862 4.26664568e-26)
(-1.13098641 0.668769261 8.76849172e-26)
(-1.15770598 0.686631072 5.1978052e-26)
(-1.17929882 0.702789222 6.31821281e-26)
(-1.19535845 0.717349628 -1.42731609e-33)
(-1.20528487 0.730308157 -8.81925193e-26)
(-1.20833308 0.741502182 1.08677129e-25)
(-1.20373639 0.750969348 2.19833659e-25)
(-1.19063443 0.758706319 1.23848228e-25)
(-1.16798866 0.764689385 6.73114662e-27)
(-1.1350114 0.769158995 -7.27327376e-27)
(-1.09095964 0.772377652 1.56982602e-26)
(-1.03457707 0.774426992 0)
(-0.964499197 0.775383608 1.42001399e-25)
(-0.87924857 0.775342973 1.97812537e-26)
(-0.777149531 0.774443994 -1.75427974e-25)
(-0.65613826 0.772854642 0)
(-0.514083746 0.770763622 -1.3560774e-25)
(-0.349351224 0.767980123 -2.10552747e-25)
(-0.158912328 0.764941804 0)
(0.0598039909 0.7647239 0)
(0.298097267 0.767459296 -1.60614932e-25)
(0.583900284 0.769905679 -1.10538067e-25)
(0.910183954 0.772133066 -1.51773076e-25)
(1.28092273 0.77727563 0)
(1.70101345 0.786290359 3.28897721e-25)
(2.17400797 0.799384024 5.77713963e-25)
(2.70417542 0.817303173 3.62169473e-25)
(3.29602112 0.840823425 -1.09320515e-25)
(3.95354625 0.87081169 -7.84345232e-28)
(4.67994375 0.908250687 0)
(5.47760954 0.953980677 -2.99882439e-25)
(6.34785368 1.00871353 2.89918964e-25)
(7.29052314 1.07311983 6.69109911e-25)
(8.30371347 1.14771983 3.35454727e-25)
(9.38338952 1.2328099 -6.71383034e-25)
(10.5233836 1.32808321 -2.96577461e-24)
(11.7135651 1.43421728 4.75054303e-32)
(12.9438225 1.54997277 1.67876527e-24)
(14.1976488 1.67314726 0)
(15.4606002 1.80386002 0)
(16.7038059 1.93567027 3.80185834e-25)
(17.9175396 2.06979293 3.85137985e-25)
(19.0568087 2.19533416 0)
(20.1484547 2.30699617 5.83939802e-24)
(21.1362968 2.37737329 5.56718263e-24)
(22.0816243 2.41674643 -9.05613053e-24)
(22.7702313 2.43831898 -3.09198371e-23)
(23.2025084 2.49740571 -1.12687503e-23)
(23.2979386 2.51691391 -5.16181528e-24)
(23.3092926 2.58655675 -4.21102968e-24)
(23.3026848 2.5973941 -1.12737669e-24)
(23.3183222 2.53109365 9.26030522e-24)
(23.3270646 2.49805487 9.02775298e-24)
(23.32467 2.47672725 -8.02748031e-24)
(23.3262044 2.41892735 -1.09210281e-23)
(23.3231496 2.41162831 -8.29467254e-24)
(23.3471092 2.34702982 -1.09011856e-23)
(23.3777937 2.2955178 -1.09198299e-23)
(23.3873549 2.27279319 1.19966406e-31)
(23.4284906 2.25252711 2.44652368e-23)
(23.4002115 2.23834167 2.07991618e-23)
(-0.0391474293 0.0228986823 2.84576335e-27)
(-0.117941559 0.0684762734 -2.39644573e-28)
(-0.197307718 0.113809612 9.14411891e-27)
(-0.275950394 0.158162757 4.21937799e-34)
(-0.353044404 0.201123124 -6.4968447e-27)
(-0.428084949 0.242460496 -4.59218386e-27)
(-0.500755634 0.282057202 -7.54799017e-27)
(-0.570850647 0.319859822 -1.38225912e-27)
(-0.638185284 0.355863942 1.91385706e-28)
(-0.702665486 0.390087785 2.72714672e-27)
(-0.7641455 0.422562487 5.38821324e-27)
(-0.822461865 0.453310368 9.2033122e-27)
(-0.877416022 0.482347588 1.15991245e-26)
(-0.928767204 0.509683165 1.42430976e-26)
(-0.97622873 0.535321728 -1.08714734e-27)
(-1.01946836 0.559263219 -1.16798744e-27)
(-1.0581352 0.581457466 5.04215119e-26)
(-1.09179043 0.601974448 6.03754606e-26)
(-1.12003624 0.620844141 2.9335698e-27)
(-1.14229027 0.638023759 3.10300102e-27)
(-1.15794958 0.653437614 1.11337699e-25)
(-1.16629033 0.667129841 1.22078284e-25)
(-1.16652744 0.679047768 0)
(-1.15797649 0.689370259 -4.26262821e-27)
(-1.1398694 0.698204628 0)
(-1.11119893 0.705588716 0)
(-1.07085445 0.711589511 -5.38416921e-27)
(-1.0176236 0.716287679 -1.80110835e-25)
(-0.950171996 0.719795389 -2.11956461e-25)
(-0.86700539 0.722265114 2.33630491e-25)
(-0.766391277 0.723856337 2.34587285e-25)
(-0.646352555 0.7247656 -1.62226273e-26)
(-0.50479415 0.725222488 1.78665107e-26)
(-0.339964963 0.725124206 0)
(-0.14902678 0.724842499 -2.01821178e-26)
(0.0709607316 0.727012569 0)
(0.311794562 0.731749795 0)
(0.59919702 0.736616332 -2.58523768e-26)
(0.926413453 0.741749426 0)
(1.29700576 0.750133213 0)
(1.71589827 0.762597453 3.50027421e-25)
(2.18645731 0.77933401 2.8281139e-25)
(2.71271665 0.801128363 0)
(3.29885487 0.82879073 0)
(3.94850921 0.863185873 0)
(4.66462295 0.905286763 -9.52451091e-26)
(5.44944396 0.955997471 -1.03802605e-25)
(6.30414873 1.0161531 7.06265503e-25)
(7.22847145 1.08650169 6.93846457e-25)
(8.22042411 1.16762485 8.18368469e-25)
(9.27602731 1.25981208 9.7447716e-25)
(10.3891042 1.36299131 1.31525331e-24)
(11.5512679 1.47637093 1.57485321e-24)
(12.7508826 1.59976462 0)
(13.9757188 1.73098947 0)
(15.2097422 1.86691618 -1.66616126e-24)
(16.4363612 2.00630289 -4.0348701e-24)
(17.6287774 2.1456123 -2.39942793e-24)
(18.7690022 2.28665267 -2.53164692e-24)
(19.8186564 2.41912708 -1.97053491e-24)
(20.7857942 2.54305078 5.90883696e-24)
(21.6232429 2.64525041 1.16353576e-23)
(22.3771018 2.71464687 4.91226527e-25)
(22.9703149 2.7481256 -1.24090654e-23)
(23.2237977 2.76859862 4.37160008e-25)
(23.2826199 2.7916208 -8.30496641e-25)
(23.2960611 2.76433816 7.34105755e-24)
(23.285386 2.7935392 -6.90127322e-32)
(23.2939997 2.71904878 -1.11509518e-23)
(23.2968921 2.71106921 -6.36478039e-25)
(23.3050478 2.68545514 8.23819535e-24)
(23.3110169 2.65262991 1.12783174e-23)
(23.3115406 2.65131417 0)
(23.3244585 2.59844573 1.02582091e-24)
(23.3243238 2.57853416 0)
(23.3379459 2.54249277 8.43739004e-24)
(23.4131877 2.46051791 2.23104219e-23)
(23.469475 2.39909737 1.05686253e-23)
(23.510039 2.40503002 1.09249316e-23)
(23.4981668 2.40376365 2.44442397e-23)
(-0.0431897554 0.0230341865 2.88048096e-27)
(-0.129375812 0.0684786022 9.03458933e-27)
(-0.2154535 0.113297184 1.38471939e-28)
(-0.300030499 0.156790667 -6.66973284e-27)
(-0.382227045 0.198585415 -4.86727582e-27)
(-0.461500516 0.238483814 -2.72177307e-27)
(-0.537501098 0.276396348 3.55319101e-28)
(-0.609985882 0.312297892 -1.34073616e-27)
(-0.678754337 0.346197214 -4.14625766e-27)
(-0.743599759 0.378131357 -7.62086541e-27)
(-0.804351899 0.408137402 0)
(-0.860768266 0.436267462 1.04128469e-27)
(-0.912570135 0.462551344 -5.59266584e-28)
(-0.959419315 0.487023142 0)
(-1.00092713 0.509702258 0)
(-1.03663953 0.530615381 0)
(-1.06602354 0.549827737 0)
(-1.0884777 0.56726774 8.62219332e-28)
(-1.10328925 0.582941775 0)
(-1.109822 0.597026066 -6.08747099e-26)
(-1.10726587 0.609517712 -6.83047836e-26)
(-1.09470409 0.620453391 1.59324853e-25)
(-1.07110564 0.62990796 1.731583e-25)
(-1.03538294 0.637957033 -1.9373963e-25)
(-0.986307642 0.644724435 -2.05395688e-25)
(-0.922519322 0.650357416 -2.26890986e-25)
(-0.842505558 0.655022511 -2.50081227e-25)
(-0.744543909 0.658914497 -2.56404212e-25)
(-0.626747233 0.662296797 -5.46869492e-25)
(-0.487348402 0.665257505 -2.77119849e-25)
(-0.324406875 0.667744128 0)
(-0.135033829 0.670246599 1.22100312e-26)
(0.0839094144 0.674961059 1.3077304e-26)
(0.325026203 0.682009726 0)
(0.611294816 0.689718878 -1.65818407e-26)
(0.936520921 0.698232898 0)
(1.3044388 0.710149782 0)
(1.71944656 0.726241329 4.15262336e-25)
(2.18476379 0.746763287 2.27511643e-26)
(2.70418413 0.772521133 -4.69310235e-25)
(3.28159615 0.804358433 4.66225246e-25)
(3.92039011 0.843175183 5.2419231e-25)
(4.6233485 0.889964088 -3.21859234e-26)
(5.39259551 0.945645025 0)
(6.22924256 1.01106801 7.50298358e-25)
(7.13305598 1.08699559 6.6797519e-25)
(8.10218242 1.17403569 0)
(9.1328895 1.27255982 0)
(10.2193341 1.38260485 -1.02098757e-24)
(11.3534041 1.50379947 -1.1939788e-24)
(12.5246091 1.63510144 1.5453628e-24)
(13.7196375 1.77557335 1.86082755e-24)
(14.9241388 1.92258138 -1.74345662e-24)
(16.1214854 2.07268309 4.02765529e-32)
(17.2934695 2.22333828 2.26774742e-24)
(18.4176592 2.36953705 1.20502604e-26)
(19.4769901 2.50882647 0)
(20.4428992 2.63539785 3.30362142e-25)
(21.3066985 2.75608041 -2.40355688e-24)
(22.0236878 2.85088119 4.49478399e-25)
(22.648868 2.93161201 4.74840583e-24)
(23.0900146 2.97542301 0)
(23.2370484 3.02024004 4.16527612e-25)
(23.2545466 3.03421332 0)
(23.2495002 3.03878212 3.11947542e-25)
(23.2559279 3.00491 -2.96597974e-25)
(23.2721356 2.95535658 -7.1605034e-25)
(23.2832405 2.91402259 -7.61640384e-24)
(23.2913764 2.88383328 -9.6720764e-24)
(23.2945518 2.85093461 -6.6329105e-25)
(23.295711 2.83389684 -7.08074552e-24)
(23.3286472 2.77293465 -9.24258897e-24)
(23.3431865 2.75240624 -9.41720907e-24)
(23.3487271 2.73714186 -1.02232508e-23)
(23.3618699 2.72725611 -1.13431475e-23)
(23.3761256 2.72380772 -1.13695204e-23)
(23.4413691 2.68262035 1.04287727e-23)
(23.5604607 2.5595777 1.02590987e-23)
(23.6430191 2.51747197 -2.06134581e-24)
(23.602088 2.555817 1.31249281e-24)
(-0.047356688 0.02291832 2.55781134e-27)
(-0.14087401 0.0677021268 -7.81984346e-27)
(-0.233293121 0.111467792 -3.10076164e-29)
(-0.32312866 0.153566625 -2.89632883e-35)
(-0.409445396 0.193669461 -1.7612651e-27)
(-0.491656263 0.231614802 -2.71305118e-29)
(-0.569367557 0.267343338 4.09293274e-27)
(-0.642287615 0.300859867 3.21302244e-35)
(-0.710173132 0.332198701 -2.23627982e-26)
(-0.772748681 0.361430253 -1.56357207e-26)
(-0.829733055 0.388598107 1.32117786e-29)
(-0.880781052 0.413767588 -2.57709221e-26)
(-0.925485232 0.43700423 -3.15369214e-26)
(-0.963373188 0.458359375 -3.76015368e-26)
(-0.99389419 0.477892995 -4.41962868e-26)
(-1.01642199 0.495654083 5.13395362e-26)
(-1.03024276 0.511707304 5.89663349e-26)
(-1.03455073 0.526115984 2.19179275e-28)
(-1.02843933 0.538957278 0)
(-1.01093604 0.550292166 -8.44783911e-26)
(-0.980879325 0.560253863 -9.37088263e-26)
(-0.937084787 0.568950239 8.32052078e-28)
(-0.878188995 0.576535288 1.139305e-25)
(-0.802684845 0.583177575 1.23480657e-25)
(-0.708871398 0.589074041 2.89556359e-27)
(-0.594921633 0.59443509 0)
(-0.459053621 0.599296461 -1.90908923e-27)
(-0.299020352 0.603860846 2.25097287e-28)
(-0.111831941 0.609509827 -4.2082281e-25)
(0.0984993846 0.617562836 -3.80190624e-25)
(0.339692635 0.627174145 3.26513325e-25)
(0.622314576 0.637173209 3.92015017e-25)
(0.943330056 0.648612507 1.62007123e-26)
(1.30607589 0.663630556 -5.00645676e-25)
(1.71452129 0.682952759 7.44083079e-33)
(2.17179337 0.706901693 5.11783669e-25)
(2.68148595 0.736293671 -5.26370138e-25)
(3.24722633 0.771976772 -5.67777504e-25)
(3.87220791 0.814846142 3.24028893e-26)
(4.55908859 0.86586571 -1.77403526e-26)
(5.30991088 0.925942098 -2.07192314e-26)
(6.12579339 0.99592074 -7.44109628e-25)
(7.00663885 1.07656335 -1.65759606e-24)
(7.95087163 1.16848518 -9.04112641e-25)
(8.95517522 1.27207936 -9.45741219e-25)
(10.0142572 1.38744181 -1.14323058e-24)
(11.1206665 1.51429564 0)
(12.2646839 1.65191595 1.57586625e-24)
(13.4342436 1.79901122 1.81341989e-24)
(14.6147901 1.95407811 2.00627889e-24)
(15.7899007 2.11477059 4.18525793e-24)
(16.9418804 2.27767017 4.39113426e-24)
(18.0519572 2.43920579 4.71255536e-24)
(19.0996692 2.59414142 5.07980949e-24)
(20.0673939 2.74030637 2.72102067e-24)
(20.9333769 2.8703482 -4.5342171e-25)
(21.6924394 2.98537467 0)
(22.3176348 3.06654858 -3.08379861e-24)
(22.8296668 3.13278063 -4.77054108e-24)
(23.1734861 3.18737093 0)
(23.2460242 3.19189193 -3.79402894e-24)
(23.2427129 3.24167311 -2.78282839e-24)
(23.2339702 3.22772648 0)
(23.2336386 3.21413205 -2.06098155e-25)
(23.2363379 3.16521463 0)
(23.2268374 3.16489522 -6.19005783e-24)
(23.2447646 3.13816059 -1.02209736e-24)
(23.2618987 3.08595523 8.26138044e-24)
(23.2713447 3.06541251 -7.78578982e-25)
(23.2889336 3.01805992 -8.12185184e-25)
(23.30099 2.98838567 -9.42204623e-24)
(23.3323318 2.95092745 -8.81094041e-24)
(23.3740276 2.90383658 -7.47642386e-25)
(23.4232897 2.86379199 -7.64934873e-25)
(23.4815714 2.8387352 -5.23084674e-26)
(23.5003936 2.85305999 -9.53620077e-25)
(23.4977154 2.89681069 1.10654217e-23)
(23.5670639 2.83834673 1.95686998e-23)
(23.7434255 2.725569 1.00005616e-23)
(23.7555774 2.67077159 -1.44584286e-24)
(-0.0512039114 0.0223505837 0)
(-0.151101593 0.0655990641 -2.34768375e-28)
(-0.24858497 0.107476981 2.43841778e-28)
(-0.342077723 0.147401153 1.12332099e-29)
(-0.430585298 0.185093169 2.65394833e-28)
(-0.513465437 0.220432019 2.75974523e-28)
(-0.590258639 0.253401369 -1.11149325e-26)
(-0.660600625 0.284022177 0)
(-0.724136021 0.312366501 6.00533123e-28)
(-0.780499636 0.338497364 -2.56658463e-26)
(-0.829268977 0.362529815 -3.06632393e-26)
(-0.869972878 0.384542188 3.77487213e-26)
(-0.902050795 0.404628474 6.7811695e-28)
(-0.924850563 0.42288217 -1.03836804e-25)
(-0.937624376 0.439398501 -1.20916548e-25)
(-0.939517788 0.454287193 -6.82890561e-26)
(-0.929581557 0.46763162 -7.03697133e-28)
(-0.906712993 0.479587658 -8.74838147e-26)
(-0.869743054 0.490273275 -9.7054156e-26)
(-0.817344213 0.499856369 6.17783677e-28)
(-0.748054377 0.508520704 -6.71853309e-28)
(-0.660244541 0.516476429 -2.4266765e-27)
(-0.552151909 0.523949285 -1.38611255e-25)
(-0.421992622 0.53104363 -3.05840594e-25)
(-0.267567996 0.538106948 -1.81142463e-25)
(-0.0869058484 0.54643166 -9.65877208e-28)
(0.117547886 0.55615768 -1.78621465e-25)
(0.358753392 0.566951692 4.02504184e-28)
(0.633974894 0.579006133 -2.88878407e-28)
(0.947044249 0.593756722 -2.43280985e-25)
(1.30135687 0.612140265 0)
(1.70013568 0.634647214 -5.14706979e-25)
(2.14640186 0.661792253 1.65699616e-27)
(2.64350876 0.694441833 5.72795168e-25)
(3.19480272 0.733470061 6.0570981e-25)
(3.80326747 0.779783861 6.42247741e-25)
(4.47143632 0.834334432 5.33235875e-27)
(5.20128416 0.898027305 0)
(5.99396434 0.971706298 1.58217683e-26)
(6.84954484 1.05612926 -8.5550017e-25)