/*--------------------------------*- C++ -*----------------------------------*\
  =========                 |
  \\      /  F ield         | OpenFOAM: The Open Source CFD Toolbox
   \\    /   O peration     | Website:  https://openfoam.org
    \\  /    A nd           | Version:  8
     \\/     M anipulation  |
\*---------------------------------------------------------------------------*/
FoamFile
{
    version     2.0;
    format      ascii;
    class       volScalarField;
    location    "0.032";
    object      p;
}
// * * * * * * * * * * * * * * * * * * * * * * * * * * * * * * * * * * * * * //

dimensions      [1 -1 -2 0 0 0 0];

internalField   nonuniform List<scalar> 
42400
(
101380.676
101380.663
101380.648
101380.632
101380.616
101380.599
101380.58
101380.561
101380.541
101380.521
101380.499
101380.476
101380.452
101380.427
101380.401
101380.374
101380.345
101380.316
101380.284
101380.251
101380.216
101380.18
101380.141
101380.1
101380.057
101380.011
101379.963
101379.911
101379.857
101379.799
101379.738
101379.673
101379.604
101379.532
101379.455
101379.374
101379.288
101379.198
101379.111
101379.028
101378.929
101378.805
101378.668
101378.526
101378.393
101378.265
101378.132
101377.996
101377.855
101377.709
101377.558
101377.4
101377.254
101377.113
101376.977
101376.822
101376.648
101376.498
101376.364
101376.239
101376.114
101375.997
101375.891
101375.804
101375.738
101375.712
101375.726
101375.75
101375.912
101376.16
101376.145
101376.527
101378.021
101377.477
101376.431
101376.476
101378.409
101384.57
101388.531
101393.212
101380.852
101380.841
101380.829
101380.816
101380.802
101380.788
101380.772
101380.755
101380.738
101380.719
101380.699
101380.679
101380.657
101380.634
101380.61
101380.585
101380.559
101380.531
101380.502
101380.471
101380.438
101380.404
101380.368
101380.329
101380.289
101380.245
101380.2
101380.151
101380.1
101380.045
101379.987
101379.926
101379.861
101379.791
101379.717
101379.645
101379.578
101379.509
101379.419
101379.305
101379.192
101379.086
101378.982
101378.874
101378.761
101378.645
101378.523
101378.398
101378.277
101378.168
101378.063
101377.936
101377.788
101377.658
101377.546
101377.444
101377.341
101377.244
101377.157
101377.086
101377.036
101377.013
101377.027
101377.082
101377.168
101377.292
101377.503
101377.776
101378.251
101379.072
101379.712
101380.442
101382.278
101383.265
101383.306
101386.553
101392.191
101395.605
101399.199
101400.519
101381.145
101381.137
101381.128
101381.117
101381.106
101381.094
101381.081
101381.066
101381.051
101381.035
101381.019
101381.001
101380.982
101380.962
101380.941
101380.92
101380.897
101380.872
101380.847
101380.82
101380.792
101380.762
101380.73
101380.697
101380.662
101380.624
101380.585
101380.543
101380.498
101380.451
101380.4
101380.349
101380.299
101380.249
101380.197
101380.132
101380.049
101379.962
101379.88
101379.803
101379.723
101379.64
101379.553
101379.461
101379.363
101379.273
101379.191
101379.116
101379.006
101378.877
101378.781
101378.701
101378.617
101378.534
101378.457
101378.388
101378.334
101378.302
101378.299
101378.321
101378.379
101378.48
101378.634
101378.866
101379.172
101379.557
101380.025
101380.615
101381.383
101382.46
101383.782
101384.761
101387.008
101392.414
101396.103
101396.587
101396.518
101399.226
101402.783
101405.495
101381.572
101381.566
101381.558
101381.549
101381.54
101381.53
101381.519
101381.507
101381.494
101381.481
101381.467
101381.453
101381.437
101381.421
101381.404
101381.387
101381.368
101381.349
101381.329
101381.308
101381.286
101381.263
101381.238
101381.213
101381.186
101381.158
101381.127
101381.096
101381.063
101381.03
101380.997
101380.959
101380.913
101380.861
101380.805
101380.753
101380.703
101380.65
101380.594
101380.535
101380.472
101380.402
101380.342
101380.296
101380.229
101380.138
101380.06
101379.996
101379.938
101379.871
101379.805
101379.745
101379.693
101379.657
101379.639
101379.64
101379.662
101379.711
101379.803
101379.946
101380.151
101380.431
101380.802
101381.293
101381.886
101382.612
101383.353
101384.309
101385.296
101386.398
101389.082
101393.362
101395.567
101395.759
101397.476
101399.861
101402.132
101404.54
101406.734
101409.223
101382.123
101382.118
101382.111
101382.103
101382.095
101382.086
101382.076
101382.066
101382.056
101382.046
101382.035
101382.023
101382.012
101382
101381.987
101381.975
101381.962
101381.949
101381.935
101381.922
101381.907
101381.893
101381.877
101381.861
101381.843
101381.825
101381.807
101381.789
101381.767
101381.744
101381.718
101381.692
101381.666
101381.64
101381.611
101381.58
101381.548
101381.511
101381.469
101381.435
101381.415
101381.375
101381.313
101381.266
101381.23
101381.189
101381.147
101381.106
101381.07
101381.042
101381.024
101381.017
101381.024
101381.049
101381.1
101381.185
101381.314
101381.495
101381.741
101382.063
101382.491
101383.015
101383.668
101384.46
101385.406
101386.478
101387.301
101388.509
101391.726
101395.226
101396.374
101396.724
101398.28
101400.482
101402.684
101404.683
101406.588
101408.718
101411.342
101413.824
101382.773
101382.766
101382.759
101382.752
101382.744
101382.737
101382.729
101382.72
101382.712
101382.704
101382.696
101382.688
101382.68
101382.673
101382.666
101382.659
101382.652
101382.646
101382.64
101382.633
101382.625
101382.618
101382.613
101382.609
101382.605
101382.601
101382.596
101382.591
101382.585
101382.58
101382.573
101382.565
101382.556
101382.546
101382.534
101382.516
101382.507
101382.511
101382.497
101382.463
101382.443
101382.433
101382.417
101382.4
101382.386
101382.374
101382.368
101382.368
101382.377
101382.398
101382.436
101382.495
101382.583
101382.703
101382.865
101383.08
101383.356
101383.709
101384.157
101384.688
101385.353
101386.09
101387.002
101387.877
101388.944
101391.12
101394.498
101396.723
101397.374
101398.252
101400.083
101401.925
101403.118
101404.983
101407.192
101409.21
101411.317
101413.524
101416.045
101418.126
101383.475
101383.468
101383.461
101383.453
101383.446
101383.44
101383.433
101383.426
101383.42
101383.415
101383.41
101383.406
101383.403
101383.401
101383.399
101383.398
101383.398
101383.397
101383.398
101383.402
101383.408
101383.415
101383.422
101383.428
101383.436
101383.444
101383.452
101383.461
101383.469
101383.478
101383.488
101383.496
101383.5
101383.512
101383.536
101383.545
101383.537
101383.543
101383.557
101383.567
101383.575
101383.585
101383.598
101383.614
101383.636
101383.666
101383.707
101383.762
101383.836
101383.934
101384.06
101384.22
101384.423
101384.678
101384.996
101385.396
101385.887
101386.475
101387.167
101387.972
101388.889
101389.683
101390.947
101393.82
101396.469
101397.757
101398.226
101399.358
101401.14
101402.382
101403.95
101406.12
101407.826
101409.367
101411.401
101413.661
101415.967
101418.091
101420.267
101422.568
101384.177
101384.17
101384.162
101384.155
101384.149
101384.144
101384.139
101384.135
101384.132
101384.13
101384.129
101384.13
101384.132
101384.134
101384.139
101384.145
101384.153
101384.164
101384.176
101384.189
101384.203
101384.219
101384.236
101384.254
101384.274
101384.296
101384.318
101384.342
101384.365
101384.386
101384.415
101384.455
101384.483
101384.497
101384.524
101384.559
101384.59
101384.621
101384.653
101384.688
101384.726
101384.77
101384.821
101384.881
101384.955
101385.045
101385.155
101385.29
101385.456
101385.657
101385.9
101386.194
101386.55
101386.98
101387.489
101388.081
101388.761
101389.534
101390.325
101391.25
101393
101395.792
101397.694
101398.277
101398.839
101399.978
101401.643
101403.587
101405.375
101406.774
101408.105
101409.878
101411.988
101414.007
101416.152
101418.269
101420.633
101423.329
101426.113
101428.453
101384.817
101384.81
101384.804
101384.798
101384.794
101384.791
101384.789
101384.788
101384.789
101384.791
101384.796
101384.802
101384.81
101384.821
101384.834
101384.848
101384.865
101384.884
101384.905
101384.928
101384.953
101384.981
101385.011
101385.042
101385.076
101385.111
101385.145
101385.186
101385.238
101385.28
101385.312
101385.356
101385.407
101385.455
101385.504
101385.555
101385.609
101385.667
101385.729
101385.798
101385.876
101385.965
101386.069
101386.191
101386.335
101386.507
101386.712
101386.956
101387.244
101387.587
101387.994
101388.479
101389.048
101389.705
101390.452
101391.256
101392.169
101393.236
101395.012
101397.084
101398.2
101398.877
101400.03
101401.675
101403.59
101405.025
101406.388
101407.814
101409.405
101411.194
101412.935
101414.842
101416.763
101418.703
101420.804
101422.952
101425.037
101427.273
101429.659
101431.759
101385.329
101385.324
101385.32
101385.317
101385.316
101385.317
101385.319
101385.324
101385.331
101385.34
101385.352
101385.365
101385.381
101385.4
101385.422
101385.446
101385.473
101385.503
101385.536
101385.572
101385.61
101385.651
101385.694
101385.738
101385.788
101385.848
101385.902
101385.948
101386.005
101386.07
101386.132
101386.196
101386.263
101386.333
101386.407
101386.485
101386.569
101386.66
101386.762
101386.875
101387.005
101387.153
101387.325
101387.526
101387.761
101388.037
101388.361
101388.741
101389.188
101389.717
101390.341
101391.066
101391.898
101392.836
101393.921
101395.08
101396.407
101397.941
101398.916
101399.861
101401.536
101403.168
101404.517
101405.616
101406.884
101408.339
101409.832
101411.432
101413.028
101414.563
101416.507
101418.472
101420.461
101422.4
101424.425
101426.345
101428.423
101430.178
101432.065
101433.836
101385.655
101385.653
101385.653
101385.654
101385.658
101385.665
101385.673
101385.684
101385.698
101385.715
101385.735
101385.758
101385.784
101385.813
101385.846
101385.882
101385.922
101385.965
101386.012
101386.062
101386.113
101386.17
101386.238
101386.301
101386.359
101386.427
101386.503
101386.578
101386.655
101386.736
101386.82
101386.908
101387.001
101387.099
101387.204
101387.317
101387.441
101387.578
101387.731
101387.904
101388.1
101388.324
101388.582
101388.88
101389.223
101389.619
101390.075
101390.601
101391.209
101391.905
101392.701
101393.607
101394.602
101395.669
101396.75
101398.004
101399.296
101400.532
101402.011
101403.426
101404.488
101405.506
101406.807
101408.243
101409.887
101411.54
101413.189
101414.887
101416.571
101418.44
101420.271
101422.107
101424.05
101426.023
101428.047
101430.06
101432.101
101434.167
101436.695
101440.308
101385.722
101385.725
101385.73
101385.737
101385.748
101385.761
101385.777
101385.797
101385.82
101385.847
101385.877
101385.912
101385.95
101385.993
101386.039
101386.09
101386.144
101386.201
101386.264
101386.337
101386.408
101386.476
101386.555
101386.639
101386.725
101386.815
101386.908
101387.005
101387.107
101387.214
101387.326
101387.446
101387.573
101387.71
101387.858
101388.021
101388.201
101388.402
101388.628
101388.882
101389.17
101389.497
101389.869
101390.29
101390.765
101391.299
101391.897
101392.56
101393.278
101394.034
101394.8
101395.698
101397.086
101398.728
101400.179
101401.32
101402.467
101403.767
101404.991
101406.275
101407.697
101409.187
101410.791
101412.442
101414.05
101415.793
101417.502
101419.241
101421.032
101422.82
101424.439
101426.055
101428.015
101430.383
101432.519
101434.921
101437.327
101440.273
101442.427
101443.486
101385.456
101385.465
101385.477
101385.492
101385.511
101385.533
101385.559
101385.59
101385.624
101385.663
101385.707
101385.754
101385.807
101385.863
101385.925
101385.992
101386.068
101386.144
101386.221
101386.306
101386.399
101386.493
101386.592
101386.696
101386.805
101386.919
101387.038
101387.164
101387.296
101387.437
101387.587
101387.749
101387.924
101388.116
101388.327
101388.562
101388.823
101389.117
101389.447
101389.818
101390.237
101390.707
101391.234
101391.82
101392.471
101393.194
101393.992
101394.854
101395.796
101396.893
101398.473
101400.338
101401.542
101402.558
101403.834
101405.151
101406.524
101407.927
101409.398
101410.821
101412.217
101413.889
101415.688
101417.134
101418.37
101419.744
101421.253
101422.719
101424.209
101425.979
101428.303
101430.782
101432.738
101434.423
101436.427
101438.36
101439.947
101441.213
101442.954
101445.203
101384.773
101384.79
101384.811
101384.836
101384.865
101384.898
101384.936
101384.979
101385.027
101385.079
101385.137
101385.2
101385.271
101385.345
101385.422
101385.505
101385.595
101385.692
101385.792
101385.897
101386.008
101386.124
101386.246
101386.374
101386.508
101386.65
101386.8
101386.959
101387.129
101387.313
101387.512
101387.73
101387.97
101388.236
101388.532
101388.864
101389.236
101389.656
101390.128
101390.658
101391.252
101391.916
101392.653
101393.467
101394.369
101395.369
101396.467
101397.613
101398.892
101400.209
101401.352
101402.479
101403.85
101405.291
101406.663
101408.036
101409.431
101410.877
101412.438
101414.053
101415.32
101416.307
101417.479
101419.261
101421.246
101423.241
101425.196
101426.852
101428.588
101430.392
101432.141
101433.807
101435.338
101437.053
101439.111
101441.253
101443.424
101445.479
101448.26
101450.719
101383.6
101383.627
101383.66
101383.697
101383.738
101383.784
101383.836
101383.893
101383.955
101384.024
101384.097
101384.176
101384.261
101384.352
101384.449
101384.551
101384.659
101384.772
101384.892
101385.017
101385.149
101385.287
101385.432
101385.586
101385.748
101385.92
101386.104
101386.302
101386.517
101386.75
101387.007
101387.29
101387.604
101387.954
101388.346
101388.784
101389.274
101389.822
101390.433
101391.111
101391.861
101392.684
101393.583
101394.557
101395.606
101396.728
101397.898
101399.235
101400.659
101402.095
101403.415
101404.549
101405.769
101407.065
101408.438
101409.887
101411.363
101412.82
101414.189
101415.528
101417.175
101418.987
101421.068
101423.108
101424.623
101426
101427.463
101429.44
101431.325
101433.097
101435.196
101437.089
101438.845
101441.257
101443.399
101445.272
101447.617
101449.462
101451.347
101453.704
101381.873
101381.911
101381.958
101382.009
101382.064
101382.125
101382.192
101382.265
101382.342
101382.426
101382.517
101382.613
101382.715
101382.823
101382.937
101383.058
101383.184
101383.317
101383.457
101383.604
101383.758
101383.921
101384.093
101384.276
101384.472
101384.682
101384.909
101385.156
101385.427
101385.724
101386.053
101386.418
101386.823
101387.275
101387.777
101388.335
101388.952
101389.633
101390.381
101391.199
101392.087
101393.052
101394.095
101395.222
101396.408
101397.644
101398.906
101400.123
101401.401
101402.697
101403.86
101405.312
101406.857
101408.356
101410.199
101411.978
101413.729
101415.455
101417.171
101419.14
101420.926
101422.576
101424.344
101425.833
101427.534
101429.408
101431.143
101432.596
101434.078
101435.792
101437.815
101440.192
101442.436
101444.459
101446.235
101448.089
101450.412
101452.467
101454.561
101457.163
101379.565
101379.618
101379.681
101379.747
101379.819
101379.896
101379.979
101380.068
101380.164
101380.265
101380.373
101380.488
101380.609
101380.736
101380.87
101381.012
101381.161
101381.317
101381.483
101381.658
101381.844
101382.042
101382.255
101382.484
101382.732
101383.002
101383.298
101383.624
101383.984
101384.383
101384.825
101385.316
101385.859
101386.459
101387.12
101387.842
101388.628
101389.476
101390.381
101391.336
101392.316
101393.329
101394.352
101395.653
101397.383
101399.052
101400.549
101402.176
101403.987
101405.839
101407.791
101409.508
101411.26
101413.159
101414.499
101415.598
101416.714
101417.968
101419.698
101421.586
101423.265
101425.148
101426.575
101427.927
101429.674
101431.295
101433.288
101435.651
101438.025
101440.292
101442.422
101444.553
101446.751
101448.419
101450.245
101452.147
101453.896
101456.487
101458.794
101459.95
101376.666
101376.734
101376.815
101376.899
101376.988
101377.083
101377.184
101377.291
101377.406
101377.526
101377.654
101377.789
101377.932
101378.082
101378.241
101378.408
101378.586
101378.776
101378.977
101379.194
101379.427
101379.679
101379.953
101380.252
101380.581
101380.944
101381.346
101381.79
101382.283
101382.83
101383.435
101384.103
101384.837
101385.641
101386.518
101387.468
101388.493
101389.594
101390.762
101392.002
101393.327
101395.063
101397.346
101399.579
101401.205
101402.52
101403.715
101404.82
101406.061
101407.363
101408.87
101410.638
101412.413
101413.876
101415.148
101417.016
101419.213
101421.327
101422.874
101424.005
101425.492
101427.499
101429.509
101431.682
101434.267
101437.457
101439.584
101440.978
101442.516
101444.231
101445.941
101447.691
101449.378
101451.138
101452.867
101454.682
101457.054
101459.316
101461.759
101464.191
101373.2
101373.284
101373.383
101373.484
101373.59
101373.702
101373.821
101373.947
101374.079
101374.219
101374.366
101374.522
101374.687
101374.862
101375.049
101375.248
101375.462
101375.692
101375.941
101376.213
101376.51
101376.837
101377.198
101377.598
101378.042
101378.537
101379.088
101379.701
101380.381
101381.134
101381.964
101382.875
101383.87
101384.949
101386.111
101387.355
101388.676
101390.064
101391.501
101392.964
101394.487
101395.673
101396.825
101398.288
101399.89
101401.741
101403.823
101405.985
101407.537
101408.921
101410.629
101412.423
101414.16
101415.89
101418.034
101419.849
101421.176
101422.657
101424.32
101426.357
101428.628
101430.857
101433.26
101436.116
101438.094
101439.354
101440.807
101443.015
101445.501
101447.416
101449.002
101450.864
101452.963
101455.002
101457.164
101459.458
101461.405
101463.366
101465.536
101467.808
101369.221
101369.321
101369.437
101369.555
101369.676
101369.803
101369.937
101370.077
101370.224
101370.38
101370.544
101370.718
101370.903
101371.102
101371.315
101371.545
101371.795
101372.068
101372.368
101372.698
101373.065
101373.472
101373.925
101374.43
101374.992
101375.619
101376.313
101377.082
101377.929
101378.857
101379.868
101380.963
101382.141
101383.401
101384.738
101386.148
101387.623
101389.16
101390.829
101392.599
101394.413
101396.253
101397.656
101398.775
101400.377
101402.494
101404.601
101406.223
101408.263
101410.886
101412.514
101413.661
101415.023
101417.155
101419.181
101421.124
101423.531
101425.782
101428.04
101430.416
101432.945
101435.088
101436.553
101437.758
101439.423
101441.97
101444.452
101446.511
101448.23
101450.373
101453.397
101456.306
101458.001
101459.15
101460.737
101463.092
101464.859
101467.43
101469.146
101470.738
101379.505
101379.51
101379.515
101379.518
101379.52
101379.521
101379.52
101379.518
101379.514
101379.509
101379.502
101379.494
101379.484
101379.472
101379.459
101379.443
101379.426
101379.407
101379.385
101379.362
101379.336
101379.307
101379.276
101379.242
101379.206
101379.166
101379.124
101379.078
101379.028
101378.975
101378.918
101378.858
101378.792
101378.723
101378.648
101378.569
101378.485
101378.395
101378.299
101378.198
101378.09
101377.976
101377.854
101377.727
101377.592
101377.443
101377.286
101377.125
101376.955
101376.774
101376.582
101376.377
101376.159
101375.926
101375.677
101375.41
101375.125
101374.817
101374.485
101374.126
101373.736
101373.31
101372.844
101372.331
101371.768
101371.146
101370.457
101369.684
101368.806
101367.808
101366.895
101365.938
101364.727
101363.379
101362.072
101360.774
101359.417
101357.603
101355.446
101353.129
101379.319
101379.324
101379.328
101379.331
101379.332
101379.333
101379.332
101379.33
101379.327
101379.322
101379.317
101379.309
101379.301
101379.29
101379.279
101379.265
101379.25
101379.233
101379.215
101379.194
101379.171
101379.147
101379.12
101379.09
101379.058
101379.024
101378.987
101378.947
101378.904
101378.858
101378.808
101378.755
101378.699
101378.638
101378.574
101378.505
101378.431
101378.353
101378.27
101378.182
101378.088
101377.988
101377.883
101377.772
101377.654
101377.528
101377.394
101377.253
101377.104
101376.946
101376.778
101376.598
101376.407
101376.202
101375.982
101375.747
101375.493
101375.219
101374.923
101374.601
101374.251
101373.87
101373.455
101373.001
101372.504
101371.955
101371.34
101370.645
101369.869
101369.037
101368.153
101367.268
101366.275
101365.228
101364.103
101362.805
101361.266
101359.416
101357.705
101355.148
101379.283
101379.287
101379.29
101379.293
101379.294
101379.294
101379.294
101379.292
101379.29
101379.286
101379.282
101379.276
101379.269
101379.261
101379.251
101379.241
101379.228
101379.215
101379.2
101379.183
101379.165
101379.145
101379.123
101379.099
101379.073
101379.045
101379.015
101378.982
101378.948
101378.91
101378.87
101378.827
101378.781
101378.733
101378.68
101378.625
101378.566
101378.503
101378.436
101378.366
101378.291
101378.212
101378.127
101378.035
101377.937
101377.836
101377.73
101377.617
101377.497
101377.37
101377.235
101377.092
101376.939
101376.775
101376.6
101376.412
101376.209
101375.991
101375.754
101375.497
101375.217
101374.91
101374.572
101374.199
101373.782
101373.312
101372.783
101372.199
101371.571
101370.903
101370.196
101369.443
101368.605
101367.672
101366.6
101365.311
101363.718
101362.214
101359.972
101357.499
101379.38
101379.383
101379.385
101379.388
101379.389
101379.39
101379.389
101379.389
101379.387
101379.385
101379.382
101379.378
101379.373
101379.368
101379.361
101379.354
101379.346
101379.336
101379.326
101379.314
101379.301
101379.287
101379.271
101379.255
101379.236
101379.217
101379.195
101379.173
101379.148
101379.121
101379.093
101379.063
101379.031
101378.996
101378.96
101378.921
101378.879
101378.835
101378.789
101378.739
101378.688
101378.633
101378.575
101378.514
101378.449
101378.38
101378.307
101378.23
101378.149
101378.063
101377.972
101377.874
101377.77
101377.659
101377.539
101377.41
101377.271
101377.121
101376.957
101376.778
101376.581
101376.363
101376.12
101375.847
101375.54
101375.195
101374.811
101374.389
101373.927
101373.411
101372.815
101372.122
101371.368
101370.533
101369.334
101368.106
101366.928
101364.946
101362.837
101361.623
101379.567
101379.57
101379.572
101379.574
101379.575
101379.576
101379.576
101379.576
101379.576
101379.575
101379.574
101379.572
101379.569
101379.567
101379.563
101379.559
101379.555
101379.55
101379.544
101379.537
101379.53
101379.522
101379.514
101379.504
101379.494
101379.483
101379.471
101379.458
101379.444
101379.429
101379.413
101379.396
101379.377
101379.358
101379.337
101379.316
101379.293
101379.269
101379.245
101379.218
101379.189
101379.159
101379.128
101379.096
101379.062
101379.027
101378.99
101378.951
101378.911
101378.868
101378.824
101378.776
101378.725
101378.671
101378.612
101378.549
101378.48
101378.404
101378.319
101378.225
101378.117
101377.994
101377.852
101377.684
101377.486
101377.249
101376.969
101376.636
101376.24
101375.776
101375.251
101374.688
101374.095
101373.401
101372.569
101371.683
101370.762
101369.744
101368.623
101367.226
101379.816
101379.817
101379.819
101379.82
101379.821
101379.823
101379.823
101379.824
101379.825
101379.825
101379.826
101379.826
101379.826
101379.826
101379.826
101379.825
101379.825
101379.824
101379.823
101379.822
101379.82
101379.819
101379.817
101379.815
101379.812
101379.81
101379.807
101379.804
101379.8
101379.797
101379.793
101379.789
101379.784
101379.78
101379.776
101379.773
101379.769
101379.764
101379.758
101379.754
101379.75
101379.746
101379.742
101379.739
101379.736
101379.733
101379.731
101379.73
101379.73
101379.73
101379.731
101379.732
101379.734
101379.737
101379.739
101379.741
101379.742
101379.742
101379.739
101379.733
101379.722
101379.703
101379.673
101379.626
101379.559
101379.463
101379.33
101379.155
101378.933
101378.667
101378.361
101378.013
101377.603
101377.114
101376.537
101375.854
101375.08
101374.262
101373.356
101372.121
101380.084
101380.085
101380.086
101380.087
101380.088
101380.089
101380.091
101380.092
101380.093
101380.095
101380.097
101380.099
101380.101
101380.103
101380.106
101380.108
101380.111
101380.114
101380.117
101380.12
101380.124
101380.127
101380.131
101380.135
101380.14
101380.144
101380.149
101380.155
101380.16
101380.167
101380.174
101380.183
101380.191
101380.2
101380.209
101380.218
101380.229
101380.241
101380.255
101380.27
101380.286
101380.304
101380.323
101380.345
101380.369
101380.395
101380.423
101380.454
101380.488
101380.525
101380.565
101380.609
101380.656
101380.707
101380.761
101380.82
101380.883
101380.95
101381.021
101381.096
101381.173
101381.253
101381.331
101381.405
101381.471
101381.521
101381.548
101381.544
101381.502
101381.413
101381.265
101381.04
101380.724
101380.306
101379.779
101379.171
101378.501
101377.776
101377
101376.034
101380.345
101380.345
101380.345
101380.346
101380.347
101380.348
101380.349
101380.351
101380.353
101380.355
101380.358
101380.361
101380.364
101380.368
101380.373
101380.377
101380.383
101380.388
101380.394
101380.401
101380.408
101380.416
101380.424
101380.433
101380.444
101380.455
101380.466
101380.478
101380.491
101380.504
101380.518
101380.534
101380.551
101380.569
101380.589
101380.611
101380.634
101380.659
101380.686
101380.715
101380.746
101380.78
101380.818
101380.858
101380.901
101380.948
101380.999
101381.054
101381.114
101381.178
101381.248
101381.323
101381.404
101381.491
101381.584
101381.685
101381.793
101381.908
101382.033
101382.166
101382.308
101382.459
101382.617
101382.779
101382.942
101383.099
101383.241
101383.356
101383.427
101383.438
101383.372
101383.22
101382.976
101382.626
101382.176
101381.661
101381.124
101380.625
101380.156
101379.27
101380.568
101380.567
101380.566
101380.566
101380.566
101380.567
101380.568
101380.57
101380.572
101380.574
101380.578
101380.581
101380.586
101380.591
101380.596
101380.602
101380.609
101380.616
101380.624
101380.633
101380.642
101380.652
101380.663
101380.674
101380.686
101380.699
101380.713
101380.729
101380.746
101380.764
101380.783
101380.804
101380.826
101380.85
101380.876
101380.903
101380.933
101380.965
101380.999
101381.036
101381.075
101381.118
101381.164
101381.214
101381.268
101381.326
101381.388
101381.455
101381.527
101381.605
101381.688
101381.778
101381.873
101381.976
101382.085
101382.202
101382.328
101382.461
101382.604
101382.756
101382.919
101383.097
101383.289
101383.493
101383.706
101383.921
101384.129
101384.314
101384.463
101384.562
101384.575
101384.484
101384.276
101383.939
101383.521
101383.072
101382.631
101382.269
101381.908
101380.98
101380.743
101380.741
101380.74
101380.738
101380.738
101380.737
101380.738
101380.738
101380.74
101380.741
101380.744
101380.747
101380.75
101380.754
101380.759
101380.765
101380.771
101380.778
101380.786
101380.794
101380.804
101380.814
101380.825
101380.837
101380.85
101380.864
101380.879
101380.895
101380.912
101380.93
101380.95
101380.971
101380.994
101381.019
101381.045
101381.073
101381.103
101381.135
101381.17
101381.207
101381.247
101381.29
101381.335
101381.385
101381.438
101381.494
101381.555
101381.62
101381.69
101381.765
101381.845
101381.931
101382.023
101382.124
101382.234
101382.355
101382.487
101382.631
101382.789
101382.963
101383.149
101383.346
101383.554
101383.772
101383.996
101384.217
101384.424
101384.603
101384.732
101384.785
101384.745
101384.592
101384.3
101383.884
101383.405
101382.902
101382.401
101381.965
101381.54
101380.761
101380.852
101380.849
101380.846
101380.844
101380.842
101380.84
101380.839
101380.839
101380.839
101380.839
101380.84
101380.842
101380.844
101380.847
101380.85
101380.854
101380.859
101380.864
101380.87
101380.877
101380.885
101380.893
101380.902
101380.911
101380.922
101380.933
101380.946
101380.959
101380.973
101380.988
101381.005
101381.022
101381.041
101381.061
101381.082
101381.105
101381.129
101381.155
101381.182
101381.212
101381.243
101381.277
101381.312
101381.351
101381.391
101381.435
101381.483
101381.535
101381.593
101381.655
101381.724
101381.799
101381.877
101381.954
101382.035
101382.121
101382.211
101382.306
101382.408
101382.52
101382.65
101382.798
101382.961
101383.133
101383.311
101383.49
101383.657
101383.798
101383.894
101383.868
101383.705
101383.419
101383.004
101382.501
101381.959
101381.401
101380.857
101380.384
101379.938
101379.22
101380.905
101380.901
101380.896
101380.892
101380.888
101380.885
101380.882
101380.879
101380.877
101380.875
101380.874
101380.873
101380.873
101380.873
101380.874
101380.875
101380.876
101380.879
101380.881
101380.884
101380.888
101380.892
101380.897
101380.902
101380.908
101380.915
101380.922
101380.929
101380.937
101380.946
101380.955
101380.965
101380.975
101380.986
101380.998
101381.01
101381.023
101381.037
101381.052
101381.068
101381.085
101381.104
101381.125
101381.149
101381.175
101381.199
101381.222
101381.244
101381.266
101381.288
101381.31
101381.331
101381.357
101381.392
101381.43
101381.468
101381.505
101381.542
101381.578
101381.613
101381.649
101381.682
101381.716
101381.757
101381.801
101381.839
101381.861
101381.853
101381.811
101381.69
101381.442
101381.072
101380.594
101380.04
101379.463
101378.859
101378.232
101377.704
101377.26
101376.627
101380.907
101380.901
101380.894
101380.888
101380.882
101380.876
101380.87
101380.865
101380.86
101380.855
101380.851
101380.847
101380.843
101380.84
101380.837
101380.834
101380.831
101380.829
101380.827
101380.825
101380.823
101380.822
101380.821
101380.819
101380.818
101380.818
101380.817
101380.816
101380.815
101380.814
101380.813
101380.812
101380.811
101380.81
101380.81
101380.809
101380.809
101380.809
101380.81
101380.808
101380.802
101380.795
101380.786
101380.776
101380.763
101380.752
101380.745
101380.738
101380.73
101380.718
101380.703
101380.685
101380.663
101380.633
101380.598
101380.562
101380.525
101380.485
101380.443
101380.399
101380.353
101380.304
101380.245
101380.174
101380.087
101379.977
101379.836
101379.649
101379.411
101379.086
101378.678
101378.142
101377.574
101376.986
101376.366
101375.685
101375.067
101374.698
101374.372
101373.781
101380.87
101380.861
101380.852
101380.843
101380.835
101380.826
101380.817
101380.809
101380.8
101380.792
101380.784
101380.776
101380.768
101380.76
101380.752
101380.745
101380.737
101380.729
101380.721
101380.714
101380.706
101380.698
101380.689
101380.681
101380.672
101380.663
101380.654
101380.644
101380.634
101380.624
101380.613
101380.601
101380.588
101380.573
101380.555
101380.535
101380.513
101380.489
101380.462
101380.437
101380.413
101380.387
101380.358
101380.325
101380.289
101380.249
101380.202
101380.151
101380.097
101380.039