/*--------------------------------*- C++ -*----------------------------------*\
  =========                 |
  \\      /  F ield         | OpenFOAM: The Open Source CFD Toolbox
   \\    /   O peration     | Website:  https://openfoam.org
    \\  /    A nd           | Version:  8
     \\/     M anipulation  |
\*---------------------------------------------------------------------------*/
FoamFile
{
    version     2.0;
    format      ascii;
    class       volScalarField;
    location    "0.032";
    object      p_rgh;
}
// * * * * * * * * * * * * * * * * * * * * * * * * * * * * * * * * * * * * * //

dimensions      [1 -1 -2 0 0 0 0];

internalField   nonuniform List<scalar> 
42400
(
101380.963
101380.95
101380.935
101380.919
101380.903
101380.886
101380.868
101380.849
101380.829
101380.808
101380.787
101380.764
101380.741
101380.716
101380.691
101380.664
101380.636
101380.607
101380.576
101380.544
101380.509
101380.474
101380.436
101380.396
101380.353
101380.308
101380.261
101380.211
101380.157
101380.101
101380.041
101379.977
101379.91
101379.839
101379.764
101379.684
101379.6
101379.512
101379.427
101379.346
101379.25
101379.13
101378.995
101378.855
101378.723
101378.598
101378.468
101378.334
101378.197
101378.054
101377.906
101377.753
101377.61
101377.474
101377.343
101377.192
101377.024
101376.878
101376.75
101376.631
101376.514
101376.403
101376.306
101376.227
101376.17
101376.154
101376.178
101376.219
101376.394
101376.603
101376.608
101377.075
101378.32
101377.421
101376.533
101377.012
101379.535
101385.432
101388.435
101392.7
101381.155
101381.145
101381.132
101381.119
101381.106
101381.091
101381.075
101381.059
101381.041
101381.023
101381.003
101380.983
101380.962
101380.939
101380.916
101380.891
101380.865
101380.838
101380.809
101380.779
101380.747
101380.713
101380.677
101380.64
101380.6
101380.558
101380.513
101380.465
101380.415
101380.361
101380.304
101380.244
101380.181
101380.112
101380.04
101379.97
101379.904
101379.837
101379.749
101379.637
101379.524
101379.419
101379.317
101379.211
101379.101
101378.987
101378.868
101378.745
101378.626
101378.519
101378.418
101378.294
101378.149
101378.021
101377.912
101377.813
101377.715
101377.622
101377.539
101377.472
101377.425
101377.407
101377.425
101377.485
101377.574
101377.707
101377.925
101378.213
101378.722
101379.509
101380.11
101380.946
101382.707
101383.49
101383.647
101386.931
101392.303
101395.916
101399.409
101400.8
101381.461
101381.453
101381.443
101381.433
101381.422
101381.41
101381.396
101381.382
101381.368
101381.352
101381.335
101381.318
101381.299
101381.28
101381.259
101381.238
101381.215
101381.191
101381.166
101381.14
101381.112
101381.083
101381.052
101381.019
101380.984
101380.948
101380.909
101380.868
101380.825
101380.778
101380.729
101380.679
101380.63
101380.581
101380.53
101380.466
101380.384
101380.298
101380.217
101380.142
101380.064
101379.981
101379.896
101379.806
101379.709
101379.621
101379.54
101379.468
101379.361
101379.234
101379.14
101379.062
101378.98
101378.9
101378.825
101378.759
101378.707
101378.678
101378.676
101378.702
101378.761
101378.864
101379.02
101379.252
101379.555
101379.941
101380.416
101381.018
101381.821
101382.928
101384.236
101385.203
101387.396
101392.526
101396.267
101396.81
101396.889
101399.705
101403.138
101405.972
101381.898
101381.892
101381.884
101381.875
101381.866
101381.856
101381.845
101381.833
101381.821
101381.808
101381.794
101381.779
101381.764
101381.748
101381.732
101381.714
101381.696
101381.678
101381.658
101381.637
101381.616
101381.593
101381.569
101381.544
101381.518
101381.49
101381.461
101381.43
101381.398
101381.366
101381.333
101381.296
101381.251
101381.2
101381.146
101381.094
101381.045
101380.994
101380.938
101380.881
101380.819
101380.75
101380.691
101380.647
101380.583
101380.494
101380.416
101380.352
101380.296
101380.231
101380.167
101380.109
101380.059
101380.024
101380.008
101380.01
101380.034
101380.085
101380.178
101380.322
101380.528
101380.808
101381.179
101381.669
101382.252
101382.963
101383.695
101384.646
101385.614
101386.71
101389.416
101393.658
101395.923
101396.336
101398.051
101400.335
101402.764
101405.187
101407.261
101409.639
101382.457
101382.451
101382.444
101382.436
101382.428
101382.419
101382.41
101382.4
101382.39
101382.379
101382.368
101382.357
101382.346
101382.334
101382.322
101382.31
101382.297
101382.285
101382.271
101382.258
101382.244
101382.23
101382.215
101382.199
101382.182
101382.165
101382.148
101382.13
101382.109
101382.086
101382.061
101382.035
101382.01
101381.985
101381.958
101381.928
101381.896
101381.861
101381.819
101381.786
101381.768
101381.73
101381.669
101381.623
101381.587
101381.549
101381.508
101381.468
101381.433
101381.406
101381.389
101381.383
101381.392
101381.418
101381.47
101381.555
101381.685
101381.867
101382.113
101382.435
101382.864
101383.388
101384.043
101384.837
101385.779
101386.842
101387.662
101388.887
101392.127
101395.573
101396.699
101397.103
101398.727
101400.95
101403.106
101405.078
101407
101409.103
101411.727
101414.211
101383.111
101383.105
101383.098
101383.091
101383.083
101383.075
101383.067
101383.059
101383.051
101383.043
101383.035
101383.028
101383.02
101383.013
101383.006
101382.999
101382.993
101382.987
101382.981
101382.975
101382.968
101382.961
101382.956
101382.952
101382.949
101382.945
101382.941
101382.937
101382.932
101382.927
101382.921
101382.914
101382.906
101382.897
101382.885
101382.869
101382.86
101382.866
101382.852
101382.819
101382.801
101382.791
101382.777
101382.761
101382.748
101382.737
101382.732
101382.733
101382.743
101382.764
101382.802
101382.863
101382.95
101383.07
101383.233
101383.448
101383.724
101384.079
101384.528
101385.06
101385.726
101386.461
101387.37
101388.248
101389.305
101391.491
101394.87
101397.098
101397.745
101398.551
101400.363
101402.199
101403.519
101405.443
101407.555
101409.512
101411.602
101413.802
101416.299
101418.373
101383.816
101383.81
101383.802
101383.795
101383.788
101383.781
101383.774
101383.768
101383.762
101383.757
101383.752
101383.749
101383.745
101383.743
101383.742
101383.741
101383.741
101383.741
101383.742
101383.747
101383.753
101383.76
101383.768
101383.775
101383.783
101383.792
101383.801
101383.81
101383.819
101383.829
101383.839
101383.848
101383.853
101383.866
101383.891
101383.901
101383.894
101383.901
101383.916
101383.927
101383.936
101383.948
101383.961
101383.978
101384.001
101384.032
101384.073
101384.129
101384.203
101384.301
101384.427
101384.586
101384.788
101385.042
101385.36
101385.759
101386.248
101386.836
101387.532
101388.343
101389.265
101390.073
101391.315
101394.153
101396.817
101398.055
101398.532
101399.689
101401.455
101402.881
101404.498
101406.429
101408.03
101409.592
101411.697
101413.935
101416.228
101418.337
101420.552
101422.877
101384.519
101384.512
101384.505
101384.498
101384.492
101384.486
101384.482
101384.478
101384.475
101384.473
101384.472
101384.473
101384.475
101384.478
101384.482
101384.489
101384.498
101384.509
101384.522
101384.535
101384.549
101384.566
101384.583
101384.602
101384.623
101384.645
101384.668
101384.692
101384.716
101384.739
101384.768
101384.809
101384.838
101384.853
101384.881
101384.917
101384.949
101384.981
101385.014
101385.05
101385.089
101385.134
101385.186
101385.247
101385.321
101385.412
101385.522
101385.658
101385.823
101386.023
101386.265
101386.558
101386.912
101387.341
101387.848
101388.44
101389.116
101389.881
101390.664
101391.603
101393.369
101396.145
101398.062
101398.646
101399.175
101400.272
101402.005
101403.967
101405.706
101407.042
101408.413
101410.245
101412.25
101414.254
101416.338
101418.431
101420.845
101423.593
101426.349
101428.671
101385.158
101385.151
101385.145
101385.139
101385.135
101385.132
101385.13
101385.129
101385.13
101385.133
101385.137
101385.144
101385.152
101385.163
101385.176
101385.191
101385.208
101385.228
101385.249
101385.272
101385.298
101385.326
101385.357
101385.389
101385.423
101385.459
101385.494
101385.535
101385.588
101385.631
101385.664
101385.709
101385.761
101385.81
101385.86
101385.913
101385.968
101386.026
101386.09
101386.16
101386.239
101386.329
101386.433
101386.556
101386.701
101386.873
101387.078
101387.321
101387.609
101387.949
101388.354
101388.835
101389.401
101390.053
101390.793
101391.596
101392.507
101393.562
101395.329
101397.419
101398.528
101399.144
101400.234
101401.867
101403.79
101405.366
101406.76
101408.185
101409.749
101411.462
101413.258
101415.16
101417.08
101419.037
101421.176
101423.37
101425.47
101427.727
101430.082
101432.213
101385.667
101385.662
101385.658
101385.655
101385.654
101385.655
101385.657
101385.662
101385.67
101385.679
101385.69
101385.704
101385.721
101385.74
101385.762
101385.786
101385.814
101385.844
101385.877
101385.913
101385.952
101385.993
101386.037
101386.081
101386.132
101386.193
101386.247
101386.294
101386.352
101386.417
101386.481
101386.546
101386.613
101386.684
101386.759
101386.838
101386.923
101387.016
101387.118
101387.233
101387.363
101387.513
101387.686
101387.888
101388.124
101388.4
101388.724
101389.104
101389.549
101390.076
101390.696
101391.416
101392.241
101393.171
101394.243
101395.38
101396.739
101398.296
101399.249
101400.156
101401.782
101403.473
101404.892
101406.095
101407.388
101408.779
101410.224
101411.802
101413.406
101415.029
101416.971
101418.937
101420.919
101422.896
101424.986
101426.945
101428.968
101430.705
101432.636
101434.477
101385.989
101385.987
101385.986
101385.988
101385.992
101385.998
101386.007
101386.018
101386.032
101386.049
101386.069
101386.092
101386.118
101386.148
101386.181
101386.218
101386.257
101386.301
101386.348
101386.398
101386.449
101386.507
101386.575
101386.639
101386.697
101386.766
101386.842
101386.918
101386.996
101387.077
101387.162
101387.251
101387.344
101387.442
101387.548
101387.662
101387.786
101387.924
101388.077
101388.25
101388.447
101388.672
101388.931
101389.23
101389.575
101389.972
101390.43
101390.959
101391.571
101392.271
101393.071
101393.975
101394.971
101396.045
101397.146
101398.422
101399.688
101400.923
101402.43
101403.815
101404.898
101405.964
101407.243
101408.649
101410.243
101411.91
101413.587
101415.309
101417.021
101418.859
101420.7
101422.545
101424.491
101426.478
101428.486
101430.483
101432.512
101434.524
101437.059
101440.578
101386.051
101386.054
101386.058
101386.066
101386.076
101386.089
101386.106
101386.125
101386.149
101386.176
101386.206
101386.241
101386.28
101386.322
101386.368
101386.419
101386.474
101386.531
101386.595
101386.667
101386.738
101386.807
101386.886
101386.971
101387.057
101387.147
101387.24
101387.338
101387.44
101387.547
101387.659
101387.778
101387.905
101388.041
101388.19
101388.352
101388.531
101388.731
101388.955
101389.207
101389.494
101389.819
101390.189
101390.608
101391.083
101391.618
101392.219
101392.89
101393.622
101394.409
101395.226
101396.15
101397.456
101398.97
101400.339
101401.477
101402.651
101403.94
101405.154
101406.45
101407.899
101409.417
101411.035
101412.683
101414.365
101416.132
101417.836
101419.568
101421.344
101423.155
101424.791
101426.413
101428.377
101430.674
101432.857
101435.312
101437.752
101440.735
101442.898
101444.082
101385.779
101385.788
101385.8
101385.815
101385.834
101385.856
101385.882
101385.913
101385.947
101385.987
101386.03
101386.078
101386.131
101386.187
101386.249
101386.316
101386.392
101386.469
101386.546
101386.632
101386.724
101386.819
101386.918
101387.022
101387.131
101387.245
101387.364
101387.489
101387.621
101387.761
101387.911
101388.072
101388.246
101388.437
101388.646
101388.878
101389.137
101389.427
101389.753
101390.119
101390.531
101390.994
101391.512
101392.087
101392.725
101393.43
101394.203
101395.031
101395.923
101396.96
101398.45
101400.222
101401.495
101402.6
101403.907
101405.275
101406.701
101408.177
101409.73
101411.2
101412.594
101414.237
101415.982
101417.408
101418.655
101420.082
101421.661
101423.198
101424.778
101426.552
101428.809
101431.262
101433.242
101435.009
101437.004
101438.882
101440.435
101441.694
101443.385
101445.619
101385.09
101385.107
101385.128
101385.153
101385.182
101385.216
101385.254
101385.297
101385.345
101385.397
101385.455
101385.518
101385.589
101385.664
101385.742
101385.825
101385.915
101386.011
101386.112
101386.218
101386.329
101386.445
101386.567
101386.696
101386.83
101386.972
101387.122
101387.281
101387.452
101387.635
101387.834
101388.051
101388.29
101388.554
101388.848
101389.178
101389.547
101389.963
101390.43
101390.954
101391.541
101392.196
101392.923
101393.725
101394.612
101395.594
101396.667
101397.8
101399.148
101400.567
101401.728
101402.825
101404.163
101405.599
101406.977
101408.373
101409.795
101411.259
101412.802
101414.326
101415.596
101416.718
101418.023
101419.805
101421.745
101423.679
101425.498
101427.05
101428.789
101430.71
101432.57
101434.28
101435.881
101437.605
101439.49
101441.539
101443.69
101445.694
101448.388
101450.83
101383.911
101383.937
101383.97
101384.007
101384.048
101384.095
101384.147
101384.203
101384.266
101384.335
101384.409
101384.488
101384.573
101384.665
101384.762
101384.864
101384.973
101385.087
101385.207
101385.333
101385.466
101385.604
101385.751
101385.905
101386.067
101386.241
101386.426
101386.625
101386.84
101387.075
101387.332
101387.616
101387.932
101388.283
101388.676
101389.115
101389.606
101390.155
101390.767
101391.446
101392.197
101393.021
101393.921
101394.896
101395.948
101397.076
101398.256
101399.599
101400.947
101402.283
101403.599
101404.797
101406.07
101407.416
101408.846
101410.313
101411.759
101413.17
101414.518
101415.919
101417.607
101419.363
101421.344
101423.28
101424.739
101426.165
101427.824
101429.868
101431.847
101433.727
101435.717
101437.472
101439.174
101441.434
101443.618
101445.641
101447.908
101449.821
101451.877
101454.198
101382.173
101382.211
101382.258
101382.309
101382.364
101382.426
101382.493
101382.565
101382.643
101382.728
101382.818
101382.915
101383.017
101383.126
101383.24
101383.361
101383.489
101383.622
101383.762
101383.91
101384.065
101384.229
101384.402
101384.586
101384.783
101384.994
101385.222
101385.471
101385.742
101386.041
101386.372
101386.738
101387.146
101387.6
101388.104
101388.665
101389.286
101389.97
101390.722
101391.543
101392.435
101393.401
101394.442
101395.563
101396.743
101397.975
101399.253
101400.527
101401.864
101403.191
101404.38
101405.749
101407.177
101408.61
101410.356
101412.131
101413.903
101415.586
101417.233
101419.208
101421.17
101422.962
101424.669
101426.132
101427.963
101429.807
101431.446
101432.941
101434.45
101436.119
101438.127
101440.439
101442.664
101444.874
101446.704
101448.486
101450.761
101452.67
101454.772
101457.386
101379.851
101379.903
101379.966
101380.033
101380.104
101380.182
101380.265
101380.354
101380.45
101380.552
101380.66
101380.775
101380.896
101381.023
101381.158
101381.299
101381.448
101381.605
101381.771
101381.946
101382.132
101382.331
101382.543
101382.772
101383.02
101383.29
101383.586
101383.911
101384.271
101384.669
101385.11
101385.6
101386.143
101386.743
101387.404
101388.128
101388.916
101389.769
101390.682
101391.65
101392.656
101393.706
101394.775
101396.042
101397.606
101399.157
101400.624
101402.192
101403.913
101405.695
101407.599
101409.338
101411.144
101413.044
101414.476
101415.647
101416.878
101418.386
101420.325
101422.222
101423.76
101425.503
101427.03
101428.48
101430.102
101431.667
101433.627
101435.906
101438.165
101440.344
101442.489
101444.721
101446.983
101448.629
101450.403
101452.334
101454.166
101456.702
101458.835
101460.017
101376.934
101377.002
101377.083
101377.167
101377.255
101377.35
101377.452
101377.559
101377.673
101377.794
101377.922
101378.057
101378.2
101378.35
101378.509
101378.676
101378.854
101379.043
101379.245
101379.461
101379.693
101379.944
101380.218
101380.516
101380.844
101381.205
101381.605
101382.047
101382.538
101383.081
101383.682
101384.345
101385.073
101385.869
101386.735
101387.671
101388.679
101389.757
101390.893
101392.093
101393.375
101395.058
101397.274
101399.468
101401.239
101402.651
101403.886
101405.127
101406.564
101407.967
101409.39
101411.037
101412.702
101414.117
101415.465
101417.341
101419.458
101421.476
101423.096
101424.316
101425.78
101427.709
101429.69
101431.841
101434.36
101437.409
101439.555
101441.071
101442.707
101444.495
101446.301
101448.05
101449.651
101451.327
101453.115
101455.032
101457.422
101459.763
101462.192
101464.482
101373.45
101373.535
101373.634
101373.735
101373.841
101373.954
101374.073
101374.198
101374.331
101374.471
101374.618
101374.774
101374.94
101375.115
101375.302
101375.501
101375.714
101375.945
101376.194
101376.465
101376.762
101377.088
101377.448
101377.847
101378.291
101378.784
101379.333
101379.944
101380.621
101381.372
101382.199
101383.107
101384.099
101385.175
101386.336
101387.58
101388.904
101390.296
101391.74
101393.266
101394.87
101396.169
101397.413
101398.894
101400.395
101402.147
101404.217
101406.177
101407.613
101408.955
101410.678
101412.599
101414.477
101416.285
101418.257
101419.971
101421.385
101422.958
101424.615
101426.58
101428.853
101431.15
101433.616
101436.457
101438.486
101439.828
101441.315
101443.376
101445.642
101447.527
101449.15
101451.023
101453.128
101455.147
101457.299
101459.571
101461.602
101463.643
101465.906
101468.316
101369.454
101369.554
101369.671
101369.788
101369.91
101370.038
101370.172
101370.313
101370.461
101370.617
101370.782
101370.957
101371.144
101371.343
101371.557
101371.789
101372.041
101372.315
101372.617
101372.95
101373.319
101373.728
101374.184
101374.692
101375.257
101375.886
101376.585
101377.357
101378.208
101379.14
101380.156
101381.255
101382.438
101383.702
101385.043
101386.456
101387.933
101389.469
101391.133
101392.837
101394.564
101396.295
101397.686
101398.921
101400.634
101402.739
101404.759
101406.582
101408.692
101411.104
101412.748
101413.993
101415.443
101417.547
101419.602
101421.506
101423.679
101425.837
101428.13
101430.57
101433.161
101435.274
101436.743
101437.987
101439.628
101442.026
101444.428
101446.594
101448.579
101450.839
101453.666
101456.349
101458.051
101459.289
101461.09
101463.513
101465.274
101467.647
101469.326
101471.052
101378.912
101378.917
101378.922
101378.925
101378.927
101378.927
101378.926
101378.924
101378.92
101378.915
101378.908
101378.899
101378.889
101378.877
101378.863
101378.847
101378.83
101378.81
101378.788
101378.764
101378.737
101378.708
101378.676
101378.642
101378.605
101378.564
101378.521
101378.474
101378.424
101378.369
101378.311
101378.249
101378.183
101378.112
101378.036
101377.956
101377.87
101377.778
101377.681
101377.578
101377.468
101377.352
101377.229
101377.099
101376.961
101376.811
101376.652
101376.488
101376.315
101376.132
101375.937
101375.729
101375.508
101375.272
101375.02
101374.751
101374.461
101374.15
101373.814
101373.45
101373.055
101372.624
101372.152
101371.632
101371.061
101370.431
101369.734
101368.954
101368.07
101367.053
101366.061
101365.061
101363.861
101362.476
101361.109
101359.757
101358.359
101356.609
101354.45
101352.101
101378.759
101378.763
101378.768
101378.77
101378.772
101378.772
101378.771
101378.769
101378.766
101378.761
101378.755
101378.747
101378.738
101378.728
101378.716
101378.702
101378.686
101378.669
101378.65
101378.629
101378.606
101378.58
101378.552
101378.522
101378.49
101378.454
101378.416
101378.376
101378.332
101378.284
101378.234
101378.18
101378.122
101378.06
101377.994
101377.924
101377.849
101377.77
101377.685
101377.595
101377.5
101377.398
101377.291
101377.178
101377.057
101376.928
101376.792
101376.649
101376.498
101376.337
101376.167
101375.985
101375.791
101375.583
101375.361
101375.122
101374.865
101374.588
101374.288
101373.963
101373.608
101373.222
101372.8
101372.34
101371.836
101371.28
101370.66
101369.958
101369.172
101368.326
101367.438
101366.524
101365.518
101364.457
101363.324
101362.044
101360.551
101358.74
101356.994
101354.552
101378.76
101378.764
101378.767
101378.77
101378.771
101378.771
101378.771
101378.769
101378.766
101378.763
101378.758
101378.752
101378.744
101378.736
101378.726
101378.715
101378.702
101378.688
101378.672
101378.655
101378.636
101378.616
101378.593
101378.568
101378.542
101378.513
101378.482
101378.449
101378.413
101378.375
101378.333
101378.289
101378.242
101378.192
101378.139
101378.082
101378.021
101377.957
101377.889
101377.816
101377.74
101377.658
101377.572
101377.477
101377.378
101377.275
101377.166
101377.05
101376.928
101376.799
101376.662
101376.516
101376.36
101376.194
101376.015
101375.824
101375.618
101375.396
101375.156
101374.896
101374.612
101374.301
101373.96
101373.582
101373.162
101372.689
101372.155
101371.562
101370.921
101370.237
101369.513
101368.759
101367.936
101367.022
101365.981
101364.752
101363.253
101361.822
101359.882
101357.457
101378.899
101378.901
101378.904
101378.906
101378.908
101378.908
101378.908
101378.907
101378.905
101378.903
101378.9
101378.895
101378.89
101378.885
101378.878
101378.87
101378.861
101378.851
101378.84
101378.828
101378.815
101378.8
101378.784
101378.766
101378.747
101378.727
101378.705
101378.681
101378.655
101378.628
101378.599
101378.567
101378.534
101378.498
101378.46
101378.42
101378.377
101378.332
101378.283
101378.232
101378.179
101378.123
101378.063
101377.999
101377.932
101377.861
101377.786
101377.707
101377.623
101377.534
101377.44
101377.34
101377.234
101377.119
101376.997
101376.865
101376.723
101376.57
101376.403
101376.221
101376.02
101375.799
101375.552
101375.277
101374.966
101374.618
101374.229
101373.804
101373.34
101372.829
101372.248
101371.578
101370.842
101370.037
101368.902
101367.69
101366.54
101364.677
101362.571
101361.281
101379.132
101379.134
101379.136
101379.138
101379.139
101379.14
101379.14
101379.14
101379.14
101379.139
101379.137
101379.135
101379.132
101379.129
101379.126
101379.121
101379.117
101379.111
101379.105
101379.098
101379.09
101379.082
101379.072
101379.062
101379.051
101379.039
101379.027
101379.013
101378.998
101378.982
101378.965
101378.947
101378.927
101378.907
101378.885
101378.862
101378.838
101378.813
101378.786
101378.758
101378.728
101378.696
101378.663
101378.629
101378.593
101378.556
101378.517
101378.476
101378.433
101378.387
101378.34
101378.29
101378.236
101378.179
101378.117
101378.051
101377.979
101377.899
101377.812
101377.714
101377.604
101377.478
101377.334
101377.164
101376.964
101376.727
101376.447
101376.117
101375.727
101375.271
101374.755
101374.199
101373.619
101372.948
101372.09
101371.15
101370.257
101369.239
101368.104
101366.789
101379.43
101379.431
101379.433
101379.434
101379.435
101379.436
101379.437
101379.438
101379.438
101379.439
101379.439
101379.439
101379.439
101379.439
101379.438
101379.437
101379.436
101379.435
101379.434
101379.432
101379.43
101379.428
101379.426
101379.423
101379.42
101379.417
101379.413
101379.409
101379.405
101379.401
101379.396
101379.391
101379.386
101379.38
101379.375
101379.371
101379.365
101379.359
101379.352
101379.346
101379.341
101379.335
101379.329
101379.324
101379.319
101379.315
101379.311
101379.307
101379.304
101379.302
101379.3
101379.299
101379.299
101379.298
101379.298
101379.297
101379.294
101379.291
101379.284
101379.275
101379.26
101379.237
101379.203
101379.153
101379.082
101378.983
101378.847
101378.669
101378.445
101378.175
101377.866
101377.517
101377.114
101376.634
101376.07
101375.399
101374.64
101373.852
101372.975
101371.767
101379.751
101379.752
101379.753
101379.754
101379.755
101379.756
101379.757
101379.758
101379.76
101379.761
101379.763
101379.765
101379.767
101379.769
101379.771
101379.773
101379.776
101379.778
101379.781
101379.784
101379.787
101379.79
101379.794
101379.798
101379.801
101379.806
101379.81
101379.815
101379.82
101379.826
101379.832
101379.84
101379.847
101379.855
101379.863
101379.872
101379.881
101379.893
101379.905
101379.919
101379.934
101379.95
101379.968
101379.988
101380.01
101380.034
101380.061
101380.09
101380.122
101380.157
101380.195
101380.236
101380.28
101380.328
101380.38
101380.436
101380.496
101380.559
101380.627
101380.698
101380.772
101380.847
101380.921
101380.992
101381.054
101381.1
101381.124
101381.117
101381.074
101380.986
101380.843
101380.629
101380.33
101379.932
101379.429
101378.845
101378.204
101377.515
101376.767
101375.809
101380.067
101380.067
101380.067
101380.067
101380.068
101380.069
101380.07
101380.072
101380.074
101380.076
101380.079
101380.082
101380.085
101380.089
101380.093
101380.098
101380.103
101380.109
101380.114
101380.121
101380.128
101380.135
101380.143
101380.152
101380.162
101380.173
101380.184
101380.196
101380.208
101380.221
101380.235
101380.249
101380.266
101380.284
101380.303
101380.324
101380.346
101380.37
101380.396
101380.425
101380.455
101380.488
101380.524
101380.563
101380.605
101380.651
101380.701
101380.754
101380.812
101380.875
101380.942
101381.016
101381.094
101381.179
101381.27
101381.369
101381.474
101381.587
101381.709
101381.839
101381.978
101382.126
101382.281
101382.441
101382.601
101382.757
101382.899
101383.015
101383.091
101383.111
101383.058
101382.921
101382.695
101382.367
101381.939
101381.445
101380.923
101380.428
101379.956
101379.115
101380.346
101380.345
101380.345
101380.344
101380.345
101380.345
101380.346
101380.348
101380.35
101380.353
101380.356
101380.36
101380.364
101380.369
101380.374
101380.381
101380.387
101380.394
101380.402
101380.411
101380.42
101380.43
101380.441
101380.452
101380.464
101380.477
101380.491
101380.506
101380.523
101380.541
101380.56
101380.581
101380.602
101380.626
101380.651
101380.679
101380.708
101380.74
101380.773
101380.81
101380.849
101380.892
101380.937
101380.986
101381.039
101381.097
101381.158
101381.224
101381.296
101381.373
101381.455
101381.543
101381.638
101381.739
101381.848
101381.964
101382.088
101382.22
101382.362
101382.513
101382.675
101382.851
101383.042
101383.247
101383.46
101383.677
101383.888
101384.08
101384.238
101384.35
101384.383
101384.316
101384.135
101383.83
101383.441
101383.015
101382.598
101382.258
101381.925
101381.049
101380.579
101380.577
101380.576
101380.575
101380.574
101380.574
101380.574
101380.575
101380.576
101380.578
101380.58
101380.583
101380.587
101380.591
101380.596
101380.601
101380.608
101380.615
101380.623
101380.632
101380.641
101380.651
101380.663
101380.675
101380.688
101380.702
101380.717
101380.733
101380.751
101380.769
101380.789
101380.811
101380.834
101380.858
101380.885
101380.913
101380.943
101380.976
101381.01
101381.048
101381.088
101381.131
101381.177
101381.226
101381.28
101381.336
101381.397
101381.463
101381.533
101381.608
101381.689
101381.775
101381.867
101381.968
101382.079
101382.2
101382.332
101382.477
101382.636
101382.811
101382.998
101383.196
101383.406
101383.626
101383.855
101384.084
101384.302
101384.496
101384.646
101384.725
101384.715
101384.597
101384.347
101383.971
101383.527
101383.059
101382.596
101382.2
101381.818
101381.074
101380.746
101380.743
101380.74
101380.738
101380.736
101380.734
101380.733
101380.733
101380.733
101380.733
101380.734
101380.736
101380.739
101380.742
101380.745
101380.75
101380.755
101380.76
101380.767
101380.774
101380.781
101380.79
101380.799
101380.809
101380.82
101380.832
101380.845
101380.859
101380.873
101380.889
101380.906
101380.924
101380.943
101380.964
101380.986
101381.01
101381.035
101381.061
101381.09
101381.12
101381.153
101381.187
101381.224
101381.263
101381.305
101381.35
101381.399
101381.453
101381.512
101381.577
101381.647
101381.724
101381.803
101381.883
101381.966
101382.054
101382.147
101382.245
101382.349
101382.464
101382.599
101382.753
101382.921
101383.101
101383.289
101383.479
101383.662
101383.824
101383.947
101383.964
101383.842
101383.598
101383.227
101382.762
101382.255
101381.737
101381.235
101380.809
101380.416
101379.744
101380.855
101380.851
101380.846
101380.842
101380.838
101380.835
101380.832
101380.83
101380.828
101380.826
101380.825
101380.825
101380.824
101380.825
101380.826
101380.827
101380.83
101380.832
101380.835
101380.839
101380.843
101380.848
101380.853
101380.859
101380.866
101380.873
101380.881
101380.889
101380.898
101380.907
101380.918
101380.929
101380.94
101380.952
101380.965
101380.979
101380.994
101381.009
101381.025
101381.043
101381.062
101381.083
101381.106
101381.132
101381.16
101381.187
101381.212
101381.236
101381.262
101381.287
101381.312
101381.337
101381.367
101381.406
101381.449
101381.492
101381.535
101381.578
101381.62
101381.663
101381.705
101381.746
101381.789
101381.841
101381.897
101381.952
101381.994
101382.011
101381.996
101381.914
101381.715
101381.391
101380.957
101380.442
101379.902
101379.349
101378.775
101378.298
101377.905
101377.312
101380.911
101380.905
101380.898
101380.892
101380.886
101380.88
101380.875
101380.87
101380.865
101380.861
101380.857
101380.853
101380.849
101380.846
101380.844
101380.841
101380.839
101380.838
101380.836
101380.835
101380.834
101380.833
101380.833
101380.833
101380.833
101380.833
101380.833
101380.833
101380.834
101380.834
101380.835
101380.835
101380.836
101380.836
101380.837
101380.839
101380.84
101380.843
101380.845
101380.846
101380.843
101380.839
101380.833
101380.825
101380.815
101380.808
101380.805
101380.803
101380.798
101380.791
101380.782
101380.769
101380.752
101380.729
101380.7
101380.671
101380.641
101380.609
101380.576
101380.541
101380.505
101380.467
101380.42
101380.362
101380.29
101380.199
101380.081
101379.921
101379.712
101379.425
101379.056
101378.575
101378.042
101377.487
101376.912
101376.281
101375.706
101375.375
101375.099
101374.566
101380.925
101380.917
101380.907
101380.899
101380.89
101380.881
101380.873
101380.865
101380.857
101380.849
101380.841
101380.833
101380.826
101380.818
101380.811
101380.804
101380.797
101380.79
101380.783
101380.776
101380.769
101380.762
101380.754
101380.747
101380.739
101380.732
101380.724
101380.716
101380.707
101380.698
101380.689
101380.679
101380.668
101380.654
101380.639
101380.621
101380.602
101380.58
101380.556
101380.534
101380.513
101380.491
101380.465
101380.436
101380.404
101380.368
101380.326
101380.28
101380.231
101380.179
101380.124