/*--------------------------------*- C++ -*----------------------------------*\
  =========                 |
  \\      /  F ield         | OpenFOAM: The Open Source CFD Toolbox
   \\    /   O peration     | Website:  https://openfoam.org
    \\  /    A nd           | Version:  8
     \\/     M anipulation  |
\*---------------------------------------------------------------------------*/
FoamFile
{
    version     2.0;
    format      ascii;
    class       surfaceScalarField;
    location    "0.032";
    object      phi;
}
// * * * * * * * * * * * * * * * * * * * * * * * * * * * * * * * * * * * * * //

dimensions      [1 0 -1 0 0 0 0];

internalField   nonuniform List<scalar> 
84340
(
-6.02012937e-08
2.67639253e-07
-2.07250428e-07
-2.50481867e-07
8.45845898e-07
-6.55262025e-07
-5.82482963e-07
1.48637044e-06
-1.15399473e-06
-1.06558888e-06
2.18813569e-06
-1.70459344e-06
-1.70771945e-06
2.9478067e-06
-2.30518503e-06
-2.51580262e-06
3.76130203e-06
-2.95267669e-06
-3.49615339e-06
4.62481205e-06
-3.64386892e-06
-4.65473426e-06
5.53528173e-06
-4.37605724e-06
-5.99731379e-06
6.49055882e-06
-5.14728185e-06
-7.52954205e-06
7.48934321e-06
-5.9563602e-06
-9.2569628e-06
8.53103279e-06
-6.80279564e-06
-1.11849807e-05
9.61552852e-06
-7.6866278e-06
-1.33187957e-05
1.07430478e-05
-8.60827793e-06
-1.56633145e-05
1.19139677e-05
-9.56841627e-06
-1.82230326e-05
1.3128695e-05
-1.05678601e-05
-2.10019121e-05
1.43875816e-05
-1.16074944e-05
-2.40032264e-05
1.56908518e-05
-1.26882312e-05
-2.72294032e-05
1.70385586e-05
-1.38109692e-05
-3.06818394e-05
1.84305547e-05
-1.49765907e-05
-3.43607054e-05
1.98664689e-05
-1.61859509e-05
-3.82647269e-05
2.13456888e-05
-1.74398803e-05
-4.239095e-05
2.28673426e-05
-1.87391873e-05
-4.67344737e-05
2.44302695e-05
-2.00846557e-05
-5.1288172e-05
2.60329905e-05
-2.14770318e-05
-5.60423666e-05
2.7673651e-05
-2.29170104e-05
-6.09844828e-05
2.93499609e-05
-2.44051985e-05
-6.60986638e-05
3.10591057e-05
-2.59420601e-05
-7.1365343e-05
3.27976502e-05
-2.75278704e-05
-7.67607712e-05
3.45614144e-05
-2.91626273e-05
-8.22564908e-05
3.63453088e-05
-3.08459513e-05
-8.781871e-05
3.8143125e-05
-3.25769618e-05
-9.34076642e-05
3.9947378e-05
-3.43541487e-05
-9.89772839e-05
4.17495273e-05
-3.61752705e-05
-0.000104476442
4.35413782e-05
-3.80371929e-05
-0.000109843326
4.53079264e-05
-3.99355849e-05
-0.000115002927
4.70307524e-05
-4.18652108e-05
-0.000119858583
4.86831066e-05
-4.38209629e-05
-0.000124305178
5.02509041e-05
-4.57973562e-05
-0.000128241499
5.17288312e-05
-4.77850736e-05
-0.000131545464
5.30533719e-05
-4.97413009e-05
-0.000134003805
5.41296326e-05
-5.16624143e-05
-0.000135378621
5.49196457e-05
-5.35351946e-05
-0.000135416241
5.53546066e-05
-5.53065282e-05
-0.000133884242
5.5358451e-05
-5.68790816e-05
-0.000130483063
5.48277347e-05
-5.82165744e-05
-0.000124897787
5.36458143e-05
-5.92177491e-05
-0.000116738239
5.16759306e-05
-5.98210308e-05
-0.000105569485
4.8768176e-05
-5.99213649e-05
-9.09124147e-05
4.47389964e-05
-5.93792898e-05
-7.23438853e-05
3.94939651e-05
-5.8044503e-05
-4.93601268e-05
3.27733518e-05
-5.57378181e-05
-2.16367156e-05
2.4573317e-05
-5.22761098e-05
1.16846699e-05
1.40928289e-05
-4.73920585e-05
5.14994703e-05
1.18246319e-06
-4.09739199e-05
9.87410642e-05
-1.4597172e-05
-3.26199174e-05
0.000154527513
-3.34099376e-05
-2.23503062e-05
0.000220118796
-5.64193937e-05
-9.14367915e-06
0.000296795416
-8.38559943e-05
7.20924985e-06
0.000385850731
-0.000116256052
2.72324168e-05
0.000489086831
-0.000154338083
5.11354553e-05
0.000607639258
-0.000198819793
8.03029766e-05
0.000743186079
-0.000250465429
0.000114956467
0.000897432155
-0.000309985729
0.000155779896
0.0010719135
-0.000377954699
0.000203515641
0.00126748271
-0.000454444886
0.000258920851
0.00148517235
-0.000540612102
0.000322968183
0.00172625578
-0.000636956712
0.000395917221
0.00199108524
-0.000743711549
0.000478924399
0.00228891809
-0.000875375365
0.000577584262
0.0026279259
-0.00101474147
0.000675775505
0.00297574966
-0.00112540027
0.000777619209
0.00333463037
-0.00132847076
0.000969633989
0.00382438552
-0.00158785982
0.00109815173
0.00439477366
-0.00163675786
0.00106642
0.00481118752
-0.00171517201
0.00129881102
0.00513105837
-0.00213559523
0.00181578099
0.00560671386
-0.00253192882
0.00205633029
0.00633001266
-0.00264818553
0.00192494278
0.00690606835
-0.00266869662
0.00209271838
-0.0028449123
0.0025732504
0.00717781072
-4.65168967e-08
3.14468957e-07
-1.95742481e-07
9.95518978e-07
-4.58305274e-07
1.74945121e-06
-8.42625325e-07
2.57303844e-06
-1.35549544e-06
3.46132025e-06
-2.00268909e-06
4.40919834e-06
-2.78925351e-06
5.41213908e-06
-3.71975806e-06
6.46661112e-06
-4.79844006e-06
7.57013145e-06
-6.02926846e-06
8.72113241e-06
-7.41594172e-06
9.91874221e-06
-8.96183874e-06
1.11625427e-05
-1.06699312e-05
1.24523448e-05
-1.25426652e-05
1.3788e-05
-1.45818243e-05
1.51692539e-05
-1.67883569e-05
1.6595623e-05
-1.91621925e-05
1.80663138e-05
-2.17020318e-05
1.95801507e-05
-2.44051085e-05
2.11355209e-05
-2.72669339e-05
2.27303306e-05
-3.02810112e-05
2.4361961e-05
-3.34385181e-05
2.60272151e-05
-3.67279683e-05
2.77222701e-05
-4.01348339e-05
2.94426053e-05
-4.36411321e-05
3.11829142e-05
-4.72249923e-05
3.29370184e-05
-5.08601757e-05
3.46977392e-05
-5.45155806e-05
3.64567773e-05
-5.81547284e-05
3.82045811e-05
-6.17353953e-05
3.9930313e-05
-6.52089322e-05
4.16213486e-05
-6.85161364e-05
4.32596487e-05
-7.15850829e-05
4.48239332e-05
-7.43372453e-05
4.62994191e-05
-7.66855352e-05
4.7662573e-05
-7.85447072e-05
4.88967909e-05
-7.98025997e-05
4.99484106e-05
-8.0302839e-05
5.07591367e-05
-7.98179438e-05
5.12525709e-05
-7.81269036e-05
5.13716833e-05
-7.50300527e-05
5.10429424e-05
-7.02760361e-05
5.0176614e-05
-6.35794233e-05
4.86698564e-05
-5.46171564e-05
4.64089563e-05
-4.30477467e-05
4.32720746e-05
-2.84695104e-05
3.90823498e-05
-1.05280533e-05
3.37503287e-05
1.12276655e-05
2.70293772e-05
3.69579074e-05
1.90269004e-05
6.76472057e-05
8.82384519e-06
0.000104063899
-3.62313273e-06
0.000147083384
-1.84244957e-05
0.000197715886
-3.65163627e-05
0.000257091507
-5.8168411e-05
0.000326345305
-8.38246229e-05
0.000407024472
-0.000114061175
0.000500184239
-0.000149549468
0.000607293462
-0.00019093376
0.000729984592
-0.000238913603
0.000869860874
-0.000294178977
0.0010284636
-0.000357385327
0.00120719499
-0.000429157824
0.00140724965
-0.000509999742
0.0016300275
-0.000600692846
0.00187607903
-0.0007004592
0.0021461245
-0.000810622693
0.00244258189
-0.000933380703
0.00276496182
-0.00106605926
0.00311165404
-0.00122203564
0.00350625525
-0.00140931061
0.00394469304
-0.00156380486
0.00433889944
-0.00172264251
0.00475441605
-0.00200333956
0.00533782875
-0.00222013294
0.00593057655
-0.00230788192
0.00627849702
-0.00248347757
0.0064682587
-0.0027216496
0.00671136118
-0.00289123274
0.0070546803
-0.0030119552
-0.00312383172
0.00733364826
-3.44670067e-08
3.49270233e-07
-1.47042404e-07
1.10857289e-06
-3.46984228e-07
1.94994689e-06
-6.41333801e-07
2.86801101e-06
-1.03549097e-06
3.85616523e-06
-1.53357309e-06
4.90803134e-06
-2.13882834e-06
6.01820899e-06
-2.85400202e-06
7.18266557e-06
-3.68133922e-06
8.39841926e-06
-4.62263545e-06
9.66345361e-06
-5.67922032e-06
1.09764317e-05
-6.85188978e-06
1.23364023e-05
-8.14079907e-06
1.37425361e-05
-9.54532178e-06
1.51939033e-05
-1.1063878e-05
1.66892968e-05
-1.26937414e-05
1.82270867e-05
-1.44308095e-05
1.98051044e-05
-1.62693584e-05
2.1420553e-05
-1.82017615e-05
2.30699179e-05
-2.0218183e-05
2.47488966e-05
-2.2306242e-05
2.64523264e-05
-2.44506452e-05
2.81740979e-05
-2.6632786e-05
2.99070773e-05
-2.88302773e-05
3.16429626e-05
-3.10164368e-05
3.33721553e-05
-3.315972e-05
3.50836142e-05
-3.5223108e-05
3.67646877e-05
-3.71630832e-05
3.84005813e-05
-3.89266283e-05
3.99722527e-05
-4.04547018e-05
4.14628124e-05
-4.1682777e-05
4.28541489e-05
-4.25438928e-05
4.41258431e-05
-4.29577535e-05
4.52432784e-05
-4.28155287e-05
4.61630946e-05
-4.19836946e-05
4.68370958e-05
-4.02822542e-05
4.72021883e-05
-3.75248368e-05
4.71983514e-05
-3.35104793e-05
4.67527383e-05
-2.80243275e-05
4.57750431e-05
-2.08333336e-05
4.41899813e-05
-1.16685344e-05
4.18881603e-05
-2.32565766e-07
3.87514278e-05
1.38296793e-05
3.46192163e-05
3.08422232e-05
2.94088654e-05
5.0977179e-05
2.31505333e-05
7.48603963e-05
1.52135977e-05
0.000103115915
5.5101261e-06
0.000136417248
-6.2558865e-06
0.000175592984
-2.01314175e-05
0.000221674822
-3.72390696e-05
0.000275609077
-5.75370836e-05
0.000338676183
-8.14699031e-05
0.000411816225
-0.000109633179
0.000496291067
-0.000142618485
0.000593511697
-0.000181018737
0.000704955398
-0.000225476547
0.000832122406
-0.000276686362
0.000976538974
-0.000335318678
0.00113965454
-0.00040199576
0.0013226983
-0.000477187538
0.00152691069
-0.00056156156
0.00175332778
-0.000655540126
0.00200319056
-0.000759829968
0.00227823894
-0.000875710796
0.00257966077
-0.00100185222
0.00290596424
-0.00113689871
0.00325587022
-0.00128326005
0.00363276006
-0.00144292296
0.00402184469
-0.00161109402
0.00442633233
-0.00181377147
0.00488081889
-0.00201826398
0.0053368075
-0.00217860384
0.00568893532
-0.00235544057
0.00601219157
-0.00254335809
0.00636872106
-0.00266437045
0.00666080205
-0.00277551833
0.00683542672
-0.00289624024
0.00696150685
-0.00301727006
0.00708708788
-0.00313747246
-0.00324499652
0.00720831273
-2.71623482e-08
3.76813109e-07
-1.16691849e-07
1.19864383e-06
-2.76155903e-07
2.11003508e-06
-5.10842046e-07
3.10339716e-06
-8.24408998e-07
4.17050339e-06
-1.21914286e-06
5.30360582e-06
-1.69628909e-06
6.49626593e-06
-2.25609347e-06
7.74345308e-06
-2.89839366e-06
9.04177884e-06
-3.62236877e-06
1.03885691e-05
-4.426493e-06
1.17817829e-05
-5.30844993e-06
1.32196787e-05
-6.26499608e-06
1.4700501e-05
-7.29179904e-06
1.62222313e-05
-8.38324051e-06
1.77823773e-05
-9.53218453e-06
1.93777916e-05
-1.0729726e-05
2.10045374e-05
-1.19649e-05
2.2657758e-05
-1.32243662e-05
2.43315648e-05
-1.44920282e-05
2.6018899e-05
-1.57485625e-05
2.77113726e-05
-1.69708971e-05
2.93991276e-05
-1.81316703e-05
3.10707417e-05
-1.91986913e-05
3.2713084e-05
-2.0134473e-05
3.43112667e-05
-2.08966926e-05
3.58494102e-05
-2.14379036e-05
3.73097191e-05
-2.17075691e-05
3.86743245e-05
-2.16383813e-05
3.99074476e-05
-2.11502644e-05
4.09794022e-05
-2.01457433e-05
4.18546689e-05
-1.85033053e-05
4.24888169e-05
-1.60839487e-05
4.28297411e-05
-1.27349362e-05
4.2820323e-05
-8.28053217e-06
4.23894241e-05
-2.52318739e-06
4.14521048e-05
4.74276283e-06
3.99402119e-05
1.37514934e-05
3.77524016e-05
2.47560952e-05
3.47794672e-05
3.80731833e-05
3.08825787e-05
5.40077031e-05
2.59640601e-05
7.27288587e-05
2.00414764e-05
9.48324598e-05
1.25274868e-05
0.000120862555
3.39131975e-06
0.000151475839
-7.44916029e-06
0.000187415661
-2.07115437e-05
0.000229543025
-3.66015112e-05
0.000278779895
-5.54759108e-05
0.000336410615
-7.77440894e-05
0.000403104966
-0.00010391413
0.000480083474
-0.000134494958
0.000568672131
-0.000170036513
0.00067022512
-0.000211162554
0.000786161045
-0.000258529363
0.000917901264
-0.00031273256
0.0010668688
-0.000374416379
0.00123443225
-0.0004442206
0.00142168634
-0.000522541944
0.00162965306
-0.000609931163
0.0018591458
-0.000706650446
0.00211109895
-0.000813486733
0.00238604225
-0.000930457207
0.00268439853
-0.00105816146
0.00300588541
-0.00119717417
0.00335174249
-0.00134768671
0.00371880858
-0.0015039429
0.00409702456
-0.00166145442
0.00448896631
-0.00183484318
0.00488757288
-0.00200967923
0.00525456606
-0.00218074444
0.00558290688
-0.0023465841
0.00588829018
-0.00248396157
0.00612890696
-0.0025960303
0.00629604864
-0.00271047333
0.00645249507
-0.00282078464
0.00660697366
-0.00292995807
0.00674209298
-0.00303131684
0.0068559227
-0.003131053
0.00694714766
-0.00322864642
-0.00332752984
0.00702972451
-2.54969798e-08
4.02719117e-07
-1.08357036e-07
1.28208489e-06
-2.54218955e-07
2.25656598e-06
-4.66369383e-07
3.31629715e-06
-7.46284161e-07
4.45124314e-06
-1.09408236e-06
5.65230242e-06
-1.50868787e-06
6.91184425e-06
-1.98789735e-06
8.22371222e-06
-2.52844233e-06
9.58345388e-06
-3.12635739e-06
1.09876994e-05
-3.77666556e-06
1.2433397e-05
-4.47325393e-06
1.39176697e-05
-5.20870914e-06
1.54374622e-05
-5.97411206e-06
1.69892504e-05
-6.75879642e-06
1.85687956e-05
-7.5500796e-06
2.01709341e-05
-8.33292901e-06
2.17893801e-05
-9.08956066e-06
2.34165254e-05
-9.79900427e-06
2.50432958e-05
-1.04367352e-05
2.66590784e-05
-1.09741398e-05
2.82513994e-05
-1.13788796e-05
2.98066758e-05
-1.16149634e-05
3.1309825e-05
-1.16393152e-05
3.27406371e-05
-1.13990269e-05
3.40743988e-05
-1.08318619e-05
3.52858955e-05
-9.86324402e-06
3.63450065e-05
-8.40207978e-06
3.72173399e-05
-6.35423454e-06
3.78640719e-05
-3.60744165e-06
3.82373837e-05
-2.83718934e-08
3.8280713e-05
4.53966585e-06
3.79262696e-05
1.0269726e-05
3.71055714e-05
1.73496183e-05
3.57467413e-05
2.59877265e-05
3.37580804e-05
3.64107962e-05
3.10362843e-05
4.89059683e-05
2.74528062e-05
6.3761e-05
2.29057046e-05
8.11555602e-05
1.7393869e-05
0.000101636253
1.04113699e-05
0.000125697717
1.91262724e-06
0.000153920689
-8.17065513e-06
0.000186969847
-2.05099202e-05
0.000225632494
-3.52587058e-05
0.000270943128
-5.27462366e-05
0.000323620177
-7.33740557e-05
0.00038461364
-9.75793806e-05
0.000454990941
-0.000125836509
0.000535921935
-0.000158657158
0.000628634958
-0.000196607933
0.000734431735
-0.000240271254
0.000854663661
-0.000290246805
0.000990682346
-0.000347158442
0.00114377699
-0.000411600061
0.00131521719
-0.000484147469
0.00150594323
-0.000565115682
0.00171666612
-0.000654916411
0.00194790686
-0.000753756964
0.00219989256
-0.000861892639
0.00247253241
-0.000979267461
0.00276563108
-0.00110656374
0.00307760616
-0.00124241162
0.00340702563
-0.00138756102
0.00374865706
-0.00153878628
0.00410278711
-0.00170179779
0.00446422185
-0.00186535879
0.00482364858
-0.00202086294
0.00515134414
-0.0021625221
0.00543636898
-0.00229468751
0.00566634749
-0.00241070252
0.00583884051
-0.00251905216
0.00598468214
-0.00262978051
0.00611824769
-0.00272957389
0.00623583448
-0.00282803248
0.00634302709
-0.00292794728
0.0064396552
-0.0030265532
0.006527556
-0.00311917816
0.0066155951
-0.00321904879
0.00671550182
-0.00332851879
-0.00342577372
0.00681377592
-2.8194184e-08
4.31340128e-07
-1.16943849e-07
1.37143823e-06
-2.69681594e-07
2.40999681e-06
-4.87389354e-07
3.53478008e-06
-7.69101958e-07
4.73380778e-06
-1.11222093e-06
5.99634807e-06
-1.51277488e-06
7.3134007e-06
-1.96567365e-06
8.67769241e-06
-2.46410102e-06
1.00830453e-05
-3.00019992e-06
1.15250495e-05
-3.56467473e-06
1.2999216e-05
-4.14662192e-06
1.45010602e-05
-4.73330412e-06
1.60256936e-05
-5.30987583e-06
1.75674844e-05
-5.85904478e-06
1.91197475e-05
-6.36071764e-06
2.06745183e-05
-6.79166286e-06
2.22223744e-05
-7.12507263e-06
2.3752132e-05
-7.3305324e-06
2.5251105e-05
-7.37202071e-06
2.67030762e-05
-7.20688765e-06
2.80889514e-05
-6.7854387e-06
2.93881048e-05
-6.04895613e-06
3.05764192e-05
-4.93292237e-06
3.1627885e-05
-3.36313386e-06
3.25081171e-05
-1.25173322e-06
3.31782409e-05
1.50466796e-06
3.359262e-05
5.02910243e-06
3.36972079e-05
9.45420315e-06
3.34435714e-05
1.49310884e-05
3.27654175e-05
2.16297857e-05
3.15872789e-05
2.97380155e-05
2.98236692e-05
3.94713812e-05
2.73782297e-05
5.10905103e-05
2.41340514e-05
6.48673366e-05
1.99881547e-05
8.099302e-05
1.49180036e-05
9.99598777e-05
8.49378112e-06
0.000122217478
6.56376226e-07
0.000148284738
-8.66446711e-06
0.000178762074
-2.00563206e-05
0.000214348812
-3.36637592e-05
0.000255974412
-4.97851574e-05
0.000304268518
-6.87921269e-05
0.000360104955
-9.10823964e-05
0.000424461506
-0.00011708913
0.000498379471
-0.000147277387
0.000582980275
-0.000182164491
0.000679454199
-0.000222293717
0.000789038308
-0.000268223574
0.000912990903
-0.000320541876
0.00105256488
-0.000379825614
0.00120894106
-0.000446602406
0.00138314997
-0.000521345659
0.00157586304
-0.000604290197
0.00178743058
-0.000695691825
0.00201793445
-0.00079559751
0.00226703056
-0.000903991722
0.00253429821
-0.00102100495
0.00281859617
-0.00114617189
0.00311816632
-0.00127881971
0.00343000587
-0.00141838598
0.00374908257
-0.00156147142
0.00407414856
-0.00171261037
0.00439701381
-0.0018616353
0.00470045443
-0.0020052232
0.00496980468
-0.00213469425
0.00520331077
-0.00225435361
0.00539306043
-0.00235225523
0.00554645964
-0.00244806656
0.00568090237
-0.00254512642
0.00579647662
-0.00263460824
0.00590076998
-0.00273404917
0.00599793655
-0.00282671513
0.00608360156
-0.00291367125
0.00616079132
-0.00300510632
0.00624031902
-0.00310605064
0.00632126663
-0.00320009589
0.00640694384
-0.00330468766
0.00651446813
-0.00343601012
-0.00354695062
0.00663567036
-3.27684279e-08
4.64565881e-07
-1.32624393e-07
1.47194204e-06
-3.004e-07
2.57851692e-06
-5.34293795e-07
3.76950685e-06
-8.30349582e-07
5.03077915e-06
-1.18272643e-06
6.34972037e-06
-1.58385813e-06
7.71560812e-06
-2.02449309e-06
9.11948688e-06
-2.49384915e-06
1.05536487e-05
-2.97894069e-06
1.20114802e-05
-3.46493419e-06
1.34866462e-05
-3.9346896e-06
1.4972356e-05
-4.36845279e-06
1.64611073e-05
-4.7435106e-06
1.79443105e-05
-5.03375233e-06
1.94118833e-05
-5.20906987e-06
2.08518591e-05
-5.23472581e-06
2.22501907e-05
-5.06996753e-06
2.35896865e-05
-4.66779241e-06
2.48514005e-05
-3.97634713e-06
2.60142635e-05
-2.93568988e-06
2.70511024e-05
-1.47509476e-06
2.79305088e-05
4.89116752e-07
2.86154131e-05
3.05216069e-06
2.90682607e-05
6.32002628e-06
2.92438984e-05
1.04126102e-05
2.90895466e-05
1.54652778e-05
2.85441013e-05
2.16295857e-05
2.75373241e-05
2.90878893e-05
2.5989986e-05
3.80458479e-05
2.38124904e-05
4.87408275e-05
2.08976631e-05
6.14278434e-05
1.71423818e-05
7.63015359e-05
1.25106672e-05
9.38016032e-05
6.64045988e-06
0.000114334716
-5.38123239e-07
0.000138361633
-9.10156529e-06
0.000166416455
-1.95531188e-05
0.000199117955
-3.20366409e-05
0.00023728602
-4.68234471e-05
0.000281491428
-6.42520017e-05
0.000332519453
-8.46813645e-05
0.000391250103
-0.000108504652
0.000458619013
-0.000136149078
0.000535634643
-0.000168085201
0.000623370245
-0.000204811043
0.000722950514
-0.00024684314
0.000835521351
-0.000294719971
0.000962221303
-0.00034897748
0.00110414237
-0.000410127615
0.00126224749
-0.000478629143
0.00143729442
-0.000554853724
0.00162967531
-0.000638963407
0.00183938803
-0.00073103822
0.00206605273
-0.000830935613
0.0023088218
-0.000938442658
0.00256658842
-0.00105334685
0.00283744839
-0.00117483523
0.00311916052
-0.00130270128
0.00340830004
-0.00143529612
0.00370255386
-0.00157305853
0.00399544537
-0.00171126261
0.0042796778
-0.0018456898
0.0045368141
-0.00196973371
0.00475964417
-0.00208445244
0.00494112891
-0.00218669394
0.005087006
-0.002280553
0.00520722228
-0.00237455185
0.00531904291
-0.00246406052
0.00542495627
-0.0025539578
0.00552430335
-0.00264445009
0.00561698675
-0.00272727501
0.00569751932
-0.00281456264
0.00577612058
-0.00290528994
0.00585378931
-0.00299131444
0.00593300819
-0.00308430184
0.00602155689
-0.00319457073
0.00611869524
-0.00329720401
0.00622160138
-0.00340756225
0.00632901673
-0.00354339617
-0.00366120718
0.00644329673
-3.62985161e-08
5.01313684e-07
-1.43514214e-07
1.5797929e-06
-3.19191598e-07
2.75492323e-06
-5.57998159e-07
4.00912835e-06
-8.52160441e-07
5.325837e-06
-1.19167991e-06
6.69021363e-06
-1.56442294e-06
8.08940369e-06
-1.95610627e-06
9.51230515e-06
-2.35031823e-06
1.09490829e-05
-2.72770402e-06
1.23901802e-05
-3.06617006e-06
1.38265243e-05
-3.34038755e-06
1.52480897e-05
-3.52135765e-06
1.66437026e-05
-3.57575373e-06
1.80004506e-05
-3.46490974e-06
1.93029122e-05
-3.14533718e-06
2.05342907e-05
-2.56723482e-06
2.16742322e-05
-1.67344312e-06
2.26981932e-05
-3.97130365e-07
2.35775512e-05
1.33799694e-06
2.42817707e-05
3.61782628e-06
2.47740909e-05
6.53945741e-06
2.50118915e-05
1.02121238e-05
2.49459689e-05
1.47635117e-05
2.45203149e-05
2.03405522e-05
2.36705344e-05
2.71104496e-05
2.23235739e-05
3.52620158e-05
2.0396725e-05
4.50115808e-05
1.77922271e-05
5.65966357e-05
1.44097041e-05
7.02107229e-05
1.02035075e-05
8.6243301e-05
4.87048315e-06
0.000105058637
-1.66725508e-06
0.000127068212
-9.49279154e-06
0.000152746626
-1.90313787e-05
0.000182639822
-3.04242912e-05
0.000217463231
-4.39174664e-05
0.000257736303
-5.9818166e-05
0.000304159386
-7.84511501e-05
0.000357517564
-0.000100172465
0.000418645591
-0.000125370234
0.000488444622
-0.00015446991
0.000567873556
-0.000187922411
0.000657932598
-0.000226196273
0.000759642113
-0.000269782189
0.000874016523
-0.000319172237
0.00100203146
-0.000374844177
0.00114456688
-0.000437240802
0.00130234769
-0.000506743024
0.00147585826
-0.000583622149
0.00166523204
-0.00066798603
0.00187014773
-0.000759752162
0.0020898621
-0.000858661118
0.00232315286
-0.000964313199
0.00256838753
-0.00107615533
0.00282330789
-0.00119334877
0.00308496689
-0.00131499219
0.00334982273
-0.00143967779
0.00361425314
-0.00156711864
0.00387409633
-0.00169512651
0.00411792379
-0.00181687406
0.00433298087
-0.0019263086
0.00451590617
-0.00202860387
0.00466392618
-0.00211774024
0.00478486444
-0.00220537337
0.00489150709
-0.00229332057
0.00499143494
-0.00238046657
0.00507898994
-0.0024620904
0.00516019566
-0.00254525006
0.00523393785
-0.00262768119
0.00530677285
-0.00271726354
0.00538165608
-0.00280213997
0.00545849156
-0.00289137843
0.00553795474
-0.00298472956
0.00562028701
-0.00307362166
0.00570740709
-0.00317139573
0.00579835749
-0.00328549353
0.005898328
-0.00339714645
0.00599827883
-0.00350748384
0.00608735033
-0.00363243824
-0.00374825972
0.00617442747
-3.5773143e-08
5.37586468e-07
-1.37709926e-07
1.68243732e-06
-2.99233156e-07
2.91725944e-06
-5.10564223e-07
4.22136871e-06
-7.59095496e-07
5.57536744e-06
-1.02953076e-06
6.961735e-06
-1.30387465e-06
8.36492065e-06
-1.56133332e-06
9.77102658e-06
-1.77793522e-06
1.11670429e-05
-1.9262358e-06
1.25399394e-05
-1.97469116e-06
1.38765443e-05
-1.88725219e-06
1.51623274e-05
-1.62281354e-06
1.63810578e-05
-1.13448273e-06
1.75140401e-05
-3.68599461e-07
1.85390855e-05
7.36341426e-07
1.9431549e-05
2.25056175e-06
2.01623624e-05
4.2536207e-06
2.06976452e-05
6.83520947e-06
2.09986449e-05
1.00993015e-05
2.10205429e-05
1.41643419e-05
2.07121071e-05
1.91650046e-05
2.0014489e-05
2.52536509e-05
1.88607991e-05
3.26025035e-05
1.71751683e-05
4.14080876e-05
1.48688974e-05
5.18894659e-05
1.18464049e-05
6.42349428e-05
8.05574322e-06
7.87875873e-05
3.24433396e-06
9.58730379e-05
-2.67073061e-06
0.000115859093
-9.77717764e-06
0.000139167202
-1.84318672e-05
0.000166276693
-2.87706053e-05
0.000197809673
-4.10192205e-05
0.000234236449
-5.54511694e-05
0.000276179029
-7.23594198e-05
0.000324334556
-9.20650483e-05
0.000379442615
-0.000114917745
0.000442299426
-0.000141298901
0.000513750984
-0.000171614375
0.000594678314
-0.000206287343
0.000685980128
-0.000245760916
0.000788550822
-0.000290481703
0.000903253541
-0.000340886989
0.00103087195
-0.000397387998
0.00117206158
-0.000460348672
0.00132729047
-0.000530059298
0.00149676805
-0.000606703976
0.00168036918
-0.000690329026
0.00187747631
-0.000780713679
0.00208702449
-0.000877518919
0.00230746532
-0.000980178514
0.00253681506
-0.00108799713
0.00277254208
-0.00120002719
0.00301144752
-0.00131504832
0.00324983431
-0.00143172352
0.00348317251
-0.00154831857
0.00370782415
-0.001664318
0.0039157088
-0.00177499262
0.00409653919
-0.00187594638
0.00424531267
-0.00196563634
0.00436741391
-0.00204839716
0.00447092703
-0.00213210491
0.00456705758
-0.00221385973
0.00465379981
-0.00229210331
0.00472877769
-0.00236828183
0.00479845176
-0.00245012329
0.00486536763
-0.0025289917
0.00493094364
-0.00261081099
0.00499562386
-0.00269234507
0.00505645215
-0.00277807236
0.00512553486
-0.00287120177
0.00520230202
-0.00296812341
0.00528462129
-0.003067025
0.00537239678
-0.00316137157
0.00545733729
-0.00325631023
0.00553299539
-0.00336112535
0.0056106804
-0.00347480486
0.00569070864
-0.00358748097
0.00577289627
-0.00371459425
-0.00383069112
0.00585534883
-2.95301013e-08
5.67592237e-07
-1.08424734e-07
1.76200524e-06
-2.24954947e-07
3.03456301e-06
-3.63732019e-07
4.36101092e-06
-5.06010519e-07
5.71859715e-06
-6.29695777e-07
7.08645583e-06
-7.09182986e-07
8.44552865e-06
-7.1511913e-07
9.7781715e-06
-6.13932213e-07
1.10671584e-05
-3.6746086e-07
1.229487e-05
6.79328553e-08
1.34426582e-05
7.41904338e-07
1.44899762e-05
1.71103733e-06
1.5413666e-05
3.03975983e-06
1.61871881e-05
4.80081359e-06
1.67800395e-05
7.07782317e-06
1.71566934e-05
9.96560887e-06
1.72768887e-05
1.35719017e-05
1.70938328e-05
1.80188096e-05
1.6554396e-05
2.34445178e-05
1.55976833e-05
3.00052192e-05
1.41544564e-05
3.78785098e-05
1.21444616e-05
4.72645625e-05
9.47824048e-06
5.83439499e-05
6.09952486e-06
7.14169618e-05
1.79986114e-06
8.67738231e-05
-3.50624187e-06
0.000104742426
-9.90833846e-06
0.000125695802
-1.77041894e-05
0.000150053625
-2.70233698e-05
0.000178353977
-3.80719961e-05
0.000211020729
-5.10927128e-05
0.000248604204
-6.63477796e-05
0.000291716793
-8.41250915e-05
0.000341011125
-0.000104738339
0.000397187535
-0.000128528186
0.000460988696
-0.000155858079
0.000533188252
-0.000187108692
0.000614576362
-0.000222677917
0.000705940997
-0.000262969425
0.000808045051
-0.000308381319
0.000921586796
-0.000359292091
0.00104715931
-0.00041604316
0.00118520168
-0.000478917826
0.00133594241
-0.000548116735
0.00149933499
-0.000623728804
0.00167498225
-0.000705693594
0.00186204488
-0.00079375305
0.00205918
-0.000887450579
0.00226457836
-0.000986099133
0.00247598911
-0.00108891744
0.00269070151
-0.00119487929
0.00290547048
-0.00130275503
0.00311652295
-0.00141106903
0.00331974645
-0.00151826152
0.00351082153
-0.00162278858
0.00368589902
-0.00172338644
0.00383838798
-0.00181679718
0.00396490132
-0.00190149456
0.00406793366
-0.00197896821
0.00415809927
-0.00205579266
0.0042406002
-0.00213088657
0.00431336845
-0.00220485956
0.00437915688
-0.00227963237
0.00444195604
-0.00235488764
0.00450377016
-0.00243008271
0.00456050198
-0.00250683944
0.00461860799
-0.00258708069
0.00467552019
-0.00266770175
0.00473765346
-0.00275445706
0.00480310368
-0.00284350479
0.0048750046
-0.00294308197
0.00495020931
-0.00304330552
0.00502768659
-0.00314447579
0.00510729901
-0.00324095793
0.00518762052
-0.00333660986
0.00526138745
-0.00343486949
0.00533404201
-0.00354743245
0.00541073913
-0.00366414752
0.00549584701
-0.00379967567
-0.0039206851
0.00558585677
-1.70530701e-08
5.85184754e-07
-5.31829378e-08
1.79889782e-06
-8.99926289e-08
3.07224824e-06
-1.04881225e-07
4.37687836e-06
-7.12159087e-08
5.68600737e-06
4.17909781e-08
6.9746189e-06
2.69406836e-07
8.21917784e-06
6.51866958e-07
9.39707422e-06
1.23481357e-06
1.04856772e-05
2.06990104e-06
1.14613565e-05
3.21572445e-06
1.22985241e-05
4.73878462e-06
1.29687284e-05
6.71449274e-06
1.34399002e-05
9.22881449e-06
1.36749469e-05
1.23789139e-05
1.36321703e-05
1.6274917e-05
1.32630802e-05
2.1041295e-05
1.25130695e-05
2.68183667e-05
1.13194996e-05
3.37655677e-05
9.61012328e-06
4.20633408e-05
7.3030439e-06
5.1882394e-05
4.33875931e-06
6.34830976e-05
5.47324804e-07
7.71225393e-05
-4.15741564e-06
9.30913873e-05
-9.86526519e-06
0.000111718329
-1.68227287e-05
0.000133369773
-2.51530371e-05
0.000158509379
-3.50429806e-05
0.000187517671
-4.67071814e-05
0.000220879031
-6.03790742e-05
0.000259128391
-7.63153226e-05
0.000302837996
-9.47958811e-05
0.000352621231
-0.000116124144
0.000409128235
-0.000140624778
0.000473036856
-0.000168639196
0.000545041077
-0.000200524192
0.000625835789
-0.000236644114
0.000716097534
-0.000277361295
0.000816453682
-0.000323024455
0.000927448605
-0.000373954273
0.0010495037
-0.00043042588
0.00118287114
-0.000492648555
0.0013275821
-0.000560742709
0.00148339068
-0.000634714594
0.00164971459
-0.000714428415
0.00182556834
-0.000799569848
0.00200946912
-0.00088958136
0.00219944225
-0.000983713469
0.00239308822
-0.0010810845
0.00258768096
-0.00118068044
0.00278021449
-0.0012814401
0.00296713682
-0.00138179124
0.00314518533
-0.00148079362
0.00331060451
-0.00157647864
0.00346005148
-0.00166769916
0.00359060347
-0.00175333117
0.00370095615
-0.00183372938
0.00379124552
-0.00190707771
0.00386820716
-0.00197844771
0.00393863523
-0.00204938619
0.00400327216
-0.00212041776
0.00406408213
-0.00219168355
0.00412153292
-0.00226229722
0.00417697349
-0.00233506059
0.00423071732
-0.00240861834
0.00428709917
-0.00248645053
0.0043457399
-0.00256546629
0.00440690688
-0.00264823059
0.00447032635
-0.00273110363
0.00453362647
-0.0028177386
0.00460024118
-0.00291009982
0.00466544213
-0.00300826147
0.0047301579
-0.00310799681
0.00479514826
-0.00320944345
0.00486390858
-0.00330969454
0.00494042653
-0.00341310279
0.00502397973
-0.00351839929
0.00511035771
-0.00363378411
0.00519465073
-0.00374841746
0.00527208268
-0.00387708816
-0.0039937997
0.00534521598
2.24394207e-09
5.83444047e-07
3.05505174e-08
1.77130249e-06
1.11662444e-07
2.99195288e-06
2.77213565e-07
4.21224091e-06
5.63684121e-07
5.40054217e-06
1.0126648e-06
6.52673341e-06
1.67128675e-06
7.56174224e-06
2.59290466e-06
8.47673745e-06
3.83784857e-06
9.24211474e-06
5.47431628e-06
9.82637721e-06
7.57931376e-06
1.01951286e-05
1.02403205e-05
1.03094451e-05
1.35559233e-05
1.01261533e-05
1.76374412e-05
9.59542736e-06
2.26106081e-05
8.66115364e-06
2.86171028e-05
7.25889746e-06
3.58173029e-05
5.31535682e-06
4.43702621e-05
2.7692181e-06
5.44995697e-05
-5.16320256e-07
6.64317072e-05
-4.62603421e-06
8.04221771e-05
-9.64841641e-06
9.67584472e-05
-1.57853985e-05
0.000115758819
-2.31539824e-05
0.00013782009
-3.19224546e-05
0.000163282185
-4.22804493e-05
0.000192568913
-5.44350789e-05
0.00022614507
-6.86141207e-05
0.000264509467
-8.50662104e-05
0.000308196631
-0.000104060493
0.000357773377
-0.000125885932
0.000413831749
-0.000150847721
0.000476979775
-0.000179265237
0.00054782925
-0.000211466912
0.000626980101
-0.000247782292
0.00071499684
-0.000288532762
0.00081238116
-0.00033401985
0.00091953983
-0.000384510976
0.00103674751
-0.000440222749
0.0011641047
-0.000501301705
0.00130149242
-0.000567803472
0.00144852469
-0.000639670375
0.00160450208
-0.000716709351
0.00176836943
-0.000798570882
0.00193867827
-0.000884725825
0.00211352029
-0.000974400354
0.00229056866
-0.00106661862
0.00246719127
-0.00116032553
0.00264059517
-0.00125447837
0.00280785861
-0.00134793427
0.00296655847
-0.00144013067
0.00311381861
-0.00152904262
0.00324608115
-0.00161304815
0.00336107969
-0.00169146954
0.00345878355
-0.00176539542
0.00354157731
-0.00183611801