/*--------------------------------*- C++ -*----------------------------------*\
  =========                 |
  \\      /  F ield         | OpenFOAM: The Open Source CFD Toolbox
   \\    /   O peration     | Website:  https://openfoam.org
    \\  /    A nd           | Version:  8
     \\/     M anipulation  |
\*---------------------------------------------------------------------------*/
FoamFile
{
    version     2.0;
    format      ascii;
    class       volScalarField;
    location    "0.032";
    object      T;
}
// * * * * * * * * * * * * * * * * * * * * * * * * * * * * * * * * * * * * * //

dimensions      [0 0 0 1 0 0 0];

internalField   nonuniform List<scalar> 
42400
(
472.223446
470.653145
469.041546
467.387686
465.690645
463.949566
462.163667
460.332256
458.454754
456.530712
454.559835
452.54201
450.477328
448.366123
446.208998
444.006863
441.760975
439.472973
437.144921
434.779349
432.379289
429.948319
427.490596
425.010884
422.514588
420.00776
417.497117
414.990031
412.494517
410.019196
407.573249
405.166351
402.808589
400.510365
398.282282
396.13503
394.079249
392.125372
390.2835
388.563304
386.973887
385.523589
384.219838
383.069054
382.076538
381.246338
380.581203
380.082515
379.750198
379.582602
379.577238
379.728874
380.030957
380.473951
381.045339
381.728945
382.506208
383.350695
384.220216
385.08575
385.957584
386.692627
387.05426
386.997163
386.478731
385.684524
384.600165
383.149514
381.17364
378.647539
375.561883
371.537032
367.215826
363.07345
357.320037
349.964633
342.898836
338.091378
330.171683
325.045246
472.255437
470.749825
469.204631
467.618946
465.991911
464.322733
462.610695
460.855182
459.055691
457.211859
455.323481
453.390539
451.413229
449.391991
447.327545
445.220924
443.073515
440.887095
438.663874
436.406536
434.118279
431.802853
429.464598
427.108472
424.740081
422.365696
419.992257
417.627379
415.279328
412.956995
410.669855
408.427901
406.241566
404.121624
402.079081
400.125062
398.270691
396.526922
394.904379
393.413139
392.062509
390.860761
389.814932
388.930653
388.211949
387.661037
387.278022
387.06083
387.004785
387.102381
387.344848
387.716311
388.199521
388.770123
389.391918
390.032061
390.666779
391.306335
391.643179
391.624312
391.285611
390.492522
389.459153
388.110425
386.380864
384.113701
381.276818
377.836505
373.710092
368.989189
363.883918
357.984668
351.567065
345.600262
339.446656
332.11588
325.004888
318.621483
312.99436
308.651201
472.297242
470.876167
469.41776
467.921189
466.38568
464.81053
463.195124
461.53895
459.84162
458.102891
456.32269
454.501133
452.638561
450.735567
448.79303
446.812151
444.794488
442.742
440.657082
438.542609
436.401975
434.239127
432.058607
429.865574
427.665837
425.465864
423.272795
421.094434
418.939234
416.816263
414.735149
412.706027
410.739455
408.846324
407.03772
405.324776
403.71846
402.229331
400.867281
399.641216
398.558807
397.626185
396.847608
396.225028
395.757828
395.443168
395.274598
395.241897
395.327046
395.517425
395.781428
396.091382
396.425164
396.778525
396.92372
396.838167
396.423189
395.58926
394.560053
393.2597
391.619435
389.520125
386.88949
383.697639
379.953948
375.663194
370.832615
365.483829
359.601373
353.244195
346.777259
340.196616
333.357692
326.873731
320.956714
315.395936
310.313029
305.76524
302.191173
300.272227
472.34563
471.022406
469.664457
468.27105
466.841514
465.375262
463.871801
462.330756
460.751883
459.135098
457.48049
455.788356
454.059224
452.293885
450.493422
448.659253
446.793157
444.897321
442.974371
441.027412
439.060067
437.076508
435.08149
433.080369
431.079129
429.084385
427.103381
425.143984
423.214657
421.324409
419.482726
417.699479
415.984803
414.348923
412.801952
411.353647
410.013098
408.788448
407.686545
406.712543
405.869487
405.157985
404.576208
404.11845
403.774745
403.531547
403.371803
403.27708
403.232002
403.167686
402.981719
402.620942
402.021407
401.101424
400.012875
398.690845
397.070023
395.064225
392.582966
389.592182
386.069566
382.012154
377.445649
372.392994
366.906132
361.055098
354.899182
348.486897
341.917314
335.269036
328.790348
322.7115
317.060876
312.016703
307.717902
304.264424
301.520494
300.255139
299.982159
299.913597
472.396936
471.17747
469.926056
468.64207
467.324963
465.97428
464.589672
463.17092
461.71795
460.230855
458.709918
457.15564
455.568761
453.950296
452.30156
450.624205
448.920249
447.192113
445.44265
443.675184
441.893528
440.102019
438.305532
436.509496
434.719897
432.943267
431.18666
429.45761
427.764062
426.114274
424.516697
422.979809
421.511912
420.120877
418.813883
417.597081
416.475223
415.45125
414.52589
413.697456
412.961013
412.308603
411.730222
411.213415
410.73248
410.222142
409.640923
408.939782
408.060323
407.004713
405.794857
404.379959
402.705917
400.702325
398.290079
395.433486
392.10459
388.287886
383.985852
379.217026
374.023712
368.448228
362.534839
356.351128
349.975562
343.543789
337.162821
330.921585
324.923567
319.304113
314.200035
309.778159
306.131506
303.425883
301.297074
300.171938
299.939423
299.875394
299.867984
299.874065
472.447085
471.329044
470.181788
469.004815
467.797707
466.56015
465.291947
463.993039
462.663524
461.303674
459.913961
458.495077
457.04796
455.573821
454.074168
452.550835
451.006007
449.442246
447.862514
446.270191
444.669089
443.063459
441.457988
439.857783
438.268339
436.695497
435.145366
433.624228
432.138406
430.69411
429.29724
427.953153
426.66639
425.440364
424.277032
423.176558
422.137126
421.154435
420.221768
419.323045
418.436031
417.533779
416.584785
415.552407
414.409801
413.165329
411.782648
410.222113
408.437915
406.368555
403.96115
401.180564
397.996727
394.388038
390.344248
385.867421
380.974685
375.696064
370.089193
364.202513
358.088689
351.823861
345.478629
339.15778
332.960054
327.029711
321.474004
316.41524
311.936334
308.135058
305.097996
302.808343
301.227483
300.182409
299.942499
299.891242
299.874798
299.87057
299.863613
299.863053
472.491516
471.463347
470.408412
469.326331
468.216814
467.079679
465.914866
464.722454
463.50268
462.255952
460.982871
459.684253
458.361141
457.014831
455.646885
454.259153
452.853783
451.433231
450.000269
448.557977
447.109736
445.6592
444.210262
442.76699
441.333561
439.914149
438.512805
437.133299
435.778924
434.452284
433.155034
431.887584
430.648786
429.435674
428.243008
427.062951
425.88182
424.682654
423.445737
422.157382
420.798189
419.344877
417.770277
416.042172
414.120092
411.959009
409.525284
406.786681
403.713659
400.282045
396.47499
392.284388
387.712025
382.771058
377.486951
371.896159
366.059573
360.027671
353.861673
347.631926
341.423265
335.328065
329.446308
323.874217
318.71483
314.083607
310.073885
306.771075
304.193303
302.304552
301.041015
300.2544
299.963763
299.899785
299.879799
299.875059
299.868994
299.855385
299.838154
299.828719
472.525373
471.565704
470.581165
469.571483
468.53647
467.476042
466.390225
465.279174
464.143184
462.982701
461.798337
460.590882
459.36131
458.110793
456.840706
455.552623
454.248317
452.929752
451.599054
450.258488
448.910412
447.557213
446.201234
444.844672
443.489459
442.137113
440.788568
439.443968
438.102445
436.761885
435.418711
434.0676
432.701194
431.309872
429.881388
428.400687
426.85283
425.219509
423.47827
421.600805
419.560301
417.328897
414.87809
412.179798
409.207669
405.937939
402.351073
398.433031
394.176551
389.582277
384.659694
379.427978
373.916451
368.165703
362.232117
356.174169
350.052675
343.932866
337.897259
332.039529
326.462931
321.246757
316.495486
312.290885
308.711135
305.804656
303.575092
301.975847
300.919073
300.302515
299.994059
299.919061
299.893634
299.883089
299.870172
299.854603
299.834012
299.815746
299.807242
299.80364
472.544077
471.622266
470.676665
469.707068
468.713338
467.695418
466.653338
465.587226
464.497309
463.383918
462.247495
461.088594
459.907872
458.7061
457.484143
456.242944
454.983506
453.70686
452.41402
451.105929
449.783395
448.446996
447.096979
445.733118
444.354565
442.959659
441.545707
440.108666
438.642703
437.140303
435.593111
433.990936
432.321628
430.570941
428.722548
426.758181
424.657843
422.400083
419.962442
417.322068
414.456544
411.344803
407.967608
404.308777
400.356173
396.102712
391.547323
386.69586
381.562034
376.167873
370.544419
364.732339
358.782862
352.761833
346.730962
340.75848
334.921674
329.309397
324.012039
319.119129
314.722639
310.891635
307.688428
305.129059
303.189327
301.810738
300.905235
300.367355
300.086763
299.962585
299.922342
299.899567
299.880598
299.858039
299.834133
299.816115
299.811593
299.807907
299.805781
299.804687
472.544347
471.623104
470.678116
469.709175
468.716126
467.698865
466.657343
465.591568
464.501599
463.387545
462.249559
461.087819
459.902518
458.69383
457.461898
456.206809
454.928543
453.626921
452.30153
450.951632
449.576046
448.173012
446.74001
445.27353
443.768105
442.217183
440.614492
438.952767
437.22389
435.418461
433.524634
431.529035
429.416836
427.171885
424.776933
422.213957
419.464589
416.510642
413.334784
409.92097
406.25529
402.326752
398.128085
393.656564
388.91483
383.911712
378.663008
373.192172
367.531135
361.720444
355.810117
349.86158
343.943976
338.12791
332.490532
327.116031
322.090523
317.502893
313.427346
309.924385
307.027622
304.736104
303.012181
301.788686
300.976982
300.478996
300.197788
300.051138
299.973635
299.92539
299.888291
299.855791
299.831361
299.818283
299.814939
299.812726
299.810543
299.807359
299.805354
299.804253
472.526841
471.570242
470.589045
469.583042
468.552042
467.495866
466.414346
465.307315
464.174596
463.016003
461.831321
460.620299
459.382253
458.115627
456.818582
455.489842
454.127805
452.730479
451.295408
449.819599
448.299456
446.730708
445.108416
443.426964
441.680786
439.863466
437.966188
435.978864
433.890313
431.68827
429.359456
426.889718
424.264245
421.467854
418.485355
415.302004
411.903931
408.278694
404.415902
400.307881
395.950377
391.343309
386.49155
381.405746
376.103157
370.608483
364.954469
359.182369
353.342417
347.493744
341.705984
336.053849
330.614568
325.468004
320.694993
316.372771
312.567841
309.326946
306.668583
304.574468
302.997213
301.865802
301.096232
300.599855
300.29512
300.111799
300.001138
299.929956
299.877865
299.840559
299.820145
299.809101
299.809672
299.812169
299.813085
299.81151
299.809086
299.805659
299.800941
299.800995
472.490012
471.458964
470.401379
469.316962
468.205389
467.066288
465.899226
464.703456
463.477559
462.220455
460.93085
459.607189
458.247978
456.85215
455.41839
453.944188
452.426609
450.862242
449.247125
447.57671
445.845784
444.048378
442.177779
440.226455
438.185973
436.047024
433.7994
431.432045
428.933146
426.29027
423.490556
420.520962
417.368583
414.021017
410.466772
406.695748
402.69979
398.473298
394.01391
389.323241
384.40768
379.279236
373.956406
368.465044
362.839193
357.121596
351.363626
345.624911
339.972995
334.481942
329.231374
324.29809
319.754438
315.663164
312.078871
309.03455
306.537626
304.563246
303.062582
301.967997
301.201989
300.686019
300.350516
300.134947
299.999601
299.908221
299.855692
299.828061
299.816114
299.812886
299.808533
299.808221
299.807674
299.80634
299.803845
299.801786
299.800816
299.799313
299.793745
299.792707
472.435044
471.29284
470.121105
468.919365
467.687046
466.423455
465.127159
463.797126
462.43265
461.032281
459.594315
458.116768
456.597337
455.033362
453.42177
451.759023
450.041068
448.263289
446.420433
444.506613
442.515241
440.438978
438.269748
435.998734
433.6164
431.112541
428.476364
425.696612
422.761732
419.660092
416.380267
412.911372
409.243426
405.367806
401.277775
396.96908
392.440635
387.695271
382.740558
377.589661
372.26222
366.785179
361.193521
355.530836
349.849584
344.210456
338.680961
333.333258
328.242145
323.482371
319.121113
315.211667
311.79568
308.895597
306.509914
304.611798
303.151621
302.066042
301.286595
300.745855
300.382818
300.145605
299.994935
299.898172
299.846136
299.831312
299.82435
299.819279
299.815042
299.812086
299.808149
299.803384
299.799251
299.796323
299.794764
299.79213
299.790339
299.789749
299.78966
299.790178
472.366516
471.085738
469.771736
468.423855
467.041281
465.62286
464.167596
462.674079
461.14064
459.565315
457.945808
456.279454
454.563185
452.793482
450.966333
449.077192
447.120948
445.091886
442.98364
440.789189
438.500851
436.110282
433.608509
430.985977
428.232627
425.338016
422.291467
419.082274
415.700004
412.134761
408.377561
404.420774
400.258647
395.887903
391.308428
386.524027
381.54324
376.380201
371.055474
365.596834
360.039885
354.428428
348.814464
343.257748
337.824651
332.585862
327.613289
322.97613
318.736329
314.944039
311.633647
308.819655
306.496356
304.636269
303.193921
302.111296
301.32525
300.773572
300.399739
300.155936
300.003632
299.913079
299.861147
299.846311
299.837611
299.828291
299.822549
299.818138
299.813626
299.809199
299.805439
299.802401
299.799173
299.796333
299.794234
299.792374
299.790821
299.790707
299.790807
299.793265
472.287587
470.847206
469.369371
467.853242
466.297766
464.70164
463.063476
461.381475
459.653509
457.877088
456.04932
454.166873
452.225943
450.222213
448.150816
446.006305
443.782629
441.473121
439.07049
436.566834
433.953659
431.221942
428.362196
425.364592
422.219101
418.91573
415.444756
411.797016
407.964279
403.939681
399.718255
395.297523
390.678182
385.864849
380.866863
375.699103
370.382787
364.946165
359.425045
353.863027
348.311348
342.828177
337.47726
332.325898
327.44208
322.890957
318.730999
315.009385
311.757101
308.986642
306.689346
304.836543
303.384405
302.279774
301.465357
300.884678
300.485597
300.222199
300.055797
299.955867
299.899292
299.869214
299.854803
299.845223
299.836708
299.828181
299.820858
299.814934
299.809714
299.805133
299.802063
299.799312
299.796872
299.794419
299.792787
299.792617
299.793134
299.794927
299.798764
299.801728
472.200179
470.58305
468.923785
467.221348
465.474428
463.681535
461.840903
459.950329
458.007219
456.00855
453.950835
451.830085
449.641777
447.380829
445.041572
442.617744
440.102478
437.488318
434.767247
431.930736
428.969821
425.875217
422.637471
419.247196
415.695277
411.973179
408.073312
403.98947
399.717348
395.255131
390.604163
385.76967
380.761534
375.595066
370.291743
364.879836
359.394846
353.879644
348.384198
342.964778
337.682582
332.601642
327.785934
323.295934
319.184783
315.494966
312.255347
309.477721
307.155374
305.262804
303.761716
302.604567
301.737402
301.106576
300.661204
300.356992
300.156092
300.02779
299.948076
299.900096
299.871536
299.854034
299.841642
299.833641
299.827601
299.822492
299.818047
299.813296
299.808463
299.80344
299.799376
299.797519
299.796397
299.79454
299.792609
299.792725
299.79782
299.801209
299.805234
299.810304
472.105504
470.296923
468.441134
466.536925
464.582803
462.57697
460.517221
458.400933
456.225028
453.985941
451.679585
449.301323
446.845949
444.307669
441.680103
438.956293
436.128733
433.189417
430.129919
426.941501
423.615284
420.142442
416.514427
412.723266
408.761928
404.624745
400.307923
395.810109
391.133037
386.282222
381.267688
376.104704
370.814457
365.424632
359.969778
354.491394
349.037612
343.662378
338.424022
333.383185
328.600264
324.132248
320.029177
316.330598
313.06215
310.23509
307.844669
305.870472
304.279329
303.02906
302.072039
301.359104
300.843632
300.481307
300.234343
300.071523
299.968316
299.905197
299.865635
299.844613
299.833118
299.826924
299.82372
299.821426
299.819412
299.81552
299.811692
299.807588
299.803581
299.799334
299.795422
299.793002
299.793236
299.794397
299.793679
299.792572
299.797952
299.80149
299.802891
299.805871
472.004548
469.991812
467.926473
465.807121
463.631999
461.398953
459.105396
456.748266
454.323994
451.828476
449.257045
446.604462
443.864907
441.03199
438.09878
435.05785
431.901353
428.621127
425.208869
421.656304
417.95541
414.098712
410.079626
405.892875
401.534968
397.004749
392.304007
387.438135
382.416819
377.254724
371.972131
366.595465
361.15764
355.698124
350.262637
344.902373
339.672692
334.631203
329.835237
325.338876
321.190025
317.426756
314.074898
311.147134
308.643886
306.550025
304.838152
303.472874
302.41138
301.607836
301.016805
300.59547
300.304883
300.111925
299.988557
299.912904
299.869119
299.845761
299.838559
299.833412
299.829569
299.826621
299.824019
299.820551
299.816475
299.811254
299.80424
299.798173
299.7931
299.789352
299.787052
299.78636
299.787169
299.791496
299.797565
299.797508
299.797668
299.802158
299.801122
299.800197
471.898242
469.670522
467.38448
465.038476
462.63047
460.157972
457.618008
455.007085
452.321163
449.555639
446.705336
443.764512
440.726884
437.585669
434.33365
430.963281
427.466844
423.836605
420.065033
416.145075
412.070481
407.836197
403.43882
398.877109
394.152567
389.270055
384.238448
379.071274
373.787326
368.411163
362.973448
357.511038
352.06674
346.688641
341.428953
336.342345
331.483802
326.906046
322.656639
318.775184
315.290803
312.220251
309.568127
307.325766
305.472642
303.977918
302.801361
301.899891
301.229891
300.747556
300.411985
300.186772
300.041287
299.951244
299.89825
299.868523
299.852335
299.843399
299.836829
299.831484
299.825952
299.820788
299.816154
299.811668
299.806729
299.80242
299.800009
299.796233
299.792066
299.789496
299.787692
299.786613
299.786788
299.78915
299.7955
299.802856
299.803059
299.806287
299.810665
299.813727
471.787591
469.336088
466.820295
464.23833
461.587862
458.866074
456.069621
453.194614
450.236601
447.190568
444.050955
440.81169
437.466253
434.007756
430.429091
426.723072
422.882641
418.901115
414.772495
410.491832
406.055643
401.462404
396.713081
391.811722
386.766068
381.588174
376.294992
370.908871
365.45792
359.976152
354.503333
349.084471
343.768865
338.608674
333.657026
328.96579
324.583148
320.551045
316.902776
313.660879
310.83515
308.421536
306.402931
304.75136
303.431087
302.402178
301.621372
301.044113
300.629313
300.341427
300.148594
300.023942
299.946146
299.898676
299.870041
299.852701
299.84158
299.833801
299.827836
299.822452
299.816949
299.811617
299.807027
299.803693
299.801915
299.801662
299.800903
299.799918
299.798445
299.795962
299.794703
299.792734
299.792044
299.790125
299.791945
299.805766
299.81195
299.815545
299.826609
299.832466
472.59817
471.785637
470.951823
470.096254
469.218441
468.317884
467.394067
466.446459
465.474512
464.477659
463.455309
462.406845
461.33162
460.228952
459.098117
457.938349
456.748826
455.528668
454.276928
452.992583
451.674527
450.321557
448.932364
447.50552
446.039466
444.532511
442.98283
441.388464
439.747321
438.057062
436.313991
434.513754
432.652739
430.726971
428.731901
426.6623
424.514711
422.287371
419.975271
417.572796
415.074487
412.475176
409.77023
406.95545
404.027074
400.982167
397.819009
394.537497
391.13955
387.629534
384.014728
380.305797
376.517206
372.667478
368.779223
364.883939
361.022709
357.243126
353.598292
350.144859
346.939956
344.037054
341.480848
339.301339
337.507643
336.083445
334.987068
334.157308
333.522189
333.006969
332.538739
332.044004
331.45585
330.729554
329.844487
328.803648
327.633674
326.372863
325.057333
323.732179
472.601092
471.794479
470.966764
470.117498
469.246223
468.352468
467.435756
466.495596
465.531482
464.542895
463.529296
462.490123
461.424791
460.332681
459.213143
458.065485
456.88897
455.68281
454.446158
453.178101
451.877648
450.543727
449.175168
447.770694
446.32891
444.848286
443.327147
441.763653
440.155785
438.501325
436.797835
435.042671
433.233019
431.365913
429.438278
427.44702
425.386492
423.248564
421.02768
418.718192
416.313608
413.806466
411.196303
408.482625
405.658881
402.719906
399.662105
396.483909
393.185938
389.770587
386.242822
382.610931
378.887109
375.087862
371.234204
367.351541
363.476029
359.651775
355.92964
352.366155
349.021384
345.955392
343.223001
340.866943
338.910656
337.35308
336.166793
335.298293
334.66948
334.182824
333.731461
333.214477
332.555787
331.712645
330.678179
329.483394
328.190586
326.873631
325.600064
324.411628
472.60083
471.7937
470.965486
470.115766
469.244108
468.350079
467.433235
466.493127
465.529296
464.54127
463.528562
462.490668
461.427066
460.337207
459.220516
458.076385
456.904169
455.703181
454.472683
453.211882
451.919921
450.595866
449.238705
447.847325
446.420511
444.956925
443.455098
441.913413
440.330088
438.703171
437.030518
435.309795
433.538465
431.71371
429.832352
427.890948
425.885761
423.812824
421.668099
419.447558
417.147301
414.763778
412.285672
409.701405
407.005751
404.19245
401.254328
398.190058
395.011449
391.716153
388.304041
384.779513
381.151662
377.434682
373.647695
369.813792
365.96111
362.128831
358.364154
354.721794
351.262727
348.051371
345.151248
342.618854
340.496177
338.802385
337.524835
336.611406
335.97014
335.481226
335.018091
334.468908
333.751327
332.821843
331.678683
330.35907
328.933122
327.489802
326.127584
324.926763
472.597149
471.782588
470.946779
470.089318
469.209803
468.307827
467.382984
466.434864
465.463051
464.467122
463.446647
462.401182
461.330271
460.233442
459.110202
457.960038
456.782408
455.576741
454.342427
453.078817
451.785209
450.460845
449.104897
447.716462
446.29454
444.838029
443.345702
441.816191
440.247968
438.639316
436.988312
435.292791
433.550323
431.758247
429.913743
428.013705
426.054738
424.033173
421.94509
419.78635
417.552635
415.23966
412.842066
410.354793
407.773403
405.094289
402.31514
399.428523
396.415078
393.273093
390.002735
386.60506
383.083178
379.454872
375.75332
371.990373
368.188993
364.380994
360.609572
356.92741
353.396795
350.084365
347.060204
344.392497
342.138317
340.331127
338.967254
337.996893
337.325895
336.828989
336.369099
335.817805
335.074446
334.081485
332.837168
331.403746
329.898383
328.450197
327.152485
326.012166
472.589797
471.760381
470.909357
470.03634
469.140947
468.222801
467.281526
466.316746
465.328087
464.315171
463.277615
462.215034
461.127031
460.013203
458.873135
457.706398
456.512547
455.291116
454.041618
452.763534
451.456313
450.119362
448.752037
447.353638
445.923392
444.460446
442.963847
441.43253
439.865298
438.260799
436.617508
434.933702
433.20743
431.436494
429.618414
427.750401
425.829326
423.851689
421.813598
419.710749
417.538435
415.291098
412.964085
410.55251
408.051411
405.455936
402.761539
399.96425
397.060439
394.04708
390.923655
387.692106
384.357358
380.916332
377.359178
373.709463
369.992582
366.239431
362.489312
358.789447
355.234275
351.878531
348.792527
346.052218
343.724266
341.850992
340.438366
339.446608
338.787921
338.333265
337.929047
337.422239
336.688292
335.659596
334.35008
332.85525
331.308915
329.822982
328.451685
327.196637
472.578444
471.726083
470.851545
469.954457
469.034457
468.09119
467.124308
466.133467
465.11833
464.078559
463.013817
461.923769
460.808077
459.666401
458.498395
457.303709
456.081986
454.83286
453.55595
452.25086
450.917175
449.554452
448.162217
446.739956
445.287103
443.803033
442.287048
440.738363
439.156086
437.539203
435.886557
434.196822
432.46848
430.699792
428.888764
427.033123
425.130275
423.177281
421.170818
419.107155
416.982141
414.791198
412.529344
410.191212
407.771101
405.263062
402.660985
399.958594
397.149367
394.230674
391.200624
388.058861
384.807307
381.450894
377.998758
374.46375
370.866756
367.237266
363.613727
360.047353
356.563002
353.240484
350.155387
347.406339
345.082903
343.226321
341.845052
340.900454
340.300241
339.903991
339.542306
339.046403
338.280832
337.182117
335.785455
334.206383
332.582601
331.021918
329.582748
328.286188
472.562814
471.678863
470.771938
469.841676
468.887729
467.909759
466.907442
465.880461
464.828508
463.75128
462.648483
461.519824
460.365015
459.183773
457.975816
456.740864
455.478638
454.188861
452.87125
451.525521
450.151379
448.74852
447.316622
445.85534
444.3643
442.843088
441.291241
439.708234
438.093468
436.44625
434.765778
433.051114
431.301167
429.514662
427.690108
425.825761
423.919592
421.969248
419.972014
417.924778
415.823995
413.665662
411.445295
409.157934
406.798166
404.360184
401.837897
399.225105
396.515766
393.70436
390.786296
387.758476
384.620014
381.373544
378.020179
374.57661
371.064483
367.513156
363.961852
360.461524
357.074783
353.876366
350.95327
348.367243
346.153254
344.416075
343.160472
342.340174
341.853914
341.551453
341.252831
340.783787
340.00781
338.871392
337.430011
335.82123
334.201745
332.688082
331.328056
330.093128
472.542697
471.618078
470.669447
469.696441
468.698719
467.675952
466.627829
465.554051
464.454333
463.328399
462.175982
460.996828
459.790688
458.557326
457.296514
456.008033
454.691673
453.347233
451.974522
450.573355
449.143551
447.684935
446.19733
444.680554
443.134416
441.558711
439.953206
438.31764
436.651704
434.955031
433.227177
431.467602
429.675647
427.850508
425.991208
424.09656
422.165133
420.195209
418.184741
416.131302
414.032036
411.883615
409.682191
407.423373
405.102217
402.713246
400.250521
397.707772
395.078611
392.356857
389.537002
386.614837
383.588283
380.458455
377.230958
373.917484
370.537428
367.119662
363.704191
360.343372
357.089278
354.028852
351.253252
348.853757
346.900016
345.412044
344.394198
343.794491
343.506394
343.368848
343.189868
342.801238
342.072514
340.970457
339.578151
338.050825
336.540021
335.131488
333.831675
332.587871
472.517907
471.543167
470.543121
469.517396
468.465643
467.387531
466.282752
465.151013
463.992036
462.80556
461.591338
460.349137
459.078742
457.779949
456.452575
455.096453
453.711433
452.297387
450.854208
449.381806
447.880116
446.349091
444.788704
443.198946
441.579819
439.931339
438.253521
436.54638
434.809921
433.044124
431.248931
429.424233
427.569845
425.685484
423.770744
421.825055
419.847651
417.837517
415.793342
413.713456
411.595771
409.437718
407.236177
404.987428
402.687111
400.330215
397.911115
395.423673
392.861438
390.217964
387.487296
384.664659
381.74738
378.736089
375.63619
372.459549
369.226343
365.966956
362.723668
359.551797
356.519766
353.707375
351.200397
349.080443
347.428356
346.265348
345.572684
345.259574
345.242956
345.309151
345.282828
345.024125
344.39337
343.396807
342.143265
340.788964
339.459213
338.211136
337.033707
335.926632
472.488369
471.453906
470.392579
469.303989
468.187768
467.043568
465.871066
464.66996
463.439968
462.180829
460.8923
459.574161
458.226214
456.848285
455.440223
454.001909
452.533252
451.034195
449.504714
447.944826
446.354585
444.734087
443.083473
441.402924
439.692666
437.952966
436.184128
434.386493
432.56043
430.706332
428.824599
426.915629
424.979797
423.017433
421.02879
419.01401
416.973079
414.905777
412.811614
410.68976
408.538972
406.357506
404.143035
401.892568
399.602386
397.26801
394.884215
392.445128
389.944419
387.375647
384.732782
382.010979
379.207611
376.323642
373.365408
370.34636
367.289037
364.226993
361.206319
358.286288
355.53848
353.043611
350.885732
349.142735
347.872644
347.095441
346.849538
346.968611
347.295028
347.610741
347.739786
347.661356
347.240307
346.490032
345.527508
344.489608
343.472118
342.516012
341.639587
340.868329
472.454277
471.350873
470.218791
469.057593
467.866872
466.646247
465.395365
464.113899
462.801545
461.458028
460.083098
458.676534
457.238147
455.767781
454.265319
452.730684
451.163846
449.564825
447.933696
446.270594
444.57572
442.849341
441.0918
439.303518
437.484993
435.63681
433.759634
431.854214
429.921379
427.96203
425.977135
423.967713
421.934815
419.8795
417.802805
415.705698
413.589033
411.453486
409.299481
407.127107
404.936021
402.725349
400.493582
398.238471
395.956951
393.645083
391.298072
388.910436
386.476187
383.989219
381.443919
378.836056
376.163942
373.42983
370.641741
367.815328
364.975969
362.160516
359.418323
356.811128
354.411284
352.297621
350.54843
349.230946
348.386648
348.084964
348.223979
348.77512
349.465198
350.129647
350.605013
350.782491
350.723676
350.395657
349.889149
349.313927
348.729946
348.179311
347.707536
347.33723
472.416222
471.23586
470.024781
468.78249
467.508526
466.202458
464.863886
463.492441
462.087786
460.649615
459.17766
457.67169
456.131519
454.557007
452.948069
451.30468
449.62688
447.914784
446.16859
444.388583
442.57515
440.728779
438.850076
436.939768
434.998707
433.027882
431.028418
429.001582
426.948776
424.871539
422.771536
420.650543
418.510423
416.353105
414.180537
411.994644
409.79726
407.590056
405.374449
403.151501
400.9218
398.685366
396.441513
394.188725
391.924559
389.645599
387.347444
385.024897
382.672187
380.28349
377.853661
375.379225
372.85967
370.299075
367.707863
365.104847
362.51905
359.991015
357.573211
355.329035
353.329937
351.650271
350.360007
349.513954
349.143525
349.262167
349.864455
350.750384
351.781969
352.802309
353.671004
354.300368
354.670518
354.825007
354.875044
354.924336
354.892561
354.858466
354.853883
354.908833
472.375317
471.112228
469.816217
468.486719
467.123203
465.725172
464.292167
462.823763
461.319574
459.77926
458.202522
456.589118
454.938863
453.251638
451.527399
449.766185
447.968129
446.133471
444.262563
442.355889
440.41407
438.437881
436.428261
434.386324
432.31337
430.210895
428.080595
425.924371
423.744333
421.542787
419.322233
417.08534
414.834923
412.573907
410.305282
408.03204
405.757096
403.483189
401.21277
398.947879
396.689989
394.439864
392.197431
389.961671
387.730529
385.500896
383.268693
381.029017
378.77653
376.50606
374.213442
371.896652
369.55724
367.202073
364.844866
362.507996
360.223701
358.034695
355.99368
354.161292
352.602144
351.379478
350.544539
350.138734
350.201025
350.737633
351.621695
352.764976
354.05278
355.362566
356.584566
357.644045
358.509519
359.206526
359.786493
360.298721
360.75593
361.197519
361.635205
362.057619
472.333277
470.985161
469.601846
468.182686
466.727068
465.234423
463.704218
462.135965
460.529224
458.883611
457.1988
455.474534
453.710635
451.907015
450.063683
448.180766
446.258514
444.297321
442.29774
440.260496
438.186504
436.076888
433.932995
431.756408
429.548967
427.312774
425.050206
422.763916
420.456832
418.132155
415.793337
413.444061
411.088198
408.729756
406.372816
404.021453
401.679639
399.351132
397.039351
394.747233
392.477099
390.230459
388.007889
385.808929
383.632025
381.474565
379.33304
377.203218
375.080654
372.961318
370.842503
368.723984