/*--------------------------------*- C++ -*----------------------------------*\
  =========                 |
  \\      /  F ield         | OpenFOAM: The Open Source CFD Toolbox
   \\    /   O peration     | Website:  https://openfoam.org
    \\  /    A nd           | Version:  8
     \\/     M anipulation  |
\*---------------------------------------------------------------------------*/
FoamFile
{
    version     2.0;
    format      ascii;
    class       volScalarField;
    location    "0.022";
    object      p;
}
// * * * * * * * * * * * * * * * * * * * * * * * * * * * * * * * * * * * * * //

dimensions      [1 -1 -2 0 0 0 0];

internalField   nonuniform List<scalar> 
42400
(
101308.581
101308.57
101308.557
101308.543
101308.528
101308.512
101308.494
101308.475
101308.455
101308.433
101308.41
101308.385
101308.359
101308.331
101308.302
101308.271
101308.238
101308.203
101308.167
101308.128
101308.087
101308.044
101307.998
101307.95
101307.899
101307.845
101307.788
101307.727
101307.664
101307.596
101307.526
101307.451
101307.372
101307.289
101307.202
101307.11
101307.02
101306.932
101306.84
101306.731
101306.602
101306.467
101306.337
101306.213
101306.087
101305.956
101305.822
101305.685
101305.544
101305.399
101305.247
101305.104
101304.971
101304.82
101304.648
101304.486
101304.337
101304.191
101304.038
101303.882
101303.724
101303.565
101303.408
101303.262
101303.137
101303.024
101302.906
101302.808
101302.623
101302.363
101302.55
101302.297
101301.389
101302.393
101304.164
101302.851
101302.912
101303.918
101306.94
101310.843
101308.259
101308.251
101308.241
101308.23
101308.218
101308.205
101308.19
101308.174
101308.157
101308.139
101308.119
101308.098
101308.076
101308.052
101308.027
101308
101307.972
101307.942
101307.91
101307.876
101307.841
101307.803
101307.764
101307.722
101307.677
101307.63
101307.58
101307.528
101307.472
101307.413
101307.351
101307.286
101307.216
101307.148
101307.082
101307.014
101306.934
101306.837
101306.731
101306.63
101306.534
101306.436
101306.334
101306.228
101306.12
101306.007
101305.889
101305.778
101305.673
101305.574
101305.454
101305.315
101305.196
101305.087
101304.976
101304.866
101304.758
101304.653
101304.556
101304.469
101304.4
101304.351
101304.326
101304.327
101304.365
101304.462
101304.609
101304.894
101305.193
101305.283
101305.823
101306.513
101306.617
101307.277
101308.707
101310.825
101313.692
101318.639
101322.117
101323.381
101308.101
101308.096
101308.088
101308.08
101308.07
101308.06
101308.048
101308.035
101308.021
101308.007
101307.99
101307.973
101307.955
101307.936
101307.915
101307.893
101307.87
101307.845
101307.82
101307.792
101307.763
101307.733
101307.7
101307.666
101307.63
101307.592
101307.552
101307.509
101307.464
101307.416
101307.367
101307.319
101307.27
101307.214
101307.148
101307.072
101306.996
101306.924
101306.853
101306.779
101306.702
101306.623
101306.54
101306.451
101306.37
101306.301
101306.214
101306.107
101306.011
101305.927
101305.85
101305.769
101305.689
101305.612
101305.541
101305.479
101305.435
101305.411
101305.407
101305.424
101305.475
101305.564
101305.69
101305.869
101306.132
101306.534
101307.025
101307.744
101308.588
101309.407
101310.389
101311.198
101312.408
101315.148
101318.942
101321.581
101323.425
101326.166
101329.764
101333.324
101308.108
101308.104
101308.098
101308.091
101308.084
101308.075
101308.066
101308.056
101308.045
101308.033
101308.021
101308.007
101307.993
101307.978
101307.962
101307.945
101307.927
101307.909
101307.889
101307.869
101307.847
101307.825
101307.801
101307.776
101307.749
101307.721
101307.691
101307.66
101307.629
101307.597
101307.56
101307.517
101307.47
101307.421
101307.373
101307.327
101307.279
101307.229
101307.176
101307.12
101307.057
101307.002
101306.959
101306.898
101306.819
101306.753
101306.698
101306.641
101306.583
101306.527
101306.474
101306.429
101306.397
101306.381
101306.381
101306.399
101306.441
101306.515
101306.638
101306.81
101307.037
101307.327
101307.69
101308.118
101308.64
101309.357
101310.194
101311.28
101312.169
101313.302
101315.877
101319.946
101322.399
101323.36
101324.767
101327.018
101330.251
101332.909
101334.989
101337.429
101308.261
101308.257
101308.252
101308.246
101308.24
101308.233
101308.225
101308.216
101308.207
101308.198
101308.189
101308.179
101308.168
101308.157
101308.146
101308.134
101308.122
101308.11
101308.097
101308.084
101308.07
101308.055
101308.039
101308.022
101308.005
101307.988
101307.97
101307.951
101307.93
101307.907
101307.884
101307.861
101307.837
101307.811
101307.782
101307.753
101307.72
101307.682
101307.651
101307.631
101307.595
101307.542
101307.501
101307.47
101307.435
101307.398
101307.364
101307.334
101307.311
101307.3
101307.301
101307.316
101307.347
101307.404
101307.493
101307.622
101307.801
101308.036
101308.337
101308.716
101309.199
101309.762
101310.437
101311.172
101312.03
101312.94
101313.923
101315.801
101319.394
101322.083
101323.111
101323.94
101325.803
101328.19
101330.645
101333.626
101336.127
101338.061
101340.42
101343.575
101308.529
101308.525
101308.52
101308.514
101308.508
101308.502
101308.495
101308.488
101308.481
101308.474
101308.467
101308.46
101308.453
101308.446
101308.44
101308.433
101308.427
101308.42
101308.413
101308.406
101308.398
101308.393
101308.389
101308.385
101308.38
101308.375
101308.369
101308.363
101308.357
101308.349
101308.341
101308.332
101308.322
101308.31
101308.294
101308.284
101308.285
101308.27
101308.241
101308.224
101308.214
101308.2
101308.186
101308.174
101308.166
101308.164
101308.169
101308.184
101308.211
101308.256
101308.324
101308.421
101308.554
101308.729
101308.957
101309.245
101309.601
101310.04
101310.581
101311.219
101312.009
101312.885
101313.936
101314.903
101316.164
101318.738
101321.897
101323.316
101323.783
101325.383
101327.23
101328.906
101331.661
101333.898
101335.509
101337.827
101340.415
101342.736
101345.591
101348.091
101308.873
101308.868
101308.862
101308.857
101308.851
101308.845
101308.839
101308.834
101308.829
101308.824
101308.819
101308.816
101308.812
101308.81
101308.808
101308.806
101308.805
101308.805
101308.807
101308.81
101308.814
101308.818
101308.822
101308.826
101308.831
101308.836
101308.842
101308.847
101308.853
101308.859
101308.864
101308.866
101308.874
101308.891
101308.896
101308.888
101308.892
101308.902
101308.909
101308.916
101308.924
101308.935
101308.951
101308.973
101309.003
101309.046
101309.103
101309.181
101309.285
101309.42
101309.594
101309.812
101310.087
101310.426
101310.837
101311.333
101311.923
101312.603
101313.389
101314.259
101315.279
101316.235
101317.687
101320.569
101323.148
101324.247
101324.934
101326.685
101328.541
101330.057
101331.69
101334.002
101336.159
101338.155
101340.51
101342.884
101345.292
101347.849
101350.512
101353.186
101309.245
101309.239
101309.233
101309.228
101309.222
101309.218
101309.214
101309.21
101309.207
101309.205
101309.204
101309.203
101309.203
101309.206
101309.209
101309.214
101309.221
101309.228
101309.237
101309.247
101309.258
101309.27
101309.283
101309.298
101309.314
101309.33
101309.348
101309.366
101309.381
101309.403
101309.434
101309.454
101309.465
101309.485
101309.512
101309.537
101309.562
101309.588
101309.618
101309.651
101309.69
101309.736
101309.793
101309.863
101309.95
101310.059
101310.196
101310.366
101310.577
101310.837
101311.154
101311.538
101312
101312.552
101313.207
101313.96
101314.832
101315.799
101316.891
101318.036
101319.812
101322.595
101323.992
101324.561
101326.121
101327.698
101329.105
101330.784
101332.668
101334.887
101336.845
101338.735
101340.839
101343.055
101345.344
101347.662
101350.055
101352.478
101355.021
101357.475
101309.589
101309.584
101309.578
101309.574
101309.57
101309.567
101309.565
101309.565
101309.565
101309.567
101309.571
101309.576
101309.583
101309.591
101309.6
101309.612
101309.625
101309.64
101309.657
101309.676
101309.696
101309.719
101309.743
101309.768
101309.795
101309.821
101309.853
101309.894
101309.927
101309.953
101309.987
101310.028
101310.068
101310.108
101310.151
101310.197
101310.246
101310.301
101310.363
101310.434
101310.516
101310.613
101310.729
101310.868
101311.036
101311.239
101311.485
101311.78
101312.133
101312.553
101313.051
101313.638
101314.324
101315.114
101316.014
101316.991
101318.103
101319.272
101320.933
101323.216
101324.435
101325.417
101327.309
101329.041
101330.339
101332.009
101333.698
101335.196
101337.237
101339.336
101341.145
101343.271
101345.472
101347.576
101349.791
101352.16
101354.581
101357.033
101359.261
101361.377
101309.857
101309.854
101309.85
101309.848
101309.847
101309.848
101309.85
101309.854
101309.86
101309.867
101309.876
101309.887
101309.9
101309.916
101309.934
101309.954
101309.976
101310.001
101310.028
101310.057
101310.089
101310.123
101310.157
101310.197
101310.245
101310.288
101310.326
101310.372
101310.425
101310.477
101310.531
101310.588
101310.649
101310.713
101310.783
101310.859
101310.943
101311.038
101311.145
101311.269
101311.413
101311.582
101311.781
101312.016
101312.294
101312.622
101313.009
101313.463
101313.992
101314.609
101315.32
101316.132
101317.037
101318.049
101319.19
101320.402
101321.895
101324.073
101325.46
101326.239
101327.716
101329.485
101331.119
101332.641
101334.173
101335.792
101337.512
101339.437
101341.497
101343.489
101345.55
101347.649
101349.655
101351.729
101353.929
101356.603
101359.656
101362.217
101364.413
101367.474
101310
101310
101310
101310.001
101310.005
101310.01
101310.018
101310.027
101310.039
101310.053
101310.07
101310.089
101310.111
101310.137
101310.164
101310.195
101310.229
101310.265
101310.304
101310.345
101310.391
101310.445
101310.496
101310.544
101310.6
101310.663
101310.726
101310.792
101310.861
101310.934
101311.011
101311.094
101311.183
101311.28
101311.386
101311.504
101311.636
101311.787
101311.959
101312.157
101312.387
101312.653
101312.964
101313.324
101313.742
101314.224
101314.777
101315.411
101316.132
101316.95
101317.853
101318.849
101319.885
101320.957
101322.483
101324.494
101326.182
101327.293
101328.859
101330.772
101332.253
101333.179
101334.36
101336.286
101338.199
101340.102
101342.059
101344.002
101345.931
101347.84
101349.768
101352.036
101354.852
101357.575
101359.989
101361.92
101363.576
101365.961
101370.152
101372.497
101309.959
101309.962
101309.967
101309.974
101309.984
101309.996
101310.01
101310.027
101310.048
101310.071
101310.098
101310.128
101310.161
101310.197
101310.237
101310.28
101310.326
101310.377
101310.436
101310.494
101310.55
101310.615
101310.685
101310.757
101310.832
101310.912
101310.996
101311.084
101311.178
101311.278
101311.385
101311.502
101311.629
101311.77
101311.927
101312.103
101312.303
101312.532
101312.793
101313.094
101313.441
101313.839
101314.297
101314.821
101315.417
101316.091
101316.852
101317.708
101318.654
101319.699
101320.827
101322.197
101323.907
101325.506
101326.673
101327.858
101329.167
101330.47
101332.029
101333.692
101335.281
101336.729
101338.425
101340.301
101342.102
101343.842
101345.613
101347.834
101350.352
101352.9
101355.224
101357.347
101359.31
101361.296
101363.54
101366.281
101368.555
101370.106
101371.727
101374.269
101309.667
101309.676
101309.689
101309.703
101309.72
101309.741
101309.765
101309.792
101309.823
101309.857
101309.896
101309.938
101309.984
101310.033
101310.088
101310.149
101310.212
101310.275
101310.346
101310.422
101310.501
101310.584
101310.671
101310.763
101310.86
101310.962
101311.071
101311.186
101311.309
101311.443
101311.588
101311.748
101311.924
101312.122
101312.344
101312.595
101312.882
101313.208
101313.582
101314.009
101314.495
101315.049
101315.674
101316.376
101317.161
101318.037
101319.01
101320.08
101321.234
101322.477
101323.911
101325.22
101326.412
101327.919
101329.623
101330.928
101332.332
101333.968
101335.281
101336.73
101338.497
101340.326
101342.103
101344.082
101346.36
101348.952
101351.625
101353.595
101355.169
101356.574
101358.47
101360.96
101363.033
101365.358
101367.463
101369.114
101371.888
101374.4
101376.028
101377.898
101309.059
101309.076
101309.097
101309.121
101309.149
101309.18
101309.215
101309.254
101309.297
101309.344
101309.396
101309.453
101309.516
101309.581
101309.649
101309.724
101309.805
101309.889
101309.977
101310.07
101310.169
101310.272
101310.38
101310.495
101310.616
101310.745
101310.883
101311.031
101311.191
101311.366
101311.559
101311.774
101312.014
101312.284
101312.589
101312.935
101313.328
101313.775
101314.282
101314.855
101315.5
101316.222
101317.024
101317.909
101318.88
101319.94
101321.086
101322.299
101323.587
101324.938
101326.289
101327.797
101329.323
101330.848
101332.287
101333.669
101335.353
101337.131
101338.89
101340.657
101342.469
101344.383
101346.709
101348.858
101350.773
101352.685
101354.498
101356.346
101358.624
101361.457
101363.6
101365.174
101366.878
101368.653
101370.406
101372.449
101374.591
101376.327
101378.039
101380.52
101308.067
101308.093
101308.126
101308.161
101308.201
101308.245
101308.293
101308.346
101308.404
101308.468
101308.534
101308.607
101308.684
101308.768
101308.855
101308.948
101309.046
101309.15
101309.258
101309.373
101309.493
101309.619
101309.753
101309.895
101310.046
101310.209
101310.384
101310.574
101310.783
101311.013
101311.269
101311.555
101311.877
101312.239
101312.648
101313.109
101313.63
101314.215
101314.871
101315.602
101316.412
101317.305
101318.281
101319.339
101320.475
101321.688
101322.975
101324.317
101325.704
101327.16
101328.705
101330.273
101331.849
101333.499
101335.22
101336.928
101338.597
101340.36
101342.156
101343.917
101345.701
101347.572
101349.557
101351.86
101354.433
101356.486
101358.217
101359.899
101361.68
101363.512
101365.751
101368.178
101370.14
101372.335
101374.385
101376.567
101378.517
101380.232
101382.838
101385.355
101306.637
101306.676
101306.722
101306.772
101306.826
101306.884
101306.948
101307.017
101307.092
101307.172
101307.257
101307.348
101307.445
101307.547
101307.655
101307.768
101307.888
101308.014
101308.147
101308.287
101308.435
101308.592
101308.759
101308.939
101309.132
101309.342
101309.571
101309.823
101310.101
101310.411
101310.756
101311.143
101311.576
101312.062
101312.606
101313.213
101313.889
101314.638
101315.463
101316.368
101317.357
101318.429
101319.588
101320.839
101322.174
101323.592
101325.074
101326.576
101328.032
101329.542
101331.163
101332.855
101334.597
101336.316
101337.954
101339.604
101341.376
101343.201
101345.123
101347.078
101349.084
101350.996
101352.443
101354.419
101356.473
101358.174
101360.743
101363.33
101365.312
101367.244
101368.953
101370.81
101373.147
101375.465
101378.024
101380.442
101382.346
101384.725
101387.741
101389.636
101304.718
101304.77
101304.832
101304.898
101304.969
101305.044
101305.126
101305.214
101305.307
101305.407
101305.513
101305.625
101305.744
101305.869
101306.001
101306.141
101306.289
101306.445
101306.61
101306.787
101306.975
101307.177
101307.396
101307.633
101307.892
101308.176
101308.49
101308.837
101309.223
101309.652
101310.131
101310.663
101311.253
101311.906
101312.625
101313.41
101314.262
101315.178
101316.154
101317.18
101318.24
101319.327
101320.424
101321.825
101323.636
101325.424
101327.143
101328.869
101330.679
101332.498
101334.208
101335.891
101337.641
101339.484
101341.348
101343.142
101344.841
101346.797
101348.907
101350.625
101352.625
101354.772
101356.653
101357.814
101359.446
101362.649
101364.43
101366.029
101368.82
101371.501
101373.311
101375.077
101377.31
101379.535
101381.89
101384.089
101386.785
101389.475
101390.805
101391.722
101302.263
101302.331
101302.411
101302.494
101302.582
101302.675
101302.775
101302.881
101302.994
101303.114
101303.24
101303.374
101303.515
101303.665
101303.824
101303.992
101304.171
101304.363
101304.568
101304.79
101305.03
101305.291
101305.578
101305.893
101306.241
101306.628
101307.058
101307.536
101308.07
101308.664
101309.323
101310.054
101310.86
101311.746
101312.713
101313.764
101314.899
101316.119
101317.424
101318.813
101320.283
101321.881
101324.008
101326.269
101327.619
101328.859
101330.541
101332
101333.193
101334.545
101336.31
101338.533
101340.526
101342.276
101344.009
101345.751
101347.507
101349.361
101351.187
101353.671
101356.089
101358.274
101360.684
101363.049
101365.67
101366.915
101368.675
101371.037
101372.48
101373.549
101375.429
101378.649
101381.505
101384.114
101386.825
101389.963
101391.993
101392.124
101393.003
101395.175
101299.297
101299.38
101299.479
101299.579
101299.684
101299.796
101299.913
101300.038
101300.17
101300.309
101300.457
101300.613
101300.778
101300.955
101301.143
101301.344
101301.561
101301.796
101302.051
101302.329
101302.635
101302.973
101303.347
101303.763
101304.227
101304.743
101305.318
101305.959
101306.67
101307.458
101308.325
101309.277
101310.314
101311.438
101312.647
101313.939
101315.31
101316.753
101318.26
101319.82
101321.485
101323.155
101324.874
101326.697
101328.364
101329.645
101330.687
101332.34
101334.74
101336.793
101338.736
101340.82
101342.791
101344.425
101346.13
101347.916
101349.655
101351.863
101354.649
101356.895
101358.902
101361.198
101363.672
101365.682
101367.417
101369.787
101371.932
101373.724
101376.108
101378.516
101380.988
101383.839
101386.345
101388.559
101390.712
101393.114
101395.283
101396.819
101397.389
101398.984
101295.801
101295.9
101296.015
101296.131
101296.251
101296.377
101296.509
101296.647
101296.793
101296.947
101297.109
101297.282
101297.467
101297.664
101297.877
101298.108
101298.359
101298.635
101298.938
101299.274
101299.648
101300.064
101300.53
101301.049
101301.63
101302.278
101303
101303.799
101304.682
101305.651
101306.71
101307.859
101309.098
101310.427
101311.843
101313.341
101314.915
101316.563
101318.276
101320.08
101321.969
101323.948
101325.593
101326.898
101328.602
101330.823
101332.856
101334.393
101335.726
101337.131
101338.68
101340.208
101342.289
101345.405
101348.393
101351.376
101354.511
101356.579
101358.288
101360.996
101363.228
101364.912
101366.886
101368.824
101370.723
101372.629
101374.787
101377.624
101380.596
101382.818
101384.507
101386.247
101388.831
101392.334
101394.447
101395.694
101397.469
101399.288
101401.826
101404.789
101342.918
101342.924
101342.93
101342.937
101342.945
101342.953
101342.961
101342.97
101342.979
101342.989
101342.999
101343.009
101343.02
101343.031
101343.043
101343.056
101343.068
101343.081
101343.095
101343.109
101343.124
101343.139
101343.154
101343.17
101343.187
101343.203
101343.22
101343.238
101343.256
101343.274
101343.292
101343.311
101343.329
101343.348
101343.367
101343.387
101343.406
101343.425
101343.444
101343.463
101343.482
101343.5
101343.518
101343.536
101343.553
101343.57
101343.585
101343.598
101343.61
101343.623
101343.634
101343.641
101343.645
101343.646
101343.643
101343.635
101343.622
101343.602
101343.574
101343.538
101343.491
101343.43
101343.354
101343.258
101343.14
101342.996
101342.815
101342.592
101342.331
101342.049
101341.729
101341.305
101340.627
101339.709
101338.584
101337.235
101335.583
101333.971
101331.886
101330.076
101341.171
101341.176
101341.182
101341.189
101341.196
101341.203
101341.211
101341.22
101341.229
101341.239
101341.249
101341.26
101341.272
101341.284
101341.297
101341.311
101341.325
101341.34
101341.355
101341.371
101341.388
101341.406
101341.424
101341.444
101341.463
101341.484
101341.506
101341.528
101341.551
101341.574
101341.599
101341.624
101341.651
101341.678
101341.706
101341.735
101341.764
101341.795
101341.827
101341.859
101341.893
101341.927
101341.963
101341.999
101342.035
101342.073
101342.112
101342.151
101342.19
101342.229
101342.269
101342.31
101342.353
101342.394
101342.434
101342.473
101342.509
101342.541
101342.568
101342.589
101342.6
101342.601
101342.588
101342.557
101342.504
101342.425
101342.314
101342.164
101341.963
101341.694
101341.318
101340.785
101340.197
101339.444
101338.301
101337.136
101335.904
101333.98
101332.272
101330.734
101339.347
101339.351
101339.356
101339.362
101339.368
101339.375
101339.383
101339.391
101339.401
101339.41
101339.421
101339.432
101339.445
101339.458
101339.471
101339.486
101339.501
101339.518
101339.535
101339.553
101339.572
101339.593
101339.614
101339.636
101339.659
101339.684
101339.709
101339.736
101339.764
101339.794
101339.824
101339.856
101339.89
101339.925
101339.962
101340
101340.04
101340.083
101340.127
101340.172
101340.22
101340.27
101340.322
101340.376
101340.432
101340.49
101340.553
101340.619
101340.686
101340.755
101340.827
101340.903
101340.981
101341.061
101341.143
101341.226
101341.309
101341.391
101341.472
101341.549
101341.618
101341.677
101341.721
101341.745
101341.742
101341.706
101341.63
101341.505
101341.317
101341.046
101340.646
101340.01
101339.489
101338.872
101337.902
101336.867
101335.399
101333.936
101332.313
101330.472
101337.436
101337.439
101337.443
101337.448
101337.454
101337.46
101337.467
101337.475
101337.484
101337.494
101337.504
101337.516
101337.528
101337.541
101337.555
101337.571
101337.587
101337.604
101337.622
101337.642
101337.662
101337.684
101337.707
101337.731
101337.757
101337.784
101337.813
101337.843
101337.875
101337.909
101337.944
101337.981
101338.02
101338.062
101338.106
101338.152
101338.2
101338.251
101338.304
101338.361
101338.42
101338.483
101338.55
101338.622
101338.698
101338.777
101338.861
101338.95
101339.044
101339.142
101339.245
101339.352
101339.465
101339.583
101339.706
101339.833
101339.963
101340.096
101340.229
101340.36
101340.485
101340.6
101340.699
101340.777
101340.824
101340.832
101340.788
101340.677
101340.474
101340.151
101339.674
101338.99
101338.109
101337.072
101336.23
101335.578
101334.884
101333.906
101332.917
101331.107
101335.424
101335.426
101335.429
101335.433
101335.438
101335.444
101335.45
101335.457
101335.465
101335.474
101335.484
101335.495
101335.507
101335.52
101335.533
101335.548
101335.564
101335.581
101335.6
101335.619
101335.64
101335.662
101335.686
101335.711
101335.737
101335.765
101335.795
101335.827
101335.861
101335.896
101335.934
101335.974
101336.016
101336.06
101336.108
101336.158
101336.212
101336.268
101336.328
101336.393
101336.462
101336.535
101336.612
101336.695
101336.783
101336.877
101336.976
101337.082
101337.193
101337.311
101337.435
101337.566
101337.703
101337.847
101337.998
101338.156
101338.319
101338.487
101338.658
101338.828
101338.993
101339.149
101339.287
101339.397
101339.466
101339.48
101339.418
101339.258
101338.98
101338.573
101338.022
101337.312
101336.389
101335.15
101334.217
101333.695
101332.843
101332.089
101331.309
101328.968
101333.313
101333.314
101333.317
101333.32
101333.323
101333.328
101333.333
101333.339
101333.346
101333.354
101333.362
101333.372
101333.382
101333.394
101333.406
101333.42
101333.434
101333.45
101333.467
101333.485
101333.504
101333.525
101333.547
101333.571
101333.596
101333.623
101333.651
101333.681
101333.714
101333.748
101333.784
101333.823
101333.865
101333.908
101333.955
101334.005
101334.059
101334.116
101334.177
101334.243
101334.313
101334.388
101334.467
101334.553
101334.644
101334.741
101334.844
101334.954
101335.07
101335.194
101335.325
101335.462
101335.607
101335.758
101335.917
101336.083
101336.255
101336.432
101336.611
101336.79
101336.962
101337.122
101337.259
101337.362
101337.414
101337.396
101337.288
101337.066
101336.707
101336.183
101335.467
101334.533
101333.467
101332.275
101330.913
101329.737
101328.595
101327.075
101325.627
101324.138
101331.106
101331.107
101331.108
101331.11
101331.113
101331.116
101331.119
101331.124
101331.129
101331.135
101331.142
101331.149
101331.157
101331.166
101331.176
101331.187
101331.199
101331.211
101331.225
101331.24
101331.256
101331.273
101331.291
101331.311
101331.331
101331.353
101331.377
101331.403
101331.431
101331.46
101331.49
101331.523
101331.559
101331.597
101331.638
101331.681
101331.728
101331.779
101331.833
101331.891
101331.953
101332.019
101332.091
101332.167
101332.248
101332.336
101332.429
101332.528
101332.634
101332.746
101332.865
101332.991
101333.122
101333.259
101333.402
101333.549
101333.699
101333.853
101334.006
101334.154
101334.292
101334.41
101334.495
101334.531
101334.498
101334.371
101334.124
101333.723
101333.136
101332.355
101331.431
101330.41
101329.285
101328.089
101326.815
101325.432
101323.863
101322.164
101320.44
101318.907
101328.826
101328.826
101328.827
101328.827
101328.828
101328.83
101328.832
101328.834
101328.837
101328.84
101328.844
101328.848
101328.853
101328.859
101328.865
101328.872
101328.879
101328.887
101328.896
101328.906
101328.916
101328.928
101328.94
101328.953
101328.967
101328.982
101328.997
101329.014
101329.032
101329.052
101329.074
101329.097
101329.122
101329.149
101329.177
101329.209
101329.242
101329.278
101329.317
101329.359
101329.403
101329.452
101329.504
101329.56
101329.62
101329.685
101329.754
101329.828
101329.907
101329.991
101330.08
101330.173
101330.269
101330.369
101330.47
101330.571
101330.667
101330.757
101330.838
101330.905
101330.95
101330.964
101330.934
101330.843
101330.666
101330.372
101329.924
101329.29
101328.466
101327.473
101326.34
101325.103
101323.79
101322.406
101320.938
101319.385
101317.827
101316.452
101315.23
101313.194
101326.5
101326.5
101326.499
101326.498
101326.497
101326.497
101326.497
101326.497
101326.497
101326.497
101326.498
101326.498
101326.499
101326.5
101326.501
101326.503
101326.505
101326.507
101326.509
101326.512
101326.514
101326.517
101326.52
101326.524
101326.528
101326.533
101326.538
101326.544
101326.55
101326.557
101326.565
101326.573
101326.582
101326.592
101326.602
101326.614
101326.627
101326.641
101326.656
101326.673
101326.691
101326.711
101326.732
101326.756
101326.781
101326.808
101326.837
101326.867
101326.899
101326.932
101326.967
101327.001
101327.036
101327.072
101327.107
101327.14
101327.168
101327.185
101327.177
101327.138
101327.057
101326.924
101326.724
101326.44
101326.05
101325.531
101324.861
101324.016
101322.981
101321.748
101320.346
101318.809
101317.141
101315.354
101313.463
101311.49
101309.49
101307.551
101305.452
101302.704
101324.173
101324.171
101324.169
101324.167
101324.165
101324.162
101324.159
101324.156
101324.153
101324.149
101324.145
101324.141
101324.137
101324.133
101324.129
101324.124
101324.119
101324.114
101324.108
101324.103
101324.097
101324.09
101324.084
101324.077
101324.069
101324.061
101324.053
101324.045
101324.036
101324.026
101324.016
101324.006
101323.995
101323.984
101323.972
101323.96
101323.947
101323.934
101323.919
101323.904
101323.889
101323.873
101323.856
101323.838
101323.819
101323.798
101323.774
101323.75
101323.724
101323.696
101323.667
101323.632
101323.589
101323.534
101323.467
101323.386
101323.287
101323.172
101323.031
101322.856
101322.633
101322.347
101321.98
101321.512
101320.917
101320.173
101319.258
101318.16
101316.836
101315.308
101313.577
101311.659
101309.582
101307.354
101304.972
101302.433
101299.482
101296.444
101293.461
101290.376
101321.889
101321.886
101321.883
101321.879
101321.874
101321.869
101321.864
101321.857
101321.85
101321.843
101321.835
101321.826
101321.817
101321.807
101321.796
101321.785
101321.772
101321.759
101321.745
101321.73
101321.714
101321.697
101321.679
101321.66
101321.639
101321.618
101321.595
101321.57
101321.544
101321.517
101321.488
101321.457
101321.424
101321.389
101321.352
101321.312
101321.269
101321.224
101321.177
101321.127
101321.073
101321.017
101320.956
101320.893
101320.822
101320.748
101320.671
101320.581
101320.484
101320.377
101320.261
101320.135
101319.997
101319.844
101319.673
101319.478
101319.253
101318.991
101318.691
101318.342
101317.938
101317.462
101316.899
101316.228
101315.424
101314.471
101313.331
101311.962
101310.376
101308.598
101306.548
101304.312
101301.903
101299.267
101296.411
101292.769
101288.877
101285.633
101282.173
101278.58
101319.701
101319.697
101319.692
101319.687
101319.68
101319.672
101319.664
101319.654
101319.643
101319.632
101319.619
101319.605
101319.59
101319.574
101319.557
101319.538
101319.519
101319.497
101319.474
101319.45
101319.424
101319.396
101319.367
101319.335
101319.302
101319.266
101319.228
101319.188
101319.145
101319.099
101319.051
101318.999
101318.944
101318.884
101318.821
101318.754
101318.683
101318.608
101318.528
101318.443
101318.351
101318.25
101318.14
101318.023
101317.898
101317.766
101317.627
101317.479
101317.319
101317.144
101316.954
101316.745
101316.516
101316.268
101316
101315.705
101315.379
101315.012
101314.593
101314.114
101313.564
101312.928
101312.191
101311.328
101310.334
101309.217
101307.931
101306.422
101304.696
101302.463
101299.786
101297.242
101294.662
101291.846
101288.811
101285.628
101282.625
101279.781
101277.018
101274.74
101317.66
101317.654
101317.648
101317.64
101317.631
101317.62
101317.608
101317.595
101317.581
101317.565
101317.548
101317.529
101317.509
101317.487
101317.463
101317.438
101317.411
101317.382
101317.351
101317.318
101317.282
101317.244
101317.204
101317.161
101317.115
101317.066
101317.014
101316.959
101316.9
101316.837
101316.77
101316.7
101316.625
101316.543
101316.457
101316.367
101316.269
101316.16
101316.046
101315.926
101315.799
101315.666
101315.524
101315.371
101315.207
101315.031
101314.842
101314.64
101314.425
101314.194
101313.946
101313.678
101313.39
101313.075
101312.731
101312.354
101311.94
101311.485
101310.985
101310.432
101309.806
101309.093
101308.295
101307.405
101306.393
101305.108
101303.584
101301.87
101299.868
101297.754
101295.633
101293.414
101291.111
101288.684
101286.135
101283.492
101280.814
101278.274
101275.927
101273.933
101315.801
101315.794
101315.785
101315.775
101315.763
101315.75
101315.735
101315.719
101315.701
101315.681
101315.659
101315.636
101315.611
101315.584
101315.555
101315.524
101315.491
101315.455
101315.417
101315.377
101315.333
101315.287
101315.239
101315.187
101315.131
101315.073
101315.01
101314.944
101314.873
101314.798
101314.716
101314.629
101314.535
101314.436
101314.33
101314.219
101314.103
101313.98
101313.848
101313.708
101313.558
101313.397
101313.226
101313.045
101312.852
101312.647
101312.429
101312.195
101311.946
101311.68
101311.394
101311.089
101310.762
101310.411