/*--------------------------------*- C++ -*----------------------------------*\
  =========                 |
  \\      /  F ield         | OpenFOAM: The Open Source CFD Toolbox
   \\    /   O peration     | Website:  https://openfoam.org
    \\  /    A nd           | Version:  8
     \\/     M anipulation  |
\*---------------------------------------------------------------------------*/
FoamFile
{
    version     2.0;
    format      ascii;
    class       volVectorField;
    location    "0.022";
    object      U;
}
// * * * * * * * * * * * * * * * * * * * * * * * * * * * * * * * * * * * * * //

dimensions      [0 1 -1 0 0 0 0];

internalField   nonuniform List<vector> 
42400
(
(-0.0158773694 0.0152199475 -8.38237809e-27)
(-0.0473589276 0.044595429 2.90827329e-26)
(-0.0794899296 0.0735209864 3.36745395e-26)
(-0.112553284 0.102148133 0)
(-0.146608598 0.130478955 0)
(-0.181591221 0.158398819 -7.41457715e-28)
(-0.217366754 0.185736712 0)
(-0.253768547 0.212304347 8.12888619e-28)
(-0.290624881 0.237919756 0)
(-0.327776478 0.262421576 8.89732893e-28)
(-0.365085325 0.285676125 9.30177603e-28)
(-0.402436775 0.307578753 -9.71947809e-28)
(-0.439737305 0.328051501 -8.9275545e-26)
(-0.476910113 0.347039024 -9.72018288e-26)
(-0.513890147 0.364504243 -1.10482005e-27)
(-0.550619546 0.380424573 0)
(-0.587043924 0.394789091 0)
(-0.623109577 0.407596668 0)
(-0.658761518 0.41885495 0)
(-0.693942155 0.428579992 0)
(-0.728590386 0.436796318 0)
(-0.762640936 0.443537226 -2.89410551e-27)
(-0.796023755 0.448845173 -2.09521678e-25)
(-0.828663361 0.452772114 -4.52302446e-25)
(-0.860478045 0.455379719 -2.44254655e-25)
(-0.891378853 0.456739454 -3.28651102e-27)
(-0.921268292 0.456932506 -3.37818868e-27)
(-0.950038753 0.456049602 6.93070103e-27)
(-0.977570553 0.45419075 0)
(-1.00372933 0.451464997 0)
(-1.02836308 0.447990595 4.01264077e-25)
(-1.05129819 0.443892872 4.35040856e-25)
(-1.07232992 0.439292928 7.58406604e-27)
(-1.0912039 0.434302728 -5.10379232e-25)
(-1.1076808 0.429062691 -5.58143492e-25)
(-1.12154174 0.423795998 0)
(-1.13216114 0.41911069 0)
(-1.13925386 0.413949416 0)
(-1.14162876 0.409211762 0)
(-1.13976543 0.403666852 -8.34014749e-25)
(-1.13179236 0.400014717 -9.53199428e-25)
(-1.11738771 0.396837185 -9.85057615e-25)
(-1.0940524 0.394521914 -1.9469529e-24)
(-1.06149844 0.391486364 -1.07292761e-26)
(-1.01761172 0.388836142 1.05279272e-24)
(-0.96094307 0.386659381 1.10108295e-24)
(-0.889850673 0.385009123 2.02490151e-27)
(-0.802300974 0.383782841 -1.22601111e-24)
(-0.696165062 0.382805333 -5.42538956e-27)
(-0.569116634 0.381874598 -1.38206432e-24)
(-0.419101889 0.38039526 -7.05577769e-34)
(-0.241799809 0.378190109 2.66712985e-24)
(-0.0349804293 0.376725262 1.43841786e-24)
(0.199063439 0.37702704 -6.48732498e-26)
(0.477457515 0.375972509 0)
(0.802368552 0.371998534 0)
(1.17596689 0.365704746 0)
(1.60478697 0.358090859 1.45894193e-25)
(2.09467026 0.349183389 1.82321823e-25)
(2.64973653 0.338798848 0)
(3.27442051 0.326751192 -3.85878467e-24)
(3.97231417 0.312908366 -4.22986327e-24)
(4.74499367 0.296789788 3.72520723e-24)
(5.59338994 0.278387573 3.29264782e-24)
(6.51840522 0.25959973 0)
(7.5119752 0.245257737 0)
(8.57167871 0.232687348 2.06840086e-24)
(9.69324566 0.240399084 2.4540812e-24)
(10.7864416 0.326484048 1.45847787e-24)
(11.9974863 0.297269386 0)
(13.411496 0.127793936 0)
(14.2740465 0.619865742 1.85633465e-24)
(15.4221401 0.901275357 1.83793912e-24)
(17.7131924 -0.541588099 0)
(18.9697197 -0.774756949 1.92261557e-24)
(18.9337536 1.3010914 -1.77804657e-24)
(20.3638478 1.67063514 5.79957145e-24)
(22.2368881 -0.445237904 -6.07696578e-24)
(23.2444039 -0.938609238 -2.38453066e-23)
(23.1888201 -0.70877443 -6.63851442e-23)
(-0.0190576438 0.0169057969 0)
(-0.0572680762 0.0502223596 2.23266308e-26)
(-0.0964478417 0.0836052328 2.62351699e-26)
(-0.136696529 0.117041859 0)
(-0.177927137 0.15040034 0)
(-0.21995113 0.18346688 3.76980745e-26)
(-0.26253705 0.216000042 4.27283716e-26)
(-0.305444875 0.247763333 4.64683959e-28)
(-0.348447959 0.278542992 0)
(-0.39134562 0.308157048 5.02019098e-28)
(-0.433967614 0.336458068 5.20930755e-28)
(-0.476172665 0.363331298 -6.99460437e-26)
(-0.517843449 0.388690125 -1.52409589e-25)
(-0.558880173 0.412470629 -8.35021736e-26)
(-0.599194193 0.434626458 9.04772079e-26)
(-0.63870252 0.455124686 1.00415208e-25)
(-0.677323504 0.473942861 0)
(-0.714973675 0.491067192 1.22060794e-27)
(-0.751565552 0.506491674 0)
(-0.787006186 0.520217922 0)
(-0.821196161 0.532255466 0)
(-0.854028854 0.542622303 -1.66667829e-25)
(-0.885389737 0.551345552 -3.61235343e-25)
(-0.915155615 0.558462076 -1.95962981e-25)
(-0.94319365 0.564018992 0)
(-0.969359942 0.568073982 -2.63766728e-27)
(-0.993497617 0.570695444 -1.36671005e-27)
(-1.01543479 0.571962502 2.66185798e-27)
(-1.03498193 0.571963872 -2.9802024e-25)
(-1.05192197 0.570796744 -3.2337719e-25)
(-1.06600022 0.568559165 -1.82512836e-27)
(-1.07694987 0.56537617 -1.50413642e-27)
(-1.08457642 0.561316931 -3.97186421e-25)
(-1.08820389 0.556901114 -3.98763458e-25)
(-1.08770387 0.551469169 4.10856891e-25)
(-1.08235903 0.545653233 4.62879934e-25)
(-1.07220098 0.539053732 0)
(-1.05607757 0.532926407 -5.9076182e-28)
(-1.03275814 0.526604367 0)
(-1.00038685 0.52024632 -3.78938655e-27)
(-0.958848089 0.512908413 -7.1322977e-25)
(-0.906383326 0.505484315 -7.5218425e-25)
(-0.841773887 0.498142968 -1.056951e-26)
(-0.763506487 0.490878081 1.29972002e-26)
(-0.669508102 0.483554073 -3.46959505e-26)
(-0.557788784 0.476078008 2.07511783e-26)
(-0.426975128 0.468110044 -2.48386178e-26)
(-0.27374355 0.459860046 -9.20613293e-25)
(-0.0981508346 0.451867375 -9.54427134e-25)
(0.107549557 0.445599624 0)
(0.335985553 0.440928985 4.76298151e-26)
(0.61142749 0.433847311 -1.05886704e-25)
(0.928991789 0.424408557 -1.02778878e-24)
(1.29283541 0.414763839 -1.26239017e-24)
(1.70969712 0.405265685 -1.68815364e-25)
(2.18455775 0.395614811 -2.55183373e-24)
(2.72253692 0.385775657 -2.58269242e-24)
(3.32813208 0.375761497 2.55508139e-25)
(4.00532151 0.365761153 2.98190175e-25)
(4.75623287 0.356297367 -1.77646184e-24)
(5.58292399 0.348129021 -1.31439953e-24)
(6.48423402 0.342586526 -4.57933867e-25)
(7.45779932 0.340750274 5.27127705e-25)
(8.49500546 0.341601812 0)
(9.59604564 0.342724347 -2.25923353e-25)
(10.7508704 0.353862501 -4.18075293e-24)
(11.9543809 0.365778504 -1.90884393e-24)
(13.2352772 0.362032162 0)
(14.4181514 0.497338309 1.12903237e-26)
(15.550717 0.702943745 1.60640407e-24)
(17.0791962 0.453942003 5.63361756e-24)
(18.2979877 0.410376212 5.11415318e-24)
(18.9937221 1.30865115 -1.90292094e-24)
(20.3860742 1.17060861 -5.82888142e-24)
(22.1887188 -0.157594518 5.42505115e-26)
(23.0185085 -0.0402646508 1.44865184e-23)
(23.0556203 1.09619533 2.66191835e-23)
(23.2843816 1.31714545 -5.5547037e-24)
(23.4321964 0.599677496 -3.24210225e-23)
(23.4079305 0.233363538 -1.85179211e-23)
(-0.0215718919 0.01768777 2.30607659e-27)
(-0.0652433001 0.0531010669 4.76224803e-29)
(-0.110256388 0.0890567154 -5.13096331e-29)
(-0.156540903 0.12541278 4.8840417e-29)
(-0.203850049 0.161919965 0)
(-0.251862449 0.198279066 -3.02611542e-26)
(-0.300256074 0.234195083 9.66440424e-35)
(-0.348708009 0.269392078 3.82855678e-26)
(-0.396929147 0.30362888 4.26352492e-26)
(-0.444670162 0.336705672 9.44053682e-26)
(-0.491721332 0.368463071 5.21070364e-26)
(-0.537907422 0.398777382 9.96722962e-29)
(-0.583079809 0.427554112 9.39465061e-29)
(-0.627107914 0.454721304 6.83284289e-26)
(-0.669871332 0.480223708 7.45282324e-26)
(-0.711253329 0.504018271 1.69376286e-28)
(-0.751135875 0.526071053 -8.84282373e-26)
(-0.789396089 0.546355408 -1.92255958e-25)
(-0.825903821 0.564851194 -1.0458596e-25)
(-0.860520072 0.581544737 -1.00614202e-28)
(-0.893095985 0.596429297 1.67718257e-28)
(-0.923472093 0.609505854 2.46084299e-28)
(-0.951477449 0.620784165 0)
(-0.976928578 0.630284035 -7.87527523e-28)
(-0.999627951 0.638036124 1.7283469e-25)
(-1.01936133 0.644082345 -1.15179513e-28)
(-1.03589012 0.64847714 -2.03872799e-25)
(-1.0489485 0.651288561 -2.22284125e-25)
(-1.05827257 0.652582042 -2.42707555e-25)
(-1.06353191 0.652399408 2.54677455e-25)
(-1.06428736 0.650929338 3.17716451e-27)
(-1.06027679 0.648013336 -5.38851015e-25)
(-1.05101515 0.644040471 -3.10061272e-25)
(-1.0363109 0.639009211 0)
(-1.0156027 0.633526975 0)
(-0.987179317 0.627234696 5.96858085e-27)
(-0.949804605 0.619908391 0)
(-0.902396731 0.611484075 -1.71082437e-26)
(-0.844331524 0.602157228 -4.98272955e-25)
(-0.774276936 0.592381852 -4.66436862e-26)
(-0.690854517 0.58219439 5.42290478e-25)
(-0.592231102 0.571539747 0)
(-0.476565602 0.560378799 0)
(-0.342462077 0.548351434 -6.72515983e-25)
(-0.186842009 0.535715225 -6.46525203e-25)
(-0.00864223677 0.524610636 -4.63508168e-26)
(0.188603547 0.516079247 0)
(0.423480327 0.506314373 0)
(0.695270266 0.494643666 -8.196849e-25)
(1.00770323 0.482349451 -7.48502241e-25)
(1.36572465 0.470612299 7.88918558e-26)
(1.77483434 0.459796127 0)
(2.2393834 0.44978147 5.77644646e-25)
(2.76447728 0.440690895 7.58183123e-25)
(3.3552076 0.432649283 1.13402504e-24)
(4.01573657 0.425901673 5.39840337e-25)
(4.74918964 0.421189858 3.90682206e-25)
(5.55851511 0.419780381 4.5260002e-32)
(6.44488234 0.422982992 -6.39918349e-32)
(7.40533037 0.431795293 -1.56206425e-24)
(8.43557913 0.447556855 -1.55586306e-24)
(9.51957861 0.473829956 2.09939241e-24)
(10.6492101 0.51138345 3.2201639e-24)
(11.8192883 0.554511616 0)
(13.0365131 0.586446967 5.76442585e-24)
(14.2910386 0.622198842 1.09496907e-23)
(15.5365201 0.676631525 6.67367399e-24)
(16.8566575 0.690184916 0)
(18.0952609 0.721737018 -3.5864484e-26)
(19.0976847 1.02736449 8.87185986e-24)
(20.2263219 1.1900453 8.39229354e-24)
(21.4987459 0.83637853 0)
(22.5134094 0.905846666 0)
(23.0577846 1.31541434 2.09910736e-24)
(23.4372774 1.2890209 -2.04903437e-24)
(23.5211808 0.898957499 1.01644822e-23)
(23.5514383 0.922027234 2.31179796e-23)
(23.5308441 1.09342705 0)
(23.4281015 1.16875311 -3.66210276e-24)
(23.3928623 1.07158144 2.47567137e-23)
(-0.0235462047 0.0178145702 -4.70163276e-29)
(-0.071644893 0.0539190981 -7.32416036e-29)
(-0.121496781 0.0909384602 7.67456664e-27)
(-0.17285849 0.128624035 -9.16167608e-27)
(-0.225335141 0.166641258 -1.05157709e-26)
(-0.278482634 0.204624472 0)
(-0.331840819 0.242220698 -2.72680903e-26)
(-0.385021457 0.279126966 -3.0100754e-26)
(-0.437668049 0.315087306 -3.36575458e-26)
(-0.489474972 0.34989046 -3.71667948e-26)
(-0.540187321 0.383369491 -4.13873799e-26)
(-0.58958935 0.415395652 -7.62695977e-35)
(-0.637494024 0.445870268 -3.50798874e-28)
(-0.683732503 0.474717063 -4.81041905e-34)
(-0.728144809 0.501875761 4.19304589e-28)
(-0.770572294 0.527297291 -6.28997152e-26)
(-0.810852008 0.550940591 6.8057195e-26)
(-0.848812743 0.572770807 1.06499544e-27)
(-0.884272338 0.592758679 -7.84695061e-26)
(-0.917036038 0.610881044 -1.29500895e-27)
(-0.9468954 0.62712227 2.91683863e-27)
(-0.973627052 0.641475341 9.92572182e-26)
(-0.99698328 0.653939236 1.07575516e-25)
(-1.0166909 0.664517335 -1.91623262e-27)
(-1.0324615 0.673219414 0)
(-1.04398318 0.680044364 -2.33765614e-27)
(-1.05087214 0.684990615 0)
(-1.05278427 0.688090694 -1.58470621e-25)
(-1.04939582 0.689522362 -3.25779679e-25)
(-1.04036708 0.689521907 -1.8898889e-25)
(-1.02556978 0.688146135 2.18309982e-25)
(-1.00352277 0.68553499 2.61587158e-25)
(-0.973525889 0.681422906 -1.9028573e-26)
(-0.934435136 0.675676488 -1.06610875e-26)
(-0.884597379 0.668489489 2.86792288e-25)
(-0.824033204 0.659956824 3.09588063e-25)
(-0.751315799 0.650471479 0)
(-0.665151469 0.640099377 -3.62513363e-25)
(-0.563906164 0.628869812 -3.75314127e-25)
(-0.445824773 0.61681891 -3.95703272e-26)
(-0.309555809 0.603717013 -4.45333218e-26)
(-0.152408179 0.589887295 0)
(0.0273330858 0.577428904 0)
(0.225100658 0.567093766 0)
(0.460845912 0.555137927 -6.37934954e-26)
(0.73163854 0.54176231 -5.71467794e-25)
(1.04172525 0.528830504 -4.76227064e-25)
(1.39624966 0.51701707 0)
(1.79958424 0.506384337 0)
(2.25649974 0.497110641 -5.01351724e-25)
(2.77184369 0.489515982 -3.48870614e-25)
(3.35062907 0.483809574 -3.76816707e-25)
(3.99739487 0.48063017 -2.34906581e-25)
(4.71588907 0.481221667 3.12011503e-25)
(5.50937166 0.486672455 2.49380809e-25)
(6.37909196 0.497761803 -7.01126657e-25)
(7.32414957 0.515171727 -1.19798924e-24)
(8.34008088 0.539515308 -2.48921562e-24)
(9.42075642 0.57210275 0)
(10.5507979 0.615524101 -5.43528226e-25)
(11.7233968 0.67097619 -4.04068643e-24)
(12.9233114 0.740007984 -8.54130567e-24)
(14.1365629 0.825625113 5.8434964e-25)
(15.344718 0.924432153 5.98431508e-25)
(16.563576 1.00306785 -7.7683666e-24)
(17.8000247 1.05853518 7.4477411e-24)
(18.9667799 1.12003489 8.36149332e-24)
(20.1219927 1.20445108 -1.35750949e-24)
(21.1778895 1.19018662 -4.14752738e-24)
(22.1725358 1.24348856 -1.25565687e-23)
(22.8249404 1.42367234 9.43442535e-26)
(23.3267012 1.49294468 -1.9549686e-23)
(23.4659207 1.3691627 -1.11388623e-23)
(23.531893 1.41884674 0)
(23.5606136 1.41005228 -9.23613052e-24)
(23.513477 1.3884622 -4.35713308e-23)
(23.5024866 1.3070046 2.83725079e-24)
(23.5134434 1.2067569 9.55389674e-24)
(23.5114164 1.24362846 1.31287508e-23)
(23.4638464 1.22001404 2.25336076e-23)
(-0.025324257 0.0176398679 1.47916307e-27)
(-0.0774358878 0.053680443 0)
(-0.131692974 0.0908538488 0)
(-0.187684054 0.12882592 2.36824431e-30)
(-0.244859781 0.167195439 0)
(-0.30264091 0.205550854 0)
(-0.360479473 0.243508581 0)
(-0.417862248 0.280730761 1.01166114e-27)
(-0.474343892 0.316946469 0)
(-0.529602717 0.351949315 -5.78428951e-28)
(-0.583322592 0.3855784 -3.19367274e-26)
(-0.635240098 0.417704722 -8.20166561e-34)
(-0.685122857 0.448230881 3.45049507e-26)
(-0.732756243 0.477082664 0)
(-0.777932493 0.504201746 8.02684833e-28)
(-0.820441971 0.529540568 -1.74010589e-27)
(-0.860066532 0.553059201 0)
(-0.896574673 0.574723992 -4.7608482e-26)
(-0.929718308 0.594506824 -2.19676732e-27)
(-0.959221151 0.612383518 1.05203407e-25)
(-0.984777739 0.628326434 6.20832107e-26)
(-1.00608572 0.642260541 -2.72492639e-27)
(-1.02272963 0.654231993 0)
(-1.0344189 0.664237926 7.86916519e-26)
(-1.04083188 0.672371348 8.1533185e-26)
(-1.04164379 0.678768734 8.20042902e-26)
(-1.03633347 0.683470534 9.434765e-26)
(-1.02408531 0.68637112 -1.05709683e-25)
(-1.00413809 0.687435293 -1.1342669e-25)
(-0.975561231 0.686584643 0)
(-0.93710073 0.683832936 1.24336708e-25)
(-0.888461731 0.679447822 1.31710288e-25)
(-0.828492048 0.673616632 -1.41501564e-26)
(-0.756061429 0.66644452 1.47047991e-25)
(-0.66989425 0.658028359 1.77639546e-25)
(-0.568410024 0.648445027 3.69880073e-26)
(-0.44988703 0.637771718 -2.05342724e-26)
(-0.312923605 0.625845971 2.29982167e-25)
(-0.155064763 0.613000376 1.7231752e-25)
(0.0254813953 0.601268601 -2.15244003e-25)
(0.224160666 0.591299354 -6.86430493e-25)
(0.460379199 0.579830986 -4.09116407e-25)
(0.730859343 0.567237211 0)
(1.03965145 0.555470199 7.24775367e-26)
(1.39152971 0.545097621 2.87801969e-25)
(1.7904954 0.536215329 8.78616739e-26)
(2.24118491 0.529232537 -1.85274092e-32)
(2.74853305 0.524518221 1.21577385e-25)
(3.31740563 0.522622898 0)
(3.95239196 0.524480431 1.28359691e-25)
(4.65712908 0.531200326 2.063e-25)
(5.43477471 0.543624105 -2.23601147e-25)
(6.28697791 0.562464847 6.91986396e-25)
(7.21347047 0.588408817 6.94948451e-26)
(8.21195811 0.622284129 -1.032861e-24)
(9.2764847 0.664979511 -1.45671013e-24)
(10.3984421 0.717439769 -6.26665372e-24)
(11.5619394 0.781030382 -4.93980738e-24)
(12.7578707 0.85609385 -4.98654635e-24)
(13.9723492 0.940233536 -6.21656507e-24)
(15.199998 1.0344617 0)
(16.4117633 1.13782445 5.94960247e-25)
(17.597906 1.25876801 -5.68367518e-24)
(18.7105865 1.39473349 -7.19159598e-24)
(19.7884733 1.51882897 -3.66669373e-26)
(20.8314913 1.59439459 0)
(21.810553 1.62635017 1.36100208e-23)
(22.6541954 1.64937594 1.4918946e-23)
(23.23182 1.68593053 1.47742749e-24)
(23.4429432 1.66618774 -1.61824324e-24)
(23.4792249 1.72989402 -2.71165571e-26)
(23.4942361 1.75057484 -2.9069717e-24)
(23.478861 1.75693746 -1.22086063e-23)
(23.472274 1.68840193 -1.50515191e-23)
(23.4785815 1.66000884 -1.17515873e-24)
(23.4918082 1.59929103 0)
(23.4996779 1.54535734 -1.22343251e-23)
(23.5022484 1.46205802 -2.0066332e-23)
(23.4930029 1.45530443 0)
(23.4782779 1.38144282 -1.72937381e-23)
(-0.0272475509 0.0174264592 -3.47607905e-27)
(-0.0835655606 0.0531578055 -6.19150405e-27)
(-0.142328932 0.0900744578 -6.57573065e-27)
(-0.202955627 0.127773057 2.82254813e-28)
(-0.264737991 0.165802931 8.03395239e-27)
(-0.326959711 0.203718088 6.36112946e-28)
(-0.388954241 0.241117235 -9.97041482e-27)
(-0.450130905 0.277660722 -9.29621421e-27)
(-0.509991967 0.313067771 -7.58842627e-28)
(-0.568067965 0.347129962 -1.60638122e-27)
(-0.624045421 0.379690005 9.99797494e-27)
(-0.677598443 0.410637827 3.32426611e-26)
(-0.728439907 0.439885093 2.25265362e-26)
(-0.776298942 0.46736693 2.17176227e-26)
(-0.820907851 0.493034953 -1.11098447e-27)
(-0.861991107 0.516851754 -2.51094102e-26)
(-0.899250716 0.538786578 0)
(-0.932363588 0.558813382 0)
(-0.961012659 0.576865397 -2.83474637e-26)
(-0.984795166 0.593000013 -6.27188812e-26)
(-1.00340444 0.607230324 -2.54947746e-26)
(-1.01642851 0.619647589 -1.89174538e-26)
(-1.02331772 0.630091947 -1.20337235e-33)
(-1.02342866 0.638595362 2.34489192e-26)
(-1.01607002 0.645130145 -1.74615863e-26)
(-1.00040583 0.649623661 -4.94556391e-26)
(-0.975671311 0.652171414 -2.1952824e-26)
(-0.941253426 0.65297847 5.84557915e-27)
(-0.896214526 0.652119291 -6.33032396e-27)
(-0.83950513 0.649664341 1.37238365e-26)
(-0.76997174 0.645689548 0)
(-0.686292605 0.640294842 -6.7719314e-26)
(-0.586859874 0.633592475 1.73283915e-26)
(-0.469953268 0.625671881 8.15202301e-26)
(-0.33407524 0.616411158 0)
(-0.176921934 0.606123707 4.84048969e-26)
(0.00320950776 0.596681995 1.49416375e-26)
(0.202330792 0.588649619 0)
(0.438138563 0.579459538 0)
(0.707721677 0.569425929 6.24594292e-26)
(1.0148282 0.56041737 8.09154629e-26)
(1.36395127 0.553023902 -1.43377952e-25)
(1.75883245 0.547424572 0)
(2.2038841 0.544169503 1.20030633e-26)
(2.70388045 0.543882054 2.29356732e-26)
(3.26344625 0.547270419 1.2079817e-25)
(3.88684123 0.555160694 -1.12473477e-25)
(4.57751716 0.568508626 -4.61223625e-28)
(5.33852608 0.588097691 0)
(6.17177102 0.614665798 -3.5141217e-25)
(7.07776425 0.649039095 3.31351094e-25)
(8.05505816 0.692055846 1.02761818e-24)
(9.09987695 0.74449756 4.13138371e-25)
(10.2046707 0.807042159 -1.31989911e-24)
(11.3590945 0.880239027 -4.98983887e-24)
(12.5450402 0.96580788 6.33234642e-32)
(13.7495296 1.06321336 2.75330386e-24)
(14.9593439 1.16827143 0)
(16.1639572 1.27992998 0)
(17.3438151 1.39262641 5.37126339e-25)
(18.4972666 1.51002325 5.49667411e-25)
(19.5755638 1.62138423 0)
(20.595305 1.74536298 8.78531992e-24)
(21.4763034 1.86144985 7.64658862e-24)
(22.3095537 1.96704406 -1.11801328e-23)
(22.9653482 2.01279773 -3.5356559e-23)
(23.3560741 2.05581842 -1.34628249e-23)
(23.4573365 2.03436812 -7.19379767e-24)
(23.477631 2.06460451 -7.29187634e-24)
(23.4650719 2.06829915 -1.72742685e-24)
(23.4620972 1.97570174 1.79849904e-23)
(23.4614123 1.95540789 9.90910461e-24)
(23.4753578 1.9149183 -1.4809234e-23)
(23.496889 1.8353565 -1.2152029e-23)
(23.492395 1.80088587 -1.37844125e-23)
(23.4825356 1.80644265 -1.11048585e-23)
(23.5259267 1.70591566 -1.75490681e-23)
(23.5380821 1.68038421 1.87095997e-31)
(23.5451758 1.67592099 2.75882334e-23)
(23.5298482 1.66052597 3.10181701e-23)
(-0.0295504223 0.0172962 2.00787841e-27)
(-0.0906627656 0.0527279889 -2.95166741e-28)
(-0.15435223 0.0892482764 7.61582558e-27)
(-0.219858863 0.126398931 5.17402858e-34)
(-0.286311918 0.16369662 -7.54042611e-27)
(-0.352855699 0.200676514 -6.90730496e-27)
(-0.418707152 0.236929885 -1.52827281e-26)
(-0.483177778 0.272118227 -6.74946989e-27)
(-0.545676365 0.305972046 -7.39070988e-27)
(-0.605693503 0.338289541 -6.92041058e-27)
(-0.662807574 0.368930344 -6.22320009e-27)
(-0.71664484 0.397794544 -4.39826234e-27)
(-0.766845272 0.424813818 -4.55376324e-27)
(-0.813063795 0.44994236 -4.76752601e-27)
(-0.854951709 0.473151676 -1.28242689e-27)
(-0.892165433 0.494388586 -1.36951204e-27)
(-0.924272489 0.513731784 -1.53293811e-27)
(-0.950912655 0.53108977 4.78706441e-27)
(-0.971574029 0.546547972 3.37768062e-27)
(-0.985719129 0.560008371 3.62342006e-27)
(-0.99268563 0.571471925 2.16268378e-26)
(-0.991809217 0.580946389 2.22750313e-26)
(-0.982504602 0.588577474 0)
(-0.964003512 0.594386133 -4.84592766e-27)
(-0.935432949 0.598418655 0)
(-0.895829778 0.600728777 0)
(-0.844135175 0.601379782 -6.04697466e-27)
(-0.779171962 0.600468502 -1.82467985e-26)
(-0.699602429 0.59812333 -4.01432068e-26)
(-0.603856876 0.594485271 4.70763938e-26)
(-0.490193813 0.589676244 2.20130757e-26)
(-0.356981973 0.583606167 -1.78587616e-26)
(-0.202024706 0.576526795 1.91099607e-26)
(-0.0237496543 0.570092825 0)
(0.174647192 0.564852041 -2.20188826e-26)
(0.408583336 0.558958386 0)
(0.67598912 0.552559339 0)
(0.980279961 0.547332235 -2.79853221e-26)
(1.32570973 0.543951089 0)
(1.71573207 0.542770418 0)
(2.15447732 0.544407749 7.74310356e-26)
(2.64638447 0.549481407 2.75971903e-26)
(3.19571003 0.558701994 0)
(3.80639839 0.572883632 0)
(4.48178261 0.592937501 0)
(5.22482357 0.619715594 -1.13795446e-25)
(6.03760801 0.654052083 -1.26512773e-25)
(6.92097623 0.696779233 8.97298815e-25)
(7.87413211 0.74868782 9.97374826e-25)
(8.89417617 0.810436573 1.28852576e-24)
(9.97573107 0.882534633 1.63678587e-24)
(11.1100115 0.965218687 2.25443693e-24)
(12.2856443 1.05841588 2.75317931e-24)
(13.4834002 1.16326072 0)
(14.6888598 1.27853902 0)
(15.8856158 1.40216138 -2.78469078e-24)
(17.0561157 1.53392361 -6.48072676e-24)
(18.1841459 1.66636445 -3.71788435e-24)
(19.2600829 1.79491701 -3.89285021e-24)
(20.2665163 1.91086404 -3.00785765e-24)
(21.2022839 2.02366924 8.69149903e-24)
(22.0085237 2.10281859 1.84797218e-23)
(22.747934 2.17999809 6.25360399e-25)
(23.2342188 2.23953573 -1.62907558e-23)
(23.4140178 2.31128602 6.05488302e-25)
(23.4429677 2.35213371 -1.39884454e-24)
(23.4466101 2.37533424 5.37622204e-24)
(23.4298748 2.37545756 -1.83514044e-31)
(23.4412537 2.31746449 -8.92324375e-24)
(23.4555005 2.2672625 -1.58194951e-24)
(23.4479218 2.24512973 1.05431043e-23)
(23.4462427 2.21619839 8.99726048e-24)
(23.4752867 2.14221484 0)
(23.4925309 2.09107414 1.34871591e-24)
(23.5066712 2.0516342 0)
(23.5221592 2.0093085 1.42789673e-23)
(23.5668653 1.97012116 2.94849655e-23)
(23.640699 1.87420104 1.53047227e-23)
(23.7497395 1.83650051 1.56136953e-23)
(23.6997321 1.89103587 2.99121485e-23)
(-0.032280453 0.0172240474 2.17076943e-27)
(-0.0988053881 0.0523494598 7.07737356e-27)
(-0.167801126 0.0883561727 3.15538306e-28)
(-0.238318755 0.124746237 -6.8838837e-27)
(-0.30931688 0.161018346 -6.45607745e-27)
(-0.379793451 0.1967025 -5.56150826e-27)
(-0.448840969 0.231394493 7.89453241e-28)
(-0.515664439 0.264768755 5.17262737e-27)
(-0.579581091 0.296576472 4.41564418e-27)
(-0.640010908 0.326626877 3.69246625e-27)
(-0.696407545 0.354798693 0)
(-0.748323845 0.381004301 2.1649409e-27)
(-0.795303604 0.405229359 -1.15692435e-27)
(-0.836944183 0.427419973 0)
(-0.872768711 0.447584962 0)
(-0.902263886 0.465759952 0)
(-0.92489384 0.481850421 0)
(-0.940070878 0.495996448 1.62690241e-27)
(-0.947176943 0.508197657 0)
(-0.945503894 0.518506675 -1.82219958e-26)
(-0.934259543 0.526963888 -2.10302604e-26)
(-0.91254962 0.533628362 6.11104755e-26)
(-0.879416971 0.538567749 6.38589047e-26)
(-0.833783206 0.541880849 -7.59260113e-26)
(-0.774455159 0.543682602 -7.24604162e-26)
(-0.700098695 0.54410944 -8.48623578e-26)
(-0.609194862 0.543326769 -9.62610546e-26)
(-0.500059941 0.541499797 -7.46117199e-26)
(-0.370960993 0.538581877 -1.9752312e-25)
(-0.219724008 0.534753165 -1.42124188e-25)
(-0.0446711867 0.531412369 0)
(0.15126717 0.529187657 1.8122909e-26)
(0.381782253 0.526863335 1.98528678e-26)
(0.645205346 0.524398786 0)
(0.945153713 0.523245521 -2.31795455e-26)
(1.28524094 0.524205281 0)
(1.66872478 0.52770827 0)
(2.09950046 0.53434478 1.62205617e-25)
(2.58162391 0.544762254 3.22498781e-26)
(3.1190217 0.559699406 -2.59605382e-25)
(3.71540701 0.579992415 2.7638196e-25)
(4.37400454 0.606571868 3.8742599e-25)
(5.09762175 0.640334722 -4.65191113e-26)
(5.8883559 0.682125265 0)
(6.74721095 0.732751245 8.74813804e-25)
(7.67378092 0.792945927 8.3199329e-25)
(8.66589813 0.863302223 0)
(9.71928947 0.944218833 0)
(10.8271458 1.03584874 -1.66687163e-24)
(11.9796676 1.13796484 -2.05046053e-24)
(13.1640523 1.25000507 2.69733069e-24)
(14.3615299 1.37195259 3.22872876e-24)
(15.5549132 1.50240153 -3.023339e-24)
(16.7273253 1.6384585 6.34997378e-32)
(17.8624721 1.77806023 3.7669016e-24)
(18.9404237 1.91633664 1.96397015e-26)
(19.9414437 2.05684922 0)
(20.8441397 2.18671344 5.12567346e-25)
(21.6574622 2.29978675 -4.00168435e-24)
(22.3698252 2.37777251 6.49724674e-25)
(22.9638614 2.44761604 7.38621086e-24)
(23.3489682 2.49318357 0)
(23.4344984 2.4840801 7.53182934e-25)
(23.4481381 2.53808618 0)
(23.4335089 2.55857611 3.6624669e-25)
(23.4372574 2.50506872 -7.01804965e-25)
(23.4315846 2.51747981 -9.59413255e-25)
(23.4299687 2.49134415 -9.63870335e-24)
(23.4264942 2.48762217 -1.20113595e-23)
(23.4327526 2.45323275 -9.4781368e-25)
(23.4431397 2.41874777 -1.42922316e-23)
(23.4493168 2.38273683 -9.30496639e-24)
(23.4620895 2.35145867 -1.32772132e-23)
(23.5174812 2.29294563 -1.40083392e-23)
(23.5951954 2.2424034 -1.5411907e-23)
(23.6208632 2.23974319 -1.55926354e-23)
(23.6649624 2.23827175 1.44792346e-23)
(23.754627 2.17110114 1.4803552e-23)
(23.923693 2.05798633 -3.29519024e-24)
(23.9208283 2.02936211 2.10209738e-24)
(-0.0352377073 0.0170590766 2.02198117e-27)
(-0.107350677 0.0516197463 -6.17996713e-27)
(-0.181532298 0.0867943909 2.72566129e-28)
(-0.256628012 0.122060315 2.83340174e-34)
(-0.331415031 0.156911453 -4.27948516e-27)
(-0.404734896 0.190885895 3.27644727e-28)
(-0.475545783 0.223595584 -1.75517807e-27)
(-0.542935437 0.25473529 -5.64685817e-34)
(-0.606112716 0.28408009 -5.06855471e-27)
(-0.664382464 0.311488053 -4.78616605e-27)
(-0.717141643 0.336846237 -9.11995522e-28)
(-0.763791655 0.360117726 -8.99399573e-27)
(-0.803773487 0.381249466 -1.35438563e-26)
(-0.83649926 0.400293974 -1.54902093e-26)
(-0.861375581 0.41726229 -1.90968668e-26)
(-0.877752153 0.432202109 2.29761644e-26)
(-0.884914617 0.445168752 2.71752583e-26)
(-0.88207099 0.45623294 1.52375786e-27)
(-0.868359004 0.465459988 0)
(-0.842784492 0.472960494 -4.25470537e-26)
(-0.804307912 0.478838595 -4.58477724e-26)
(-0.751746771 0.4832299 4.07766881e-27)
(-0.683787121 0.486288462 5.62750614e-26)
(-0.598953931 0.488197462 5.62780347e-26)
(-0.495609498 0.48914241 1.04481121e-26)
(-0.372037226 0.489144931 0)
(-0.226129472 0.488413894 -6.01097767e-27)
(-0.0561187344 0.488121468 1.18935678e-28)
(0.135622599 0.488834154 -1.51923603e-25)
(0.360800855 0.489817882 -1.60154438e-25)
(0.618549503 0.49101631 2.08012441e-25)
(0.912167718 0.493718729 2.61640964e-25)
(1.24484209 0.4987625 3.94902085e-26)
(1.61979894 0.506600495 -2.74960591e-25)
(2.04059804 0.517831373 1.66257775e-32)
(2.51096943 0.533143428 3.07020274e-25)
(3.03458343 0.553313201 -3.17540494e-25)
(3.61491469 0.579185272 -3.95306215e-25)
(4.25503856 0.61167657 6.75701981e-26)
(4.95760869 0.651695162 -3.68009367e-26)
(5.72470129 0.700087743 -4.13242538e-26)
(6.55743857 0.757657333 -7.66548072e-25)
(7.45571063 0.825128949 -1.90565905e-24)
(8.41786572 0.903086054 -1.12550427e-24)
(9.44040174 0.991903899 -1.23971749e-24)
(10.5176714 1.09168587 -1.65291107e-24)
(11.6415874 1.20217972 0)
(12.8014334 1.32274811 2.54699337e-24)
(13.9831123 1.45235847 3.0129871e-24)
(15.1686831 1.5897817 3.39617065e-24)
(16.33843 1.73336949 7.062786e-24)
(17.4748547 1.87978716 7.35786857e-24)
(18.5602705 2.02637291 7.84885834e-24)
(19.5760819 2.16874512 8.31779597e-24)
(20.5061596 2.30572189 4.32020677e-24)
(21.3321496 2.42548214 -7.40659015e-25)
(22.0466751 2.54165055 0)
(22.6161319 2.62262141 -4.75314972e-24)
(23.1142871 2.6991462 -5.72160119e-24)
(23.3804102 2.73707284 0)
(23.4280549 2.74622492 -5.38908266e-24)
(23.4285473 2.78874296 -5.54905023e-24)
(23.4151978 2.78697094 0)
(23.421274 2.73911624 -4.93128706e-25)
(23.4210791 2.71769783 0)
(23.4156225 2.71953675 -1.15792646e-23)
(23.4253635 2.65968379 -2.04707143e-24)
(23.4215347 2.64613313 1.34242303e-23)
(23.4220416 2.63847756 -9.60187156e-25)
(23.453971 2.58412375 -1.44108877e-24)
(23.4526329 2.57242641 -1.06773312e-23)
(23.4546273 2.5666354 -9.46862323e-24)
(23.5312263 2.50750686 -1.25239978e-24)
(23.6040094 2.47771134 -1.24124776e-24)
(23.7099306 2.41995755 -7.01934145e-26)
(23.8100448 2.39404488 -1.35548391e-24)
(23.8321443 2.43289817 1.63148227e-23)
(23.8443854 2.47419694 2.87435197e-23)
(23.9665319 2.38682485 1.22609961e-23)
(24.0380734 2.28516492 -2.97085652e-24)
(-0.0380075367 0.0165955621 0)
(-0.115039284 0.0499702558 1.78356617e-28)
(-0.193408748 0.0836797439 -1.9186928e-28)
(-0.271736559 0.117193529 2.15488888e-27)
(-0.348605821 0.150014895 -2.19628179e-28)
(-0.42268984 0.181707686 -2.35695163e-28)
(-0.492806396 0.211911337 -4.42085077e-27)
(-0.557905086 0.240357836 0)
(-0.617059169 0.266858014 -5.93671072e-28)
(-0.669442987 0.291277675 -1.28468117e-26)
(-0.714295589 0.313576843 -1.69232829e-26)
(-0.750898133 0.333731922 2.01589852e-26)
(-0.778529594 0.351766473 -8.04006429e-28)
(-0.796444771 0.367732155 -5.89424848e-26)
(-0.803852588 0.381703482 -6.82228851e-26)
(-0.799888926 0.393782291 -4.03738428e-26)
(-0.783625502 0.404057426 1.1221531e-27)
(-0.753970528 0.412680725 -5.05426411e-26)
(-0.709817684 0.419787799 -5.81995984e-26)
(-0.64989035 0.425560339 -1.48789667e-27)
(-0.572774487 0.430197039 1.58165233e-27)
(-0.476882455 0.433894541 7.04679223e-27)
(-0.360561043 0.436746241 -8.31197026e-26)
(-0.221800841 0.439022509 -2.02895877e-25)
(-0.0588804079 0.441721012 -1.08164514e-25)
(0.126652968 0.445251856 4.87368658e-27)
(0.344770621 0.44925664 -1.1533223e-25)
(0.594801911 0.453843095 -5.95904303e-27)
(0.879878996 0.460153437 6.50098941e-27)
(1.2030754 0.468935328 -1.52907693e-25)
(1.56742152 0.48067949 0)
(1.97619436 0.496017478 -3.28726441e-25)
(2.43284712 0.515671223 1.88611458e-26)
(2.9407953 0.540429046 3.85790775e-25)
(3.5032925 0.571133408 4.3107199e-25)
(4.12327106 0.608689498 4.8585345e-25)
(4.80325687 0.654012026 2.81261027e-26)