/*--------------------------------*- C++ -*----------------------------------*\
  =========                 |
  \\      /  F ield         | OpenFOAM: The Open Source CFD Toolbox
   \\    /   O peration     | Website:  https://openfoam.org
    \\  /    A nd           | Version:  8
     \\/     M anipulation  |
\*---------------------------------------------------------------------------*/
FoamFile
{
    version     2.0;
    format      ascii;
    class       volScalarField;
    location    "0.016";
    object      p;
}
// * * * * * * * * * * * * * * * * * * * * * * * * * * * * * * * * * * * * * //

dimensions      [1 -1 -2 0 0 0 0];

internalField   nonuniform List<scalar> 
42400
(
101315.27
101315.258
101315.245
101315.233
101315.223
101315.213
101315.205
101315.197
101315.191
101315.185
101315.181
101315.178
101315.176
101315.175
101315.176
101315.177
101315.18
101315.184
101315.189
101315.196
101315.203
101315.211
101315.221
101315.232
101315.243
101315.256
101315.269
101315.284
101315.299
101315.315
101315.333
101315.351
101315.369
101315.389
101315.409
101315.43
101315.451
101315.481
101315.522
101315.567
101315.6
101315.616
101315.628
101315.641
101315.669
101315.712
101315.759
101315.811
101315.865
101315.923
101315.982
101316.062
101316.159
101316.277
101316.388
101316.49
101316.628
101316.8
101316.999
101317.216
101317.46
101317.736
101318.052
101318.413
101318.809
101319.238
101319.727
101320.176
101320.663
101321.593
101321.953
101321.907
101324.083
101326.732
101327.123
101327.193
101328.955
101332.447
101335.517
101336.469
101314.473
101314.464
101314.453
101314.444
101314.436
101314.428
101314.422
101314.416
101314.411
101314.407
101314.404
101314.402
101314.401
101314.401
101314.403
101314.405
101314.408
101314.412
101314.418
101314.424
101314.431
101314.439
101314.448
101314.459
101314.469
101314.481
101314.493
101314.506
101314.52
101314.535
101314.55
101314.565
101314.58
101314.596
101314.618
101314.648
101314.68
101314.701
101314.707
101314.711
101314.723
101314.746
101314.775
101314.805
101314.838
101314.871
101314.901
101314.942
101315.003
101315.08
101315.141
101315.185
101315.257
101315.356
101315.476
101315.606
101315.752
101315.922
101316.123
101316.36
101316.638
101316.952
101317.3
101317.695
101318.149
101318.651
101319.264
101319.91
101320.399
101321.433
101322.456
101322.689
101324.008
101325.351
101326.361
101328.985
101333.151
101335.943
101336.641
101338.864
101313.559
101313.551
101313.544
101313.537
101313.53
101313.525
101313.52
101313.517
101313.514
101313.511
101313.51
101313.51
101313.511
101313.512
101313.515
101313.519
101313.523
101313.529
101313.536
101313.544
101313.552
101313.562
101313.573
101313.584
101313.597
101313.61
101313.624
101313.639
101313.653
101313.668
101313.686
101313.708
101313.733
101313.76
101313.779
101313.788
101313.795
101313.81
101313.833
101313.858
101313.883
101313.91
101313.935
101313.956
101313.992
101314.054
101314.12
101314.141
101314.156
101314.212
101314.289
101314.368
101314.455
101314.555
101314.673
101314.815
101314.987
101315.188
101315.423
101315.695
101316.012
101316.382
101316.805
101317.28
101317.835
101318.442
101319.177
101320.038
101320.788
101321.666
101322.506
101323.237
101324.914
101327.655
101330.91
101333.127
101334.83
101337.38
101340.226
101341.854
101312.559
101312.553
101312.547
101312.542
101312.537
101312.534
101312.53
101312.528
101312.527
101312.527
101312.527
101312.529
101312.532
101312.536
101312.54
101312.547
101312.554
101312.562
101312.572
101312.583
101312.595
101312.608
101312.622
101312.638
101312.654
101312.671
101312.689
101312.71
101312.733
101312.758
101312.78
101312.799
101312.817
101312.835
101312.858
101312.886
101312.915
101312.943
101312.973
101313.002
101313.026
101313.063
101313.121
101313.161
101313.177
101313.211
101313.264
101313.326
101313.383
101313.445
101313.518
101313.606
101313.711
101313.834
101313.978
101314.149
101314.354
101314.601
101314.894
101315.242
101315.655
101316.141
101316.702
101317.324
101318.053
101318.849
101319.746
101320.787
101321.919
101323.655
101327.001
101329.233
101330.278
101331.199
101332.788
101335.254
101337.151
101339.255
101340.985
101342.663
101311.477
101311.472
101311.466
101311.462
101311.459
101311.456
101311.454
101311.453
101311.453
101311.454
101311.457
101311.461
101311.466
101311.472
101311.48
101311.489
101311.5
101311.512
101311.526
101311.541
101311.557
101311.573
101311.592
101311.612
101311.635
101311.659
101311.685
101311.711
101311.738
101311.766
101311.796
101311.829
101311.864
101311.899
101311.934
101311.97
101312.006
101312.037
101312.079
101312.141
101312.184
101312.207
101312.246
101312.3
101312.353
101312.406
101312.463
101312.528
101312.602
101312.685
101312.779
101312.889
101313.018
101313.173
101313.363
101313.592
101313.866
101314.194
101314.585
101315.044
101315.587
101316.239
101316.983
101317.826
101318.75
101319.858
101320.931
101322.911
101325.304
101326.254
101326.529
101328.222
101330.784
101332.565
101334.326
101335.973
101337.853
101339.815
101341.543
101343.073
101310.305
101310.3
101310.295
101310.291
101310.288
101310.286
101310.285
101310.286
101310.287
101310.29
101310.294
101310.3
101310.308
101310.317
101310.328
101310.34
101310.355
101310.37
101310.387
101310.406
101310.429
101310.455
101310.483
101310.512
101310.543
101310.576
101310.611
101310.647
101310.685
101310.724
101310.765
101310.807
101310.851
101310.895
101310.935
101310.985
101311.052
101311.103
101311.135
101311.184
101311.245
101311.304
101311.363
101311.425
101311.491
101311.562
101311.64
101311.725
101311.822
101311.934
101312.064
101312.219
101312.404
101312.626
101312.891
101313.208
101313.583
101314.03
101314.565
101315.202
101315.937
101316.824
101317.809
101318.965
101320.168
101321.501
101323.317
101324.273
101325.169
101327.151
101328.882
101330.432
101332.029
101333.685
101335.837
101338.146
101339.634
101340.573
101342.186
101344.488
101309.02
101309.015
101309.01
101309.006
101309.004
101309.003
101309.003
101309.005
101309.008
101309.013
101309.019
101309.027
101309.037
101309.048
101309.063
101309.08
101309.099
101309.122
101309.148
101309.175
101309.204
101309.236
101309.27
101309.306
101309.345
101309.386
101309.429
101309.475
101309.522
101309.572
101309.623
101309.672
101309.729
101309.802
101309.861
101309.906
101309.966
101310.036
101310.104
101310.172
101310.242
101310.316
101310.394
101310.477
101310.567
101310.667
101310.778
101310.904
101311.049
101311.217
101311.415
101311.649
101311.923
101312.244
101312.616
101313.049
101313.553
101314.142
101314.844
101315.661
101316.642
101317.704
101318.917
101320.026
101321.431
101322.896
101324.047
101325.284
101327.144
101329.268
101330.792
101332.349
101333.884
101335.48
101337.045
101338.407
101340.026
101341.685
101343.477
101345.2
101307.584
101307.579
101307.574
101307.571
101307.569
101307.569
101307.571
101307.575
101307.58
101307.588
101307.598
101307.611
101307.626
101307.644
101307.664
101307.686
101307.71
101307.738
101307.768
101307.801
101307.837
101307.876
101307.918
101307.963
101308.011
101308.061
101308.114
101308.17
101308.224
101308.286
101308.362
101308.427
101308.481
101308.55
101308.628
101308.703
101308.78
101308.86
101308.943
101309.031
101309.123
101309.222
101309.329
101309.446
101309.576
101309.723
101309.89
101310.083
101310.307
101310.569
101310.873
101311.226
101311.633
101312.096
101312.622
101313.222
101313.886
101314.576
101315.368
101316.075
101317.045
101318.837
101320.83
101322.582
101323.721
101324.765
101326.054
101328.021
101329.482
101329.978
101331.078
101333.394
101335.557
101336.903
101337.939
101339.391
101341.029
101342.376
101344.351
101346.73
101305.962
101305.958
101305.954
101305.953
101305.953
101305.956
101305.96
101305.967
101305.976
101305.988
101306.002
101306.019
101306.038
101306.06
101306.085
101306.114
101306.145
101306.18
101306.217
101306.258
101306.302
101306.35
101306.401
101306.455
101306.511
101306.568
101306.632
101306.709
101306.778
101306.839
101306.913
101306.995
101307.077
101307.16
101307.247
101307.338
101307.433
101307.533
101307.639
101307.753
101307.876
101308.011
101308.16
101308.328
101308.519
101308.738
101308.99
101309.282
101309.619
101310.007
101310.453
101310.961
101311.538
101312.185
101312.898
101313.707
101314.612
101315.484
101316.761
101318.937
101320.559
101321.204
101321.649
101322.592
101324.493
101326.533
101328.606
101329.997
101330.806
101332.455
101333.896
101334.667
101335.235
101336.668
101339.405
101342
101344.488
101346.585
101348.471
101350.179
101304.122
101304.121
101304.12
101304.121
101304.125
101304.131
101304.14
101304.151
101304.164
101304.181
101304.2
101304.222
101304.248
101304.276
101304.309
101304.344
101304.383
101304.426
101304.472
101304.522
101304.575
101304.63
101304.688
101304.752
101304.828
101304.898
101304.963
101305.04
101305.125
101305.21
101305.297
101305.388
101305.484
101305.583
101305.688
101305.799
101305.917
101306.044
101306.182
101306.332
101306.5
101306.687
101306.9
101307.143
101307.423
101307.746
101308.121
101308.552
101309.049
101309.618
101310.269
101311.011
101311.857
101312.815
101313.878
101315.051
101316.286
101317.646
101319.07
101320.123
101320.943
101321.969
101323.45
101325.244
101326.615
101327.798
101329.412
101330.804
101332.29
101333.806
101335.556
101337.788
101339.68
101341.461
101342.923
101343.972
101345.461
101347.61
101349.386
101351.268
101302.025
101302.026
101302.03
101302.035
101302.044
101302.054
101302.068
101302.085
101302.104
101302.127
101302.153
101302.183
101302.216
101302.253
101302.294
101302.338
101302.386
101302.438
101302.492
101302.552
101302.621
101302.695
101302.762
101302.829
101302.908
101302.994
101303.081
101303.171
101303.265
101303.363
101303.466
101303.574
101303.688
101303.809
101303.937
101304.076
101304.226
101304.39
101304.572
101304.776
101305.006
101305.266
101305.564
101305.904
101306.294
101306.74
101307.247
101307.818
101308.459
101309.171
101309.954
101310.829
101311.772
101312.713
101313.895
101315.5
101316.972
101318.178
101319.121
101320.141
101321.614
101322.942
101324.48
101326.307
101327.822
101329.125
101330.711
101332.421
101334.057
101336.024
101337.797
101339
101340.221
101341.83
101343.556
101345.787
101347.839
101349.697
101351.527
101352.886
101299.637
101299.643
101299.652
101299.664
101299.678
101299.696
101299.716
101299.74
101299.768
101299.799
101299.834
101299.872
101299.915
101299.962
101300.012
101300.066
101300.126
101300.193
101300.261
101300.328
101300.404
101300.486
101300.572
101300.66
101300.752
101300.849
101300.95
101301.056
101301.167
101301.284
101301.408
101301.539
101301.68
101301.831
101301.996
101302.177
101302.378
101302.602
101302.854
101303.139
101303.462
101303.829
101304.245
101304.714
101305.242
101305.829
101306.474
101307.173
101307.933
101308.736
101309.53
101310.438
101311.836
101313.585
101315
101315.962
101317.067
101318.736
101320.235
101321.535
101322.947
101324.557
101326.056
101327.325
101328.496
101329.612
101331.181
101333.304
101335.626
101337.462
101338.954
101340.476
101342.13
101343.848
101345.611
101346.999
101348.475
101350.664
101353.429
101356.012
101296.918
101296.931
101296.947
101296.966
101296.989
101297.014
101297.044
101297.077
101297.115
101297.156
101297.201
101297.251
101297.304
101297.363
101297.429
101297.496
101297.566
101297.642
101297.724
101297.81
101297.899
101297.994
101298.093
101298.197
101298.306
101298.42
101298.54
101298.667
101298.801
101298.944
101299.098
101299.265
101299.447
101299.647
101299.871
101300.121
101300.402
101300.722
101301.084
101301.497
101301.965
101302.497
101303.097
101303.773
101304.529
101305.372
101306.307
101307.338
101308.482
101309.737
101311.054
101312.432
101313.572
101314.519
101315.529
101316.761
101318.162
101319.438
101320.569
101322.008
101323.886
101325.284
101326.564
101328.068
101329.969
101332.331
101334.293
101335.557
101336.621
101337.973
101339.662
101341.098
101342.414
101344.27
101346.878
101349.508
101352.05
101354.489
101356.559
101359.04
101293.83
101293.851
101293.876
101293.905
101293.937
101293.974
101294.014
101294.058
101294.107
101294.16
101294.218
101294.282
101294.349
101294.42
101294.496
101294.579
101294.665
101294.756
101294.852
101294.952
101295.058
101295.168
101295.284
101295.406
101295.535
101295.67
101295.814
101295.967
101296.132
101296.311
101296.506
101296.721
101296.96
101297.227
101297.527
101297.866
101298.249
101298.682
101299.173
101299.726
101300.347
101301.041
101301.813
101302.664
101303.593
101304.59
101305.653
101306.778
101307.947
101309.142
101310.394
101311.599
101312.689
101313.822
101315.271
101316.748
101318.27
101319.916
101321.55
101323.086
101324.602
101326.357
101328.06
101329.55
101330.887
101332.263
101333.718
101335.399
101337.339
101339.396
101341.5
101343.902
101346.787
101349.349
101350.843
101352.037
101353.699
101355.395
101357.092
101358.847
101290.33
101290.361
101290.399
101290.439
101290.483
101290.531
101290.584
101290.642
101290.705
101290.771
101290.843
101290.92
101291.002
101291.089
101291.181
101291.278
101291.38
101291.487
101291.6
101291.718
101291.842
101291.972
101292.109
101292.254
101292.408
101292.572
101292.748
101292.94
101293.148
101293.377
101293.631
101293.914
101294.23
101294.584
101294.983
101295.431
101295.935
101296.499
101297.129
101297.829
101298.604
101299.456
101300.392
101301.412
101302.542
101303.728
101304.947
101306.203
101307.501
101308.751
101309.834
101311.232
101312.869
101314.342
101315.716
101317.201
101318.523
101319.733
101321.046
101322.313
101323.987
101326.077
101328.073
101330.004
101331.861
101333.873
101336.077
101338.185
101340.226
101342.392
101344.706
101346.681
101348.443
101349.777
101351.236
101353.563
101355.375
101357.303
101359.998
101361.624
101286.398
101286.44
101286.492
101286.546
101286.604
101286.667
101286.734
101286.807
101286.884
101286.967
101287.055
101287.148
101287.247
101287.351
101287.461
101287.576
101287.697
101287.825
101287.959
101288.101
101288.25
101288.409
101288.578
101288.76
101288.955
101289.168
101289.401
101289.657
101289.94
101290.256
101290.608
101291.002
101291.444
101291.937
101292.487
101293.097
101293.771
101294.51
101295.312
101296.175
101297.095
101298.05
101299.014
101299.992
101301.26
101302.989
101304.828
101306.566
101308.063
101309.623
101311.365
101312.878
101314.324
101315.798
101317.089
101318.714
101320.443
101321.975
101324.02
101326.466
101328.033
101328.968
101330.106
101331.577
101333.429
101335.253
101336.967
101338.954
101341.115
101343.359
101345.53
101347.549
101349.714
101351.938
101353.676
101355.344
101357.532
101359.86
101361.981
101364.061
101282.014
101282.07
101282.138
101282.207
101282.281
101282.359
101282.443
101282.532
101282.627
101282.726
101282.832
101282.944
101283.061
101283.185
101283.316
101283.453
101283.599
101283.753
101283.916
101284.09
101284.276
101284.477
101284.695
101284.932
101285.193
101285.481
101285.801
101286.157
101286.555
101287.002
101287.502
101288.062
101288.688
101289.385
101290.158
101291.012
101291.951
101292.978
101294.096
101295.308
101296.621
101298.028
101299.472
101301.4
101303.434
101304.813
101305.981
101307.233
101308.468
101309.721
101311.035
101312.304
101313.764
101315.856
101318.321
101320.209
101321.59
101322.88
101324.07
101325.411
101327.545
101329.954
101332.16
101334.133
101335.91
101337.434
101339.136
101340.774
101342.459
101344.736
101347.163
101349.506
101351.834
101353.981
101355.803
101358.148
101360.653
101362.318
101363.723
101365.49
101277.184
101277.256
101277.34
101277.426
101277.516
101277.61
101277.711
101277.816
101277.927
101278.045
101278.168
101278.298
101278.435
101278.579
101278.732
101278.894
101279.067
101279.251
101279.45
101279.664
101279.898
101280.153
101280.434
101280.745
101281.092
101281.478
101281.911
101282.395
101282.938
101283.545
101284.222
101284.975
101285.808
101286.725
101287.727
101288.816
101289.988
101291.242
101292.567
101293.954
101295.388
101296.865
101298.427
101300.054
101301.372
101302.665
101304.229
101305.871
101307.579
101309.328
101311.017
101313.126
101315.194
101316.879
101318.884
101320.799
101322.336
101323.867
101325.924
101328.492
101330.621
101332.445
101334.108
101335.66
101337.078
101338.594
101340.239
101342.292
101345.056
101347.482
101349.163
101350.614
101352.315
101354.909
101358.336
101360.197
101361.666
101364.155
101366.347
101367.983
101271.956
101272.043
101272.144
101272.247
101272.352
101272.463
101272.578
101272.699
101272.826
101272.959
101273.099
101273.247
101273.402
101273.567
101273.743
101273.931
101274.133
101274.352
101274.59
101274.851
101275.138
101275.457
101275.81
101276.205
101276.645
101277.138
101277.689
101278.303
101278.986
101279.742
101280.577
101281.492
101282.491
101283.574
101284.743
101285.998
101287.341
101288.778
101290.306
101291.929
101293.639
101295.386
101297.194
101298.536
101299.907
101301.802
101303.726
101305.603
101307.51
101309.414
101311.267
101312.724
101314.253
101316.602
101318.747
101320.951
101323.494
101325.669
101327.686
101329.338
101330.896
101332.957
101335.235
101337.459
101339.712
101341.765
101343.581
101345.706
101347.437
101348.77
101350.971
101353.995
101355.989
101357.631
101359.108
101360.995
101363.481
101365.77
101367.743
101369.786
101266.439
101266.542
101266.66
101266.779
101266.899
101267.025
101267.155
101267.292
101267.435
101267.585
101267.743
101267.911
101268.09
101268.282
101268.489
101268.714
101268.96
101269.231
101269.53
101269.863
101270.235
101270.651
101271.117
101271.64
101272.225
101272.879
101273.606
101274.412
101275.299
101276.27
101277.325
101278.46
101279.671
101280.949
101282.282
101283.643
101285.011
101286.372
101288.137
101290.436
101292.647
101294.789
101296.998
101299.247
101301.5
101303.313
101304.815
101306.722
101309.102
101311.463
101313.771
101315.712
101317.29
101318.631
101319.913
101321.237
101322.949
101325.425
101327.703
101329.825
101332.306
101334.69
101336.84
101338.827
101341.018
101343.328
101345.75
101348.189
101350.82
101353.216
101354.278
101355.651
101358.546
101360.704
101362.882
101365.118
101367.001
101369.235
101371.693
101372.624
101300.353
101300.359
101300.366
101300.373
101300.379
101300.385
101300.391
101300.397
101300.402
101300.407
101300.411
101300.415
101300.419
101300.422
101300.425
101300.427
101300.429
101300.43
101300.431
101300.431
101300.431
101300.429
101300.427
101300.424
101300.42
101300.415
101300.409
101300.402
101300.394
101300.384
101300.373
101300.36
101300.346
101300.33
101300.311
101300.291
101300.268
101300.243
101300.215
101300.183
101300.149
101300.111
101300.07
101300.024
101299.973
101299.918
101299.857
101299.79
101299.717
101299.636
101299.55
101299.454
101299.348
101299.222
101299.086
101298.944
101298.786
101298.611
101298.416
101298.2
101297.957
101297.685
101297.378
101297.03
101296.639
101296.214
101295.732
101295.201
101294.648
101293.955
101292.949
101291.916
101290.757
101289.11
101287.634
101286.368
101284.517
101282.193
101279.494
101276.913
101301.519
101301.526
101301.533
101301.54
101301.547
101301.554
101301.56
101301.566
101301.571
101301.576
101301.581
101301.585
101301.588
101301.592
101301.594
101301.596
101301.598
101301.599
101301.599
101301.598
101301.597
101301.594
101301.591
101301.587
101301.582
101301.575
101301.568
101301.559
101301.548
101301.536
101301.522
101301.506
101301.489
101301.469
101301.447
101301.422
101301.394
101301.364
101301.33
101301.293
101301.253
101301.208
101301.159
101301.106
101301.047
101300.984
101300.915
101300.84
101300.758
101300.668
101300.571
101300.462
101300.344
101300.217
101300.075
101299.918
101299.746
101299.559
101299.348
101299.115
101298.872
101298.607
101298.313
101297.984
101297.588
101297.112
101296.601
101295.994
101295.226
101294.434
101293.568
101292.515
101291.307
101289.928
101288.225
101286.086
101284.137
101282.228
101279.854
101276.531
101302.731
101302.738
101302.746
101302.754
101302.761
101302.768
101302.775
101302.781
101302.787
101302.793
101302.798
101302.803
101302.807
101302.811
101302.814
101302.816
101302.818
101302.82
101302.82
101302.82
101302.82
101302.818
101302.815
101302.812
101302.807
101302.801
101302.794
101302.785
101302.776
101302.764
101302.751
101302.736
101302.719
101302.7
101302.678
101302.654
101302.628
101302.598
101302.566
101302.53
101302.491
101302.448
101302.401
101302.349
101302.293
101302.232
101302.166
101302.093
101302.015
101301.929
101301.836
101301.734
101301.623
101301.501
101301.367
101301.219
101301.058
101300.88
101300.682
101300.461
101300.219
101299.954
101299.66
101299.333
101298.962
101298.528
101298.024
101297.445
101296.754
101295.948
101295.043
101293.976
101292.74
101291.351
101289.79
101288.021
101285.729
101283.262
101280.816
101278.071
101304.013
101304.02
101304.029
101304.037
101304.044
101304.052
101304.059
101304.066
101304.073
101304.079
101304.086
101304.091
101304.096
101304.101
101304.106
101304.11
101304.113
101304.116
101304.118
101304.12
101304.12
101304.121
101304.12
101304.118
101304.116
101304.112
101304.108
101304.102
101304.094
101304.086
101304.076
101304.064
101304.05
101304.035
101304.017
101303.997
101303.975
101303.951
101303.924
101303.894
101303.861
101303.824
101303.785
101303.742
101303.694
101303.643
101303.588
101303.527
101303.462
101303.392
101303.315
101303.231
101303.14
101303.039
101302.929
101302.809
101302.676
101302.53
101302.369
101302.185
101301.974
101301.738
101301.473
101301.172
101300.828
101300.429
101299.964
101299.42
101298.783
101298.037
101297.166
101296.146
101294.961
101293.592
101292.019
101290.253
101288.292
101286.035
101283.591
101280.89
101305.327
101305.335
101305.343
101305.352
101305.36
101305.368
101305.376
101305.384
101305.392
101305.399
101305.407
101305.414
101305.421
101305.427
101305.433
101305.439
101305.445
101305.45
101305.455
101305.459
101305.463
101305.466
101305.469
101305.471
101305.473
101305.473
101305.473
101305.472
101305.47
101305.467
101305.463
101305.457
101305.45
101305.442
101305.433
101305.421
101305.408
101305.394
101305.377
101305.358
101305.337
101305.314
101305.288
101305.26
101305.229
101305.196
101305.159
101305.119
101305.075
101305.028
101304.977
101304.922
101304.86
101304.791
101304.716
101304.631
101304.537
101304.432
101304.313
101304.176
101304.02
101303.838
101303.628
101303.384
101303.099
101302.763
101302.366
101301.896
101301.339
101300.678
101299.896
101298.97
101297.884
101296.628
101295.185
101293.543
101291.686
101289.633
101287.373
101284.916
101306.679
101306.686
101306.695
101306.704
101306.712
101306.721
101306.73
101306.738
101306.747
101306.756
101306.765
101306.773
101306.782
101306.79
101306.798
101306.807
101306.815
101306.823
101306.83
101306.838
101306.845
101306.852
101306.859
101306.865
101306.871
101306.877
101306.882
101306.887
101306.891
101306.895
101306.898
101306.9
101306.901
101306.902
101306.902
101306.9
101306.898
101306.895
101306.891
101306.886
101306.88
101306.872
101306.864
101306.854
101306.843
101306.83
101306.817
101306.802
101306.786
101306.768
101306.748
101306.727
101306.702
101306.674
101306.642
101306.604
101306.559
101306.507
101306.443
101306.367
101306.274
101306.161
101306.022
101305.852
101305.644
101305.391
101305.086
101304.716
101304.269
101303.73
101303.08
101302.299
101301.368
101300.268
101298.977
101297.472
101295.752
101293.822
101291.66
101289.423
101308.026
101308.033
101308.042
101308.05
101308.059
101308.068
101308.077
101308.087
101308.097
101308.107
101308.117
101308.127
101308.137
101308.148
101308.158
101308.169
101308.18
101308.191
101308.202
101308.213
101308.224
101308.236
101308.247
101308.258
101308.27
101308.281
101308.293
101308.304
101308.316
101308.327
101308.338
101308.349
101308.361
101308.372
101308.383
101308.394
101308.405
101308.415
101308.426
101308.437
101308.448
101308.46
101308.471
101308.483
101308.495
101308.508
101308.522
101308.536
101308.551
101308.568
101308.585
101308.603
101308.621
101308.64
101308.658
101308.674
101308.688
101308.699
101308.703
101308.7
101308.686
101308.656
101308.608
101308.534
101308.43
101308.287
101308.098
101307.853
101307.541
101307.147
101306.655
101306.045
101305.292
101304.372
101303.259
101301.925
101300.348
101298.519
101296.404
101294.225
101309.359
101309.366
101309.374
101309.382
101309.391
101309.4
101309.41
101309.42
101309.43
101309.441
101309.452
101309.464
101309.476
101309.488
101309.501
101309.514
101309.527
101309.541
101309.555
101309.57
101309.585
101309.6
101309.616
101309.632
101309.649
101309.666
101309.683
101309.701
101309.72
101309.739
101309.759
101309.779
101309.8
101309.822
101309.844
101309.867
101309.891
101309.916
101309.943
101309.97
101309.999
101310.03
101310.062
101310.097
101310.134
101310.174
101310.216
101310.261
101310.31
101310.363
101310.42
101310.48
101310.545
101310.614
101310.687
101310.763
101310.842
101310.922
101311.002
101311.081
101311.155
101311.221
101311.275
101311.312
101311.326
101311.309
101311.254
101311.152
101310.993
101310.762
101310.446
101310.024
101309.475
101308.773
101307.889
101306.802
101305.475
101303.908
101302.039
101299.871
101310.639
101310.646
101310.653
101310.661
101310.669
101310.678
101310.688
101310.698
101310.709
101310.72
101310.732
101310.745
101310.758
101310.771
101310.786
101310.801
101310.816
101310.832
101310.849
101310.867
101310.885
101310.904
101310.924
101310.945
101310.966
101310.989
101311.012
101311.036
101311.061
101311.088
101311.115
101311.144
101311.174
101311.205
101311.239
101311.274
101311.31
101311.349
101311.39
101311.434
101311.481
101311.53
101311.583
101311.64
101311.701
101311.767
101311.838
101311.914
101311.996
101312.085
101312.182
101312.285
101312.397
101312.517
101312.645
101312.782
101312.927
101313.079
101313.238
101313.403
101313.57
101313.738
101313.902
101314.058
101314.2
101314.322
101314.415
101314.471
101314.479
101314.429
101314.307
101314.094
101313.769
101313.308
101312.69
101311.898
101310.9
101309.679
101308.187
101306.395
101311.853
101311.858
101311.865
101311.872
101311.879
101311.887
101311.897
101311.907
101311.917
101311.929
101311.941
101311.954
101311.968
101311.982
101311.998
101312.014
101312.031
101312.049
101312.068
101312.088
101312.109
101312.131
101312.154
101312.178
101312.203
101312.23
101312.258
101312.287
101312.318
101312.35
101312.384
101312.421
101312.459
101312.498
101312.54
101312.586
101312.633
101312.684
101312.738
101312.796
101312.858
101312.925
101312.996
101313.073
101313.156
101313.245
101313.342
101313.447
101313.56
101313.683
101313.816
101313.96
101314.115
101314.283
101314.464
101314.659
101314.867
101315.089
101315.325
101315.574
101315.834
101316.103
101316.378
101316.656
101316.931
101317.197
101317.447
101317.671
101317.861
101318.004
101318.088
101318.094
101318.003
101317.79
101317.445
101316.956
101316.288
101315.411
101314.257
101312.828
101312.971
101312.974
101312.979
101312.984
101312.991
101312.998
101313.006
101313.015
101313.025
101313.036
101313.048
101313.06
101313.074
101313.089
101313.104
101313.121
101313.139
101313.158
101313.178
101313.199
101313.222
101313.245
101313.271
101313.297
101313.325
101313.354
101313.386
101313.419
101313.453
101313.49
101313.53
101313.572
101313.616
101313.662
101313.712
101313.766
101313.822
101313.883
101313.948
101314.018
101314.093
101314.173
101314.26
101314.354
101314.455
101314.564
101314.683
101314.812
101314.952
101315.105
101315.27
101315.449
101315.644
101315.855
101316.083
101316.329
101316.594
101316.879
101317.184
101317.509
101317.855
101318.218
101318.599
101318.993
101319.397
101319.805
101320.211
101320.607
101320.983
101321.328
101321.628
101321.867
101322.023
101322.074
101322.02
101321.854
101321.537
101321.046
101320.294
101319.245
101313.975
101313.977
101313.979
101313.982
101313.987
101313.992
101313.999
101314.006
101314.014
101314.024
101314.034
101314.046
101314.059
101314.073
101314.088
101314.104
101314.121
101314.14
101314.16
101314.182
101314.205
101314.23
101314.256
101314.284
101314.314
101314.346
101314.38
101314.416
101314.454
101314.495
101314.538
101314.583
101314.632
101314.684
101314.74
101314.799
101314.862
101314.93
101315.002
101315.081
101315.165
101315.256
101315.355
101315.462
101315.577
101315.702
101315.838
101315.985
101316.145
101316.32
101316.509
101316.716
101316.941
101317.186
101317.452
101317.74
101318.053
101318.39
101318.754
101319.144
101319.561
101320.003
101320.473
101320.967
101321.483
101322.018
101322.565
101323.118
101323.669
101324.206
101324.718
101325.188
101325.596
101325.917
101326.145
101326.287
101326.321
101326.21
101325.919
101325.319
101314.851
101314.85
101314.85
101314.85
101314.852
101314.855
101314.86
101314.865
101314.871
101314.879
101314.888
101314.898
101314.909
101314.922
101314.936
101314.951
101314.968
101314.986
101315.006
101315.027
101315.05
101315.074
101315.101
101315.129
101315.159
101315.192
101315.226
101315.262
101315.301
101315.342
101315.387
101315.435
101315.486
101315.541
101315.6
101315.663
101315.731
101315.804
101315.882
101315.966
101316.057
101316.154
101316.259
101316.372
101316.494
101316.626
101316.769
101316.922
101317.096
101317.291
101317.503
101317.734
101317.984
101318.255
101318.549
101318.866
101319.208
101319.58
101319.983
101320.417
101320.885
101321.386
101321.92
101322.488
101323.088
101323.717
101324.373
101325.05
101325.742
101326.439
101327.13
101327.801
101328.436
101329.013
101329.508
101329.903
101330.208
101330.392
101330.467
101330.157
101315.577
101315.573
101315.57
101315.568
101315.566
101315.567
101315.568
101315.571
101315.574
101315.58
101315.586
101315.594
101315.603
101315.613
101315.625
101315.639
101315.654
101315.671
101315.689
101315.709
101315.731
101315.754
101315.779
101315.806
101315.835
101315.866
101315.9
101315.937
101315.977
101316.019
101316.064
101316.111
101316.162
101316.218
101316.276
101316.339
101316.407
101316.48
101316.559
101316.644
101316.737
101316.838
101316.949
101317.07
101317.203
101317.35
101317.513
101317.692
101317.875
101318.063
101318.269
101318.495
101318.742