/*--------------------------------*- C++ -*----------------------------------*\
  =========                 |
  \\      /  F ield         | OpenFOAM: The Open Source CFD Toolbox
   \\    /   O peration     | Website:  https://openfoam.org
    \\  /    A nd           | Version:  8
     \\/     M anipulation  |
\*---------------------------------------------------------------------------*/
FoamFile
{
    version     2.0;
    format      ascii;
    class       volScalarField;
    location    "0.016";
    object      p_rgh;
}
// * * * * * * * * * * * * * * * * * * * * * * * * * * * * * * * * * * * * * //

dimensions      [1 -1 -2 0 0 0 0];

internalField   nonuniform List<scalar> 
42400
(
101314.968
101314.956
101314.943
101314.932
101314.921
101314.912
101314.903
101314.896
101314.889
101314.884
101314.88
101314.877
101314.875
101314.875
101314.875
101314.877
101314.88
101314.884
101314.89
101314.896
101314.904
101314.913
101314.922
101314.933
101314.945
101314.958
101314.972
101314.987
101315.003
101315.02
101315.037
101315.056
101315.075
101315.096
101315.117
101315.138
101315.16
101315.191
101315.233
101315.279
101315.313
101315.33
101315.343
101315.358
101315.386
101315.431
101315.48
101315.533
101315.589
101315.649
101315.71
101315.792
101315.891
101316.01
101316.123
101316.228
101316.369
101316.543
101316.744
101316.963
101317.209
101317.487
101317.805
101318.167
101318.564
101318.994
101319.476
101319.916
101320.435
101321.302
101321.571
101321.749
101323.942
101326.046
101326.161
101325.994
101327.991
101332.224
101335.617
101336.484
101314.193
101314.184
101314.173
101314.164
101314.156
101314.149
101314.142
101314.136
101314.131
101314.128
101314.125
101314.123
101314.122
101314.122
101314.124
101314.126
101314.129
101314.134
101314.139
101314.146
101314.153
101314.162
101314.171
101314.181
101314.192
101314.204
101314.217
101314.23
101314.244
101314.259
101314.274
101314.29
101314.306
101314.322
101314.344
101314.375
101314.408
101314.429
101314.435
101314.44
101314.453
101314.478
101314.507
101314.538
101314.571
101314.605
101314.636
101314.678
101314.741
101314.818
101314.881
101314.927
101315
101315.1
101315.222
101315.353
101315.501
101315.672
101315.874
101316.113
101316.392
101316.707
101317.056
101317.451
101317.903
101318.406
101319.01
101319.624
101320.137
101321.176
101322.046
101322.353
101323.736
101324.859
101325.982
101329.026
101332.83
101335.049
101336.313
101338.879
101313.3
101313.293
101313.285
101313.278
101313.272
101313.266
101313.262
101313.258
101313.255
101313.253
101313.252
101313.251
101313.252
101313.254
101313.257
101313.26
101313.265
101313.271
101313.278
101313.286
101313.294
101313.304
101313.315
101313.326
101313.339
101313.352
101313.367
101313.381
101313.396
101313.412
101313.43
101313.452
101313.477
101313.504
101313.524
101313.532
101313.54
101313.556
101313.579
101313.604
101313.63
101313.657
101313.683
101313.705
101313.741
101313.804
101313.868
101313.889
101313.907
101313.964
101314.042
101314.122
101314.21
101314.311
101314.43
101314.573
101314.746
101314.949
101315.185
101315.457
101315.775
101316.146
101316.569
101317.046
101317.601
101318.211
101318.948
101319.776
101320.508
101321.392
101322.159
101322.816
101324.711
101327.626
101330.658
101332.388
101333.894
101336.767
101339.62
101340.965
101312.32
101312.315
101312.309
101312.303
101312.299
101312.295
101312.292
101312.29
101312.288
101312.288
101312.289
101312.29
101312.293
101312.297
101312.302
101312.308
101312.315
101312.324
101312.333
101312.344
101312.356
101312.369
101312.384
101312.399
101312.415
101312.432
101312.451
101312.471
101312.494
101312.519
101312.542
101312.56
101312.578
101312.596
101312.619
101312.647
101312.676
101312.705
101312.735
101312.764
101312.788
101312.825
101312.883
101312.923
101312.94
101312.974
101313.028
101313.089
101313.147
101313.21
101313.283
101313.371
101313.477
101313.601
101313.747
101313.918
101314.125
101314.373
101314.667
101315.016
101315.431
101315.916
101316.477
101317.1
101317.835
101318.638
101319.565
101320.611
101321.728
101323.482
101326.839
101329.062
101329.867
101330.669
101332.339
101334.617
101336.626
101338.702
101340.393
101342.076
101311.257
101311.252
101311.247
101311.243
101311.239
101311.237
101311.235
101311.234
101311.234
101311.235
101311.238
101311.241
101311.246
101311.253
101311.26
101311.269
101311.28
101311.292
101311.306
101311.321
101311.336
101311.353
101311.371
101311.391
101311.414
101311.438
101311.464
101311.49
101311.517
101311.544
101311.575
101311.608
101311.642
101311.677
101311.712
101311.748
101311.784
101311.815
101311.857
101311.918
101311.961
101311.983
101312.023
101312.076
101312.129
101312.182
101312.24
101312.305
101312.378
101312.461
101312.557
101312.666
101312.796
101312.953
101313.144
101313.375
101313.65
101313.98
101314.372
101314.833
101315.379
101316.028
101316.767
101317.599
101318.517
101319.592
101320.691
101322.772
101325.168
101326.106
101326.387
101328.058
101330.506
101332.202
101333.819
101335.442
101337.344
101339.24
101341.056
101342.65
101310.105
101310.1
101310.095
101310.091
101310.088
101310.086
101310.085
101310.085
101310.087
101310.089
101310.093
101310.099
101310.107
101310.116
101310.127
101310.139
101310.153
101310.168
101310.185
101310.204
101310.227
101310.253
101310.28
101310.309
101310.34
101310.373
101310.407
101310.443
101310.481
101310.52
101310.56
101310.602
101310.645
101310.689
101310.729
101310.779
101310.845
101310.895
101310.928
101310.976
101311.037
101311.095
101311.153
101311.215
101311.281
101311.352
101311.429
101311.515
101311.611
101311.723
101311.854
101312.009
101312.196
101312.419
101312.686
101313.005
101313.383
101313.833
101314.37
101315.009
101315.747
101316.637
101317.617
101318.779
101319.967
101321.362
101323.132
101324.001
101324.891
101326.838
101328.578
101330.121
101331.682
101333.305
101335.453
101337.612
101339.031
101340.223
101342.074
101344.186
101308.838
101308.833
101308.828
101308.824
101308.821
101308.82
101308.82
101308.822
101308.825
101308.83
101308.836
101308.844
101308.853
101308.865
101308.879
101308.896
101308.915
101308.938
101308.964
101308.991
101309.019
101309.051
101309.084
101309.12
101309.159
101309.199
101309.242
101309.287
101309.335
101309.384
101309.435
101309.483
101309.54
101309.612
101309.671
101309.715
101309.774
101309.844
101309.911
101309.978
101310.049
101310.122
101310.199
101310.282
101310.371
101310.47
101310.581
101310.706
101310.851
101311.02
101311.218
101311.453
101311.729
101312.051
101312.427
101312.866
101313.376
101313.973
101314.68
101315.5
101316.473
101317.537
101318.747
101319.865
101321.305
101322.704
101323.781
101325.077
101326.941
101328.896
101330.39
101331.994
101333.585
101335.288
101336.918
101338.291
101339.874
101341.445
101343.147
101344.81
101307.419
101307.414
101307.409
101307.406
101307.405
101307.405
101307.406
101307.41
101307.415
101307.423
101307.433
101307.445
101307.46
101307.478
101307.497
101307.519
101307.543
101307.571
101307.601
101307.634
101307.669
101307.708
101307.749
101307.794
101307.841
101307.891
101307.944
101307.999
101308.052
101308.114
101308.189
101308.254
101308.308
101308.376
101308.453
101308.528
101308.604
101308.684
101308.767
101308.853
101308.945
101309.043
101309.15
101309.266
101309.396
101309.542
101309.709
101309.901
101310.124
101310.386
101310.691
101311.044
101311.45
101311.914
101312.445
101313.051
101313.726
101314.448
101315.28
101316.043
101317.031
101318.724
101320.607
101322.259
101323.415
101324.545
101325.885
101327.754
101329.127
101329.736
101331.051
101333.295
101335.233
101336.526
101337.629
101339.115
101340.801
101342.235
101344.246
101346.427
101305.814
101305.81
101305.806
101305.805
101305.805
101305.807
101305.812
101305.818
101305.828
101305.839
101305.853
101305.87
101305.889
101305.911
101305.935
101305.963
101305.994
101306.029
101306.066
101306.107
101306.15
101306.197
101306.248
101306.301
101306.357
101306.414
101306.477
101306.554
101306.622
101306.683
101306.756
101306.838
101306.919
101307.002
101307.088
101307.178
101307.273
101307.372
101307.478
101307.592
101307.714
101307.849
101307.999
101308.167
101308.357
101308.576
101308.828
101309.121
101309.458
101309.847
101310.292
101310.797
101311.369
101312.007
101312.709
101313.497
101314.351
101315.188
101316.461
101318.564
101320.177
101320.962
101321.569
101322.653
101324.5
101326.407
101328.351
101329.681
101330.585
101332.196
101333.496
101334.283
101335.161
101336.808
101339.362
101341.798
101344.04
101346.007
101347.957
101349.876
101303.99
101303.988
101303.987
101303.989
101303.992
101303.998
101304.007
101304.018
101304.031
101304.047
101304.066
101304.088
101304.114
101304.142
101304.174
101304.209
101304.248
101304.29
101304.336
101304.385
101304.438
101304.493
101304.55
101304.614
101304.689
101304.759
101304.823
101304.9
101304.984
101305.068
101305.155
101305.246
101305.34
101305.44
101305.544
101305.655
101305.772
101305.899
101306.036
101306.187
101306.354
101306.542
101306.755
101306.999
101307.28
101307.604
101307.979
101308.413
101308.912
101309.483
101310.137
101310.884
101311.732
101312.689
101313.752
101314.937
101316.187
101317.579
101318.966
101319.971
101320.809
101321.865
101323.305
101324.962
101326.248
101327.589
101329.294
101330.745
101332.305
101333.844
101335.676
101337.785
101339.507
101341.112
101342.474
101343.631
101345.251
101347.415
101349.344
101351.278
101301.906
101301.908
101301.911
101301.917
101301.925
101301.936
101301.949
101301.966
101301.985
101302.008
101302.034
101302.063
101302.096
101302.133
101302.173
101302.217
101302.265
101302.316
101302.37
101302.429
101302.498
101302.572
101302.637
101302.705
101302.783
101302.868
101302.954
101303.043
101303.137
101303.235
101303.337
101303.445
101303.558
101303.678
101303.806
101303.944
101304.094
101304.258
101304.44
101304.644
101304.874
101305.135
101305.433
101305.775
101306.166
101306.615
101307.125
101307.701
101308.35
101309.072
101309.875
101310.774
101311.747
101312.737
101313.907
101315.385
101316.802
101318.038
101319.108
101320.214
101321.607
101322.948
101324.493
101326.239
101327.699
101329.068
101330.757
101332.46
101334.119
101335.996
101337.57
101338.718
101340.017
101341.763
101343.584
101345.758
101347.847
101349.634
101351.321
101352.742
101299.532
101299.539
101299.548
101299.559
101299.573
101299.591
101299.611
101299.635
101299.662
101299.693
101299.728
101299.766
101299.808
101299.855
101299.905
101299.959
101300.018
101300.084
101300.151
101300.219
101300.294
101300.375
101300.46
101300.548
101300.64
101300.736
101300.836
101300.941
101301.052
101301.168
101301.291
101301.421
101301.561
101301.712
101301.876
101302.056
101302.256
101302.479
101302.731
101303.015
101303.337
101303.703
101304.118
101304.587
101305.114
101305.701
101306.344
101307.042
101307.797
101308.586
101309.374
101310.297
101311.678
101313.377
101314.839
101315.952
101317.169
101318.78
101320.208
101321.464
101322.834
101324.389
101325.842
101327.09
101328.362
101329.61
101331.197
101333.315
101335.595
101337.386
101338.855
101340.407
101342.065
101343.757
101345.466
101346.84
101348.44
101350.75
101353.337
101355.691
101296.826
101296.838
101296.855
101296.874
101296.896
101296.922
101296.951
101296.984
101297.021
101297.063
101297.108
101297.157
101297.21
101297.269
101297.334
101297.401
101297.47
101297.545
101297.627
101297.712
101297.802
101297.895
101297.994
101298.097
101298.205
101298.319
101298.438
101298.564
101298.697
101298.84
101298.993
101299.159
101299.34
101299.54
101299.762
101300.011
101300.291
101300.609
101300.97
101301.38
101301.846
101302.375
101302.971
101303.642
101304.391
101305.226
101306.15
101307.167
101308.297
101309.523
101310.838
101312.298
101313.55
101314.503
101315.474
101316.681
101318.031
101319.288
101320.432
101321.855
101323.68
101325.171
101326.61
101328.175
101329.954
101332.14
101334.184
101335.58
101336.676
101338.025
101339.67
101341.115
101342.501
101344.337
101346.783
101349.265
101351.681
101354.141
101356.405
101358.881
101293.749
101293.77
101293.796
101293.824
101293.857
101293.893
101293.933
101293.977
101294.025
101294.078
101294.136
101294.2
101294.267
101294.337
101294.413
101294.495
101294.581
101294.672
101294.767
101294.867
101294.972
101295.082
101295.198
101295.319
101295.447
101295.582
101295.726
101295.879
101296.044
101296.222
101296.417
101296.632
101296.871
101297.139
101297.439
101297.778
101298.162
101298.597
101299.089
101299.643
101300.267
101300.964
101301.739
101302.595
101303.53
101304.536
101305.611
101306.752
101307.939
101309.163
101310.44
101311.604
101312.63
101313.777
101315.262
101316.746
101318.276
101319.959
101321.573
101323.136
101324.774
101326.557
101328.192
101329.63
101330.951
101332.327
101333.71
101335.283
101337.227
101339.276
101341.336
101343.601
101346.381
101349.017
101350.676
101352.154
101353.935
101355.595
101357.199
101358.907
101290.26
101290.291
101290.329
101290.369
101290.413
101290.461
101290.514
101290.572
101290.634
101290.7
101290.772
101290.849
101290.931
101291.017
101291.109
101291.205
101291.307
101291.414
101291.526
101291.644
101291.767
101291.897
101292.034
101292.179
101292.332
101292.496
101292.673
101292.864
101293.073
101293.302
101293.557
101293.84
101294.157
101294.512
101294.912
101295.362
101295.867
101296.433
101297.064
101297.766
101298.542
101299.394
101300.329
101301.347
101302.467
101303.639
101304.856
101306.114
101307.398
101308.627
101309.766
101311.26
101312.909
101314.356
101315.743
101317.22
101318.557
101319.8
101321.125
101322.461
101324.197
101326.211
101328.147
101329.976
101331.726
101333.641
101335.754
101337.914
101340.096
101342.382
101344.77
101346.802
101348.549
101349.913
101351.463
101353.619
101355.358
101357.299
101359.889
101361.535
101286.337
101286.38
101286.431
101286.485
101286.543
101286.606
101286.673
101286.745
101286.823
101286.905
101286.993
101287.086
101287.184
101287.288
101287.397
101287.512
101287.633
101287.76
101287.894
101288.035
101288.184
101288.342
101288.511
101288.691
101288.887
101289.099
101289.331
101289.586
101289.869
101290.184
101290.536
101290.93
101291.371
101291.865
101292.415
101293.027
101293.704
101294.446
101295.253
101296.124
101297.053
101298.019
101299.007
101300.012
101301.267
101302.925
101304.721
101306.448
101307.941
101309.537
101311.311
101312.819
101314.203
101315.633
101316.963
101318.574
101320.209
101321.689
101323.66
101325.875
101327.327
101328.398
101329.714
101331.385
101333.507
101335.528
101337.33
101339.311
101341.441
101343.631
101345.756
101347.83
101349.949
101351.971
101353.649
101355.362
101357.604
101359.96
101362.082
101364.085
101281.963
101282.019
101282.086
101282.156
101282.229
101282.308
101282.391
101282.48
101282.574
101282.674
101282.779
101282.891
101283.008
101283.131
101283.262
101283.399
101283.544
101283.697
101283.86
101284.033
101284.219
101284.419
101284.636
101284.873
101285.133
101285.42
101285.738
101286.094
101286.491
101286.936
101287.434
101287.992
101288.615
101289.309
101290.078
101290.927
101291.859
101292.876
101293.982
101295.179
101296.471
101297.845
101299.29
101301.214
101303.262
101304.756
101306.037
101307.29
101308.487
101309.704
101310.942
101312.115
101313.578
101315.664
101318
101319.931
101321.496
101322.971
101324.333
101325.881
101328.027
101330.277
101332.369
101334.268
101335.988
101337.406
101339.075
101340.98
101342.834
101345.104
101347.375
101349.561
101351.9
101354.042
101355.826
101358.169
101360.646
101362.337
101363.927
101365.835
101277.144
101277.215
101277.299
101277.385
101277.475
101277.57
101277.67
101277.775
101277.886
101278.003
101278.127
101278.256
101278.393
101278.538
101278.69
101278.852
101279.025
101279.209
101279.408
101279.622
101279.855
101280.111
101280.392
101280.704
101281.05
101281.437
101281.87
101282.356
101282.9
101283.508
101284.188
101284.944
101285.78
101286.702
101287.711
101288.808
101289.993
101291.262
101292.609
101294.023
101295.49
101297.001
101298.563
101300.163
101301.476
101302.762
101304.295
101305.897
101307.574
101309.287
101310.977
101313.107
101315.36
101317.208
101319.136
101320.963
101322.535
101324.087
101326.06
101328.438
101330.504
101332.3
101333.89
101335.475
101337.027
101338.766
101340.65
101342.623
101345.157
101347.419
101349.248
101351.042
101352.787
101355.244
101358.553
101360.378
101361.904
101364.417
101366.526
101368.162
101271.926
101272.013
101272.115
101272.217
101272.323
101272.433
101272.549
101272.67
101272.797
101272.93
101273.07
101273.217
101273.373
101273.538
101273.714
101273.903
101274.105
101274.324
101274.563
101274.825
101275.113
101275.433
101275.788
101276.184
101276.626
101277.121
101277.674
101278.291
101278.978
101279.738
101280.576
101281.495
101282.497
101283.584
101284.754
101286.009
101287.348
101288.776
101290.289
101291.891
101293.575
101295.304
101297.089
101298.512
101299.983
101301.866
101303.761
101305.632
101307.52
101309.397
101311.253
101312.885
101314.553
101316.803
101318.955
101321.167
101323.579
101325.69
101327.672
101329.379
101331.099
101333.229
101335.52
101337.721
101339.87
101341.831
101343.577
101345.606
101347.426
101349.023
101351.339
101354.109
101356.109
101357.789
101359.253
101361.223
101363.779
101365.968
101367.862
101370.083
101266.418
101266.52
101266.639
101266.757
101266.878
101267.003
101267.133
101267.27
101267.412
101267.562
101267.72
101267.887
101268.065
101268.257
101268.463
101268.687
101268.933
101269.202
101269.501
101269.832
101270.203
101270.617
101271.082
101271.602
101272.185
101272.837
101273.562
101274.366
101275.251
101276.221
101277.275
101278.411
101279.625
101280.911
101282.255
101283.636
101285.036
101286.443
101288.133
101290.282
101292.478
101294.662
101296.946
101299.203
101301.342
101303.129
101304.716
101306.617
101308.93
101311.271
101313.508
101315.349
101316.859
101318.264
101319.79
101321.422
101323.326
101325.834
101328.156
101330.353
101332.647
101334.851
101337.01
101339.087
101341.343
101343.637
101345.95
101348.288
101350.746
101352.925
101354.235
101355.914
101358.588
101360.725
101362.961
101365.164
101367.082
101369.421
101371.999
101373.072
101299.701
101299.708
101299.715
101299.721
101299.727
101299.733
101299.738
101299.743
101299.748
101299.752
101299.756
101299.759
101299.762
101299.764
101299.766
101299.767
101299.767
101299.767
101299.766
101299.765
101299.762
101299.759
101299.755
101299.749
101299.743
101299.736
101299.727
101299.717
101299.706
101299.693
101299.678
101299.662
101299.644
101299.623
101299.601
101299.576
101299.549
101299.518
101299.485
101299.449
101299.409
101299.365
101299.317
101299.265
101299.208
101299.146
101299.077
101299.003
101298.922
101298.834
101298.739
101298.633
101298.516
101298.382
101298.237
101298.084
101297.915
101297.728
101297.522
101297.294
101297.038
101296.753
101296.431
101296.066
101295.657
101295.211
101294.712
101294.162
101293.583
101292.878
101291.877
101290.82
101289.661
101288.064
101286.441
101284.987
101283.095
101280.863
101278.333
101275.55
101300.838
101300.845
101300.853
101300.86
101300.866
101300.873
101300.878
101300.884
101300.889
101300.893
101300.897
101300.9
101300.903
101300.905
101300.906
101300.907
101300.907
101300.907
101300.905
101300.903
101300.9
101300.895
101300.89
101300.884
101300.876
101300.867
101300.857
101300.845
101300.831
101300.816
101300.799
101300.78
101300.758
101300.735
101300.708
101300.679
101300.647
101300.612
101300.574
101300.531
101300.485
101300.435
101300.38
101300.32
101300.255
101300.185
101300.108
101300.026
101299.936
101299.839
101299.732
101299.616
101299.488
101299.351
101299.2
101299.031
101298.848
101298.65
101298.429
101298.185
101297.926
101297.645
101297.336
101296.992
101296.583
101296.091
101295.552
101294.922
101294.136
101293.302
101292.424
101291.365
101290.129
101288.73
101287.052
101284.959
101282.853
101280.774
101278.374
101275.186
101302.031
101302.038
101302.046
101302.054
101302.061
101302.067
101302.074
101302.079
101302.085
101302.09
101302.094
101302.098
101302.101
101302.104
101302.106
101302.107
101302.108
101302.108
101302.107
101302.105
101302.103
101302.099
101302.095
101302.089
101302.082
101302.073
101302.064
101302.052
101302.04
101302.025
101302.009
101301.99
101301.969
101301.946
101301.921
101301.893
101301.862
101301.828
101301.791
101301.75
101301.705
101301.657
101301.604
101301.547
101301.484
101301.417
101301.343
101301.264
101301.178
101301.085
101300.984
101300.873
101300.753
101300.622
101300.478
101300.32
101300.148
101299.959
101299.75
101299.518
101299.263
101298.982
101298.672
101298.327
101297.939
101297.488
101296.965
101296.364
101295.655
101294.827
101293.88
101292.762
101291.497
101290.096
101288.512
101286.722
101284.489
101281.969
101279.343
101276.53
101303.301
101303.308
101303.317
101303.325
101303.332
101303.339
101303.346
101303.353
101303.359
101303.365
101303.37
101303.375
101303.38
101303.383
101303.387
101303.389
101303.392
101303.393
101303.394
101303.394
101303.393
101303.391
101303.389
101303.385
101303.38
101303.374
101303.367
101303.359
101303.349
101303.337
101303.324
101303.309
101303.292
101303.273
101303.251
101303.228
101303.201
101303.172
101303.141
101303.106
101303.068
101303.026
101302.981
101302.932
101302.879
101302.822
101302.76
101302.693
101302.62
101302.543
101302.458
101302.366
101302.267
101302.158
101302.039
101301.909
101301.765
101301.607
101301.433
101301.238
101301.016
101300.767
101300.487
101300.17
101299.809
101299.393
101298.908
101298.344
101297.686
101296.919
101296.025
101294.974
101293.75
101292.353
101290.761
101288.972
101286.977
101284.705
101282.198
101279.44
101304.611
101304.619
101304.628
101304.636
101304.644
101304.652
101304.66
101304.667
101304.675
101304.682
101304.688
101304.695
101304.701
101304.706
101304.711
101304.716
101304.721
101304.725
101304.728
101304.731
101304.733
101304.735
101304.736
101304.736
101304.735
101304.733
101304.731
101304.727
101304.723
101304.717
101304.71
101304.701
101304.691
101304.68
101304.667
101304.652
101304.635
101304.616
101304.595
101304.572
101304.546
101304.518
101304.487
101304.454
101304.417
101304.378
101304.335
101304.289
101304.239
101304.185
101304.127
101304.064
101303.994
101303.918
101303.833
101303.74
101303.636
101303.521
101303.39
101303.241
101303.072
101302.876
101302.651
101302.391
101302.087
101301.732
101301.315
101300.825
101300.246
101299.562
101298.757
101297.807
101296.694
101295.408
101293.938
101292.265
101290.379
101288.292
101285.988
101283.49
101305.967
101305.975
101305.984
101305.992
101306.001
101306.009
101306.018
101306.026
101306.034
101306.042
101306.051
101306.058
101306.066
101306.074
101306.081
101306.088
101306.095
101306.102
101306.109
101306.115
101306.121
101306.126
101306.131
101306.136
101306.14
101306.144
101306.147
101306.149
101306.151
101306.152
101306.152
101306.151
101306.15
101306.147
101306.144
101306.139
101306.134
101306.127
101306.119
101306.109
101306.099
101306.087
101306.074
101306.059
101306.043
101306.025
101306.006
101305.985
101305.963
101305.939
101305.913
101305.884
101305.852
101305.816
101305.776
101305.729
101305.675
101305.613
101305.539
101305.451
101305.346
101305.219
101305.065
101304.878
101304.653
101304.381
101304.055
101303.663
101303.194
101302.63
101301.953
101301.144
101300.184
101299.051
101297.726
101296.184
101294.428
101292.455
101290.249
101287.963
101307.325
101307.333
101307.341
101307.35
101307.359
101307.368
101307.377
101307.386
101307.395
101307.405
101307.414
101307.424
101307.433
101307.443
101307.453
101307.463
101307.473
101307.483
101307.493
101307.502
101307.512
101307.522
101307.532
101307.542
101307.552
101307.561
101307.571
101307.58
101307.59
101307.599
101307.608
101307.616
101307.625
101307.633
101307.641
101307.649
101307.657
101307.664
101307.671
101307.679
101307.686
101307.693
101307.701
101307.708
101307.716
101307.724
101307.733
101307.742
101307.751
101307.762
101307.773
101307.785
101307.797
101307.808
101307.819
101307.827
101307.833
101307.834
101307.829
101307.815
101307.789
101307.747
101307.684
101307.595
101307.474
101307.312
101307.103
101306.836
101306.5
101306.081
101305.56
101304.92
101304.135
101303.181
101302.032
101300.659
101299.04
101297.165
101294.998
101292.75
101308.676
101308.683
101308.691
101308.699
101308.708
101308.717
101308.727
101308.736
101308.746
101308.757
101308.768
101308.779
101308.79
101308.801
101308.813
101308.826
101308.838
101308.851
101308.864
101308.878
101308.892
101308.906
101308.92
101308.935
101308.95
101308.966
101308.982
101308.998
101309.015
101309.032
101309.05
101309.068
101309.086
101309.105
101309.125
101309.146
101309.167
101309.189
101309.212
101309.237
101309.262
101309.29
101309.319
101309.349
101309.382
101309.418
101309.456
101309.497
101309.541
101309.589
101309.64
101309.696
101309.755
101309.818
101309.885
101309.954
101310.025
101310.097
101310.169
101310.238
101310.301
101310.356
101310.398
101310.42
101310.418
101310.384
101310.309
101310.186
101310.002
101309.746
101309.401
101308.949
101308.366
101307.628
101306.705
101305.576
101304.203
101302.589
101300.66
101298.456
101309.979
101309.985
101309.993
101310.001
101310.009
101310.018
101310.027
101310.037
101310.048
101310.059
101310.07
101310.083
101310.095
101310.108
101310.122
101310.136
101310.151
101310.167
101310.183
101310.199
101310.217
101310.235
101310.254
101310.273
101310.293
101310.314
101310.336
101310.359
101310.383
101310.407
101310.433
101310.46
101310.488
101310.518
101310.549
101310.581
101310.616
101310.652
101310.691
101310.732
101310.776
101310.822
101310.872
101310.926
101310.984
101311.046
101311.114
101311.186
101311.265
101311.35
101311.442
101311.541
101311.648
101311.763
101311.886
101312.018
101312.157
101312.303
101312.454
101312.611
101312.769
101312.927
101313.081
101313.224
101313.353
101313.458
101313.533
101313.569
101313.556
101313.481
101313.331
101313.088
101312.731
101312.233
101311.575
101310.74
101309.695
101308.422
101306.873
101305.027
101311.22
101311.225
101311.232
101311.238
101311.246
101311.254
101311.263
101311.273
101311.283
101311.295
101311.306
101311.319
101311.332
101311.347
101311.362
101311.377
101311.394
101311.411
101311.43
101311.449
101311.469
101311.49
101311.512
101311.536
101311.56
101311.586
101311.612
101311.64
101311.67
101311.701
101311.734
101311.769
101311.805
101311.843
101311.884
101311.927
101311.973
101312.022
101312.074
101312.13
101312.19
101312.254
101312.323
101312.398
101312.478
101312.565
101312.659
101312.761
101312.871
101312.991
101313.121
101313.262
101313.414
101313.578
101313.756
101313.946
101314.15
101314.368
101314.598
101314.84
101315.094
101315.355
101315.622
101315.89
101316.153
101316.406
101316.641
101316.848
101317.018
101317.14
101317.198
101317.176
101317.054
101316.806
101316.424
101315.896
101315.181
101314.253
101313.041
101311.555
101312.368
101312.372
101312.376
101312.382
101312.388
101312.395
101312.403
101312.412
101312.422
101312.432
101312.444
101312.457
101312.47
101312.484
101312.5
101312.516
101312.533
101312.552
101312.571
101312.592
101312.614
101312.637
101312.662
101312.688
101312.715
101312.744
101312.774
101312.806
101312.84
101312.876
101312.915
101312.955
101312.998
101313.044
101313.092
101313.145
101313.2
101313.26
101313.323
101313.392
101313.465
101313.544
101313.629
101313.721
101313.821
101313.929
101314.046
101314.173
101314.311
101314.462
101314.625
101314.803
101314.995
101315.204
101315.429
101315.673
101315.936
101316.218
101316.519
101316.841
101317.181
101317.54
101317.914
101318.301
101318.697
101319.095
101319.489
101319.871
101320.231
101320.557
101320.835
101321.048
101321.174
101321.195
101321.108
101320.907
101320.551
101320.02
101319.222
101318.146
101313.405
101313.406
101313.409
101313.412
101313.417
101313.422
101313.428
101313.436
101313.444
101313.453
101313.464
101313.475
101313.488
101313.501
101313.516
101313.532
101313.55
101313.568
101313.588
101313.609
101313.632
101313.657
101313.682
101313.71
101313.739
101313.771
101313.804
101313.839
101313.877
101313.917
101313.96
101314.004
101314.053
101314.104
101314.159
101314.217
101314.28
101314.347
101314.419
101314.496
101314.58
101314.67
101314.768
101314.874
101314.989
101315.113
101315.248
101315.395
101315.554
101315.728
101315.917
101316.123
101316.347
101316.591
101316.856
101317.144
101317.456
101317.792
101318.155
101318.543
101318.958
101319.398
101319.864
101320.355
101320.866
101321.393
101321.932
101322.475
101323.012
101323.534
101324.026
101324.473
101324.854
101325.143
101325.339
101325.444
101325.436
101325.277
101324.937
101324.292
101314.314
101314.313
101314.313
101314.314
101314.316
101314.319
101314.323
101314.328
101314.335
101314.343
101314.351
101314.361
101314.373
101314.385
101314.399
101314.414
101314.431
101314.449
101314.468
101314.489
101314.512
101314.536
101314.563
101314.591
101314.621
101314.653
101314.687
101314.723
101314.761
101314.803
101314.847
101314.895
101314.946
101315.001
101315.059
101315.122
101315.19
101315.263
101315.341
101315.425
101315.515
101315.612
101315.717
101315.83
101315.953
101316.085
101316.227
101316.382
101316.556
101316.752
101316.965
101317.196
101317.447
101317.718
101318.012
101318.33
101318.674
101319.047
101319.451
101319.886
101320.354
101320.856
101321.39
101321.957
101322.555
101323.181
101323.833
101324.504
101325.186
101325.871
101326.546
101327.197
101327.807
101328.352
101328.81
101329.164
101329.421
101329.542
101329.541
101329.14
101315.075
101315.071
101315.067
101315.065
101315.064
101315.064
101315.066
101315.068
101315.072
101315.077
101315.084
101315.092
101315.101
101315.111
101315.123
101315.137
101315.152
101315.169
101315.187
101315.207
101315.229
101315.252
101315.277
101315.305
101315.333
101315.364
101315.399
101315.436
101315.476
101315.518
101315.562
101315.61
101315.661
101315.717
101315.776
101315.839
101315.907
101315.98
101316.059
101316.145
101316.239
101316.341
101316.452
101316.574
101316.708
101316.857
101317.022
101317.2
101317.382