/*--------------------------------*- C++ -*----------------------------------*\
  =========                 |
  \\      /  F ield         | OpenFOAM: The Open Source CFD Toolbox
   \\    /   O peration     | Website:  https://openfoam.org
    \\  /    A nd           | Version:  8
     \\/     M anipulation  |
\*---------------------------------------------------------------------------*/
FoamFile
{
    version     2.0;
    format      ascii;
    class       surfaceScalarField;
    location    "0.016";
    object      phi;
}
// * * * * * * * * * * * * * * * * * * * * * * * * * * * * * * * * * * * * * //

dimensions      [1 0 -1 0 0 0 0];

internalField   nonuniform List<scalar> 
84340
(
-6.55680445e-08
3.43917009e-07
-2.78593053e-07
-2.60672529e-07
1.03302634e-06
-8.38316396e-07
-5.88148031e-07
1.75060098e-06
-1.42361275e-06
-1.0512373e-06
2.50270473e-06
-2.04018288e-06
-1.65380953e-06
3.29344087e-06
-2.69150705e-06
-2.40037788e-06
4.12573923e-06
-3.37987532e-06
-3.29606985e-06
5.00172949e-06
-4.10680662e-06
-4.34652545e-06
5.92295922e-06
-4.87333855e-06
-5.55774491e-06
6.89056499e-06
-5.68024934e-06
-6.93590621e-06
7.90537961e-06
-6.52819527e-06
-8.48717222e-06
8.96799093e-06
-7.41778031e-06
-1.02175001e-05
1.0078765e-05
-8.34957693e-06
-1.21324626e-05
1.12378569e-05
-9.32412511e-06
-1.42370844e-05
1.24452201e-05
-1.03419273e-05
-1.65356834e-05
1.37006113e-05
-1.14034473e-05
-1.90317342e-05
1.50036086e-05
-1.25091071e-05
-2.17277203e-05
1.63536173e-05
-1.36593038e-05
-2.46249982e-05
1.77498792e-05
-1.48544065e-05
-2.77236453e-05
1.91914794e-05
-1.60947807e-05
-3.10222984e-05
2.06773423e-05
-1.73807916e-05
-3.45179755e-05
2.22062228e-05
-1.87128138e-05
-3.82058736e-05
2.37766874e-05
-2.00912359e-05
-4.20791359e-05
2.53870788e-05
-2.15164548e-05
-4.61285976e-05
2.70354754e-05
-2.29888583e-05
-5.03424808e-05
2.87196188e-05
-2.4508802e-05
-5.47060547e-05
3.04368321e-05
-2.60765623e-05
-5.92012503e-05
3.21838961e-05
-2.76922604e-05
-6.38062028e-05
3.39568996e-05
-2.9355781e-05
-6.84947488e-05
3.57510534e-05
-3.1066635e-05
-7.3235827e-05
3.75604408e-05
-3.28238046e-05
-7.79928725e-05
3.93778193e-05
-3.46255519e-05
-8.27235077e-05
4.11946734e-05
-3.6469176e-05
-8.73792007e-05
4.30008669e-05
-3.83506924e-05
-9.19043986e-05
4.47837511e-05
-4.02644726e-05
-9.62360745e-05
4.65285286e-05
-4.22032245e-05
-0.000100297895
4.82134499e-05
-4.41585042e-05
-0.000104003613
4.9818669e-05
-4.61201977e-05
-0.000107270023
5.13306797e-05
-4.80718773e-05
-0.00011000909
5.27184341e-05
-4.99875741e-05
-0.000112082034
5.39188674e-05
-5.18547577e-05
-0.000113275294
5.48420603e-05
-5.36582185e-05
-0.00011334987
5.54382169e-05
-5.53736755e-05
-0.000112057172
5.56282971e-05
-5.69316156e-05
-0.000109128058
5.53147575e-05
-5.82551716e-05
-0.000104257629
5.43832748e-05
-5.92657551e-05
-9.7078288e-05
5.27004531e-05
-5.98925638e-05
-8.71697497e-05
5.01086056e-05
-6.00306159e-05
-7.40158259e-05
4.63948364e-05
-5.95629411e-05
-5.71344976e-05
4.14455065e-05
-5.83417114e-05
-3.59149676e-05
3.49611168e-05
-5.61962236e-05
-9.97448735e-06
2.69800182e-05
-5.29367793e-05
2.16752372e-05
1.66170341e-05
-4.82838007e-05
6.00618277e-05
3.66873614e-06
-4.20727924e-05
0.000106233528
-1.23501576e-05
-3.38392876e-05
0.000161420777
-3.15218504e-05
-2.36838397e-05
0.000227016578
-5.51556721e-05
-1.04593048e-05
0.000304475281
-8.35839978e-05
6.10573277e-06
0.000395268085
-0.000117387934
2.65753358e-05
0.000501544814
-0.000157369777
5.10731446e-05
0.000624816026
-0.000204442272
8.11511457e-05
0.000767121638
-0.000259456511
0.000117131184
0.00093053264
-0.000323248338
0.000159818275
0.00111719704
-0.000396880595
0.000210198271
0.00132918231
-0.000481308159
0.00026930659
0.00156828492
-0.000577147352
0.000338031488
0.00183633268
-0.000685779855
0.000417722783
0.00213689412
-0.000809381416
0.000508814314
0.00246392554
-0.000934749981
0.000607716326
0.00281202658
-0.00108129522
0.000733194882
0.003219504
-0.00128123139
0.000873757034
0.00367156194
-0.00140598214
0.000953928559
0.00403228812
-0.00152145337
0.00116073164
0.00440144893
-0.0018860704
0.00151691234
0.00504082859
-0.0021891224
0.00154974213
0.0057278249
-0.00215146011
0.00146445789
0.00609652257
-0.00226325915
0.00189454772
0.00631146221
-0.00261544156
0.00240047182
0.00662873144
-0.00288685743
0.00256954907
0.00713117894
-0.00304789384
0.00254537529
-0.00306755693
0.00259043206
0.00760821653
-5.22788191e-08
3.9591131e-07
-2.07570986e-07
1.18791918e-06
-4.67979697e-07
2.01055272e-06
-8.35974735e-07
2.87018881e-06
-1.31437553e-06
3.771279e-06
-1.90650268e-06
4.71725232e-06
-2.61613103e-06
5.71069094e-06
-3.44738316e-06
6.75348886e-06
-4.40458588e-06
7.8469858e-06
-5.49209491e-06
8.99204276e-06
-6.71410301e-06
1.0189084e-05
-8.07444559e-06
1.14381176e-05
-9.57640917e-06
1.27387492e-05
-1.12225435e-05
1.40901954e-05
-1.3014488e-05
1.54913015e-05
-1.49527835e-05
1.69405473e-05
-1.70366961e-05
1.84360622e-05
-1.9264025e-05
1.99756207e-05
-2.16308928e-05
2.15566312e-05
-2.41315211e-05
2.31761163e-05
-2.67579779e-05
2.48306766e-05
-2.94998857e-05
2.65164327e-05
-3.2344101e-05
2.82289607e-05
-3.52743334e-05
2.99631915e-05
-3.82707066e-05
3.17132801e-05
-4.1309257e-05
3.34724618e-05
-4.43613845e-05
3.52328803e-05
-4.7393285e-05
3.69854198e-05
-5.03653445e-05
3.87194809e-05
-5.3231342e-05
4.04225415e-05
-5.59373712e-05
4.20796638e-05
-5.84237522e-05
4.36765575e-05
-6.06218689e-05
4.5194192e-05
-6.24560497e-05
4.66128604e-05
-6.38522055e-05
4.79192606e-05
-6.47109637e-05
4.9066403e-05
-6.48972273e-05
4.99987589e-05
-6.42236711e-05
5.0650551e-05
-6.24753572e-05
5.09631318e-05
-5.9428368e-05
5.08644266e-05
-5.48596315e-05
5.02653735e-05
-4.84934718e-05
4.90636163e-05
-4.00182179e-05
4.71441016e-05
-2.9081717e-05
4.43687953e-05
-1.52418283e-05
4.05333953e-05
1.94961669e-06
3.54984984e-05
2.2819261e-05
2.92279357e-05
4.77386489e-05
2.14638392e-05
7.774806e-05
1.14240604e-05
0.000113689401
-9.92620154e-07
0.000156517238
-1.58608574e-05
0.00020733201
-3.42114386e-05
0.000267362945
-5.63763808e-05
0.000337814994
-8.2816856e-05
0.000420442094
-0.000114163993
0.000516464599
-0.000151193564
0.00062752938
-0.000194664419
0.000755467608
-0.000245341958
0.000902189271
-0.000304107089
0.00106954001
-0.000371808267
0.00125949868
-0.000449429802
0.00147392346
-0.000537686416
0.00171417316
-0.000637141247
0.00198159881
-0.000748741981
0.00227739262
-0.000872946687
0.00260051587
-0.00100890609
0.00295452681
-0.00116339307
0.00334081253
-0.00132103438
0.00373103395
-0.00147151387
0.0041313484
-0.0016815421
0.00461664876
-0.001891279
0.00510055781
-0.00200536004
0.00542202979
-0.00220754307
0.00575277002
-0.00251986738
0.00627358278
-0.0026722831
0.00673732043
-0.00272701457
0.00696229518
-0.00284044829
0.00706748758
-0.00299209493
0.00716661352
-0.00314707226
-0.00327559134
0.00737458507
-4.00331475e-08
4.3560893e-07
-1.58588409e-07
1.30600127e-06
-3.56859122e-07
2.20828061e-06
-6.36253489e-07
3.14897578e-06
-9.98416684e-07
4.1327738e-06
-1.44519242e-06
5.1633e-06
-1.97857845e-06
6.2432886e-06
-2.6008381e-06
7.37489767e-06
-3.31422998e-06
8.55946113e-06
-4.12083567e-06
9.79766219e-06
-5.0223696e-06
1.10895573e-05
-6.01998015e-06
1.24345881e-05
-7.11404896e-06
1.3831593e-05
-8.30398736e-06
1.52788179e-05
-9.58803035e-06
1.67739313e-05
-1.09630291e-05
1.83140289e-05
-1.24242248e-05
1.98956294e-05
-1.39650147e-05
2.15146634e-05
-1.557669e-05
2.31664323e-05
-1.72481457e-05
2.4845562e-05
-1.89655395e-05
2.65459153e-05
-2.07118714e-05
2.82604546e-05
-2.24664933e-05
2.99811069e-05
-2.42045623e-05
3.16986078e-05
-2.58964405e-05
3.34023171e-05
-2.75069216e-05
3.50799009e-05
-2.89960215e-05
3.67187213e-05
-3.03182129e-05
3.83041175e-05
-3.1422461e-05
3.98199966e-05
-3.22524983e-05
4.12486101e-05
-3.27488963e-05
4.2571821e-05
-3.28299027e-05
4.37530235e-05
-3.23953142e-05
4.47547587e-05
-3.13232275e-05
4.55355992e-05
-2.94503822e-05
4.60408951e-05
-2.65986051e-05
4.62087448e-05
-2.25775002e-05
4.59713621e-05
-1.71790542e-05
4.5245372e-05
-1.01688821e-05
4.39457852e-05
-1.27899511e-06
4.19669067e-05
9.79370914e-06
3.91845598e-05
2.3424889e-05
3.54238398e-05
3.99997814e-05
3.05600946e-05
5.97260912e-05
2.46328008e-05
8.3279555e-05
1.69698005e-05
0.000111315757
7.45194266e-06
0.000144576811
-4.04387672e-06
0.000183956535
-1.79274257e-05
0.000230520825
-3.51524993e-05
0.000285259032
-5.57436611e-05
0.000349564726
-8.01799148e-05
0.000424450119
-0.00010911071
0.000511236695
-0.000143177309
0.000611452958
-0.000183047939
0.000726736369
-0.00022946261
0.000858739777
-0.000283212363
0.00100912948
-0.000345069468
0.0011796092
-0.000415836882
0.0013719355
-0.000496448302
0.00158777141
-0.00058765797
0.0018286186
-0.000690288622
0.00209549034
-0.000804567408
0.00238828405
-0.000929941924
0.00270577779
-0.00106624048
0.00304809835
-0.00121526996
0.0034114261
-0.00137223461
0.00379160434
-0.00154357052
0.00419682975
-0.00172625764
0.00461763791
-0.00189231926
0.00500307436
-0.00206697563
0.00538962961
-0.00227783247
0.00582406604
-0.0024397965
0.00616742611
-0.00255090623
0.00634464592
-0.0026970948
0.00650688089
-0.00283453336
0.00672873628
-0.00294889253
0.00694321821
-0.00305496014
0.00709228426
-0.00314120054
0.00718312684
-0.00323796205
-0.00334432904
0.00725179875
-3.20341018e-08
4.67401929e-07
-1.26113909e-07
1.39974429e-06
-2.82278804e-07
2.36406144e-06
-5.00611103e-07
3.36687955e-06
-7.81337658e-07
4.41302897e-06
-1.1247167e-06
5.50616469e-06
-1.53102642e-06
6.64903954e-06
-2.00021466e-06
7.8434803e-06
-2.53195899e-06
9.09054967e-06
-3.1256341e-06
1.03906274e-05
-3.77997367e-06
1.17431282e-05
-4.49285912e-06
1.31466414e-05
-5.26109602e-06
1.45989289e-05
-6.08019368e-06
1.60969401e-05
-6.94413435e-06
1.76368159e-05
-7.84512219e-06
1.92138738e-05
-8.77331054e-06
2.08225812e-05
-9.71645682e-06
2.24564724e-05
-1.06595341e-05
2.4108064e-05
-1.15843038e-05
2.57687705e-05
-1.24689291e-05
2.74288555e-05
-1.32881574e-05
2.90778656e-05
-1.40128313e-05
3.07038205e-05
-1.46096702e-05
3.2293334e-05
-1.50410373e-05
3.38314148e-05
-1.52652161e-05
3.53016452e-05
-1.52275812e-05
3.66784749e-05
-1.48642378e-05
3.79379776e-05
-1.40996549e-05
3.90524153e-05
-1.28435348e-05
3.99892759e-05
-1.09828618e-05
4.07077082e-05
-8.39187417e-06
4.11583627e-05
-4.92723072e-06
4.12861972e-05
-4.20279059e-07
4.1024453e-05
5.32188342e-06
4.02942437e-05
1.25023418e-05
3.90235032e-05
2.13559191e-05
3.71126919e-05
3.21477197e-05
3.44481552e-05
4.52112347e-05
3.087652e-05
6.08991007e-05
2.62729311e-05
7.94110379e-05
2.06661314e-05
0.000101368275
1.34598221e-05
0.00012735718
4.56412278e-06
0.000158057188
-6.07473584e-06
0.000194224311
-1.9205334e-05
0.000236725955
-3.50581567e-05
0.000286678708
-5.40055616e-05
0.000345237235
-7.64953735e-05
0.000413150499
-0.000103075674
0.000491694117
-0.000134297694
0.00058227972
-0.000170776447
0.000686340006
-0.000213182436
0.00080534178
-0.000262190916
0.000940809814
-0.000318528088
0.00109427025
-0.000382935351
0.00126719305
-0.000456147644
0.00146112299
-0.00053901197
0.00167741085
-0.000632136681
0.00191699044
-0.000736038328
0.00218025599
-0.000850932317
0.00246703207
-0.00097707187
0.0027766365
-0.00111417739
0.00310685122
-0.00126016061
0.00345286954
-0.00141226123
0.00381071787
-0.00157311931
0.00417723893
-0.00173875537
0.00454324158
-0.00190957189
0.00490463759
-0.00208765168
0.00526432494
-0.00225200476
0.0055812711
-0.00238392036
0.00581864785
-0.00251520921
0.0060121817
-0.00263333271
0.00620479172
-0.00274352269
0.00635974402
-0.00285205774
0.00648111182
-0.00295591847
0.0065882833
-0.00305609034
0.00668750013
-0.00315420275
0.00679902605
-0.00325276576
0.00690519929
-0.00334418617
-0.00344242702
0.00700325054
-2.90124167e-08
4.96097998e-07
-1.13017577e-07
1.48330699e-06
-2.50780648e-07
2.50131986e-06
-4.40933312e-07
3.55647011e-06
-6.81937022e-07
4.65341647e-06
-9.72134597e-07
5.79569321e-06
-1.30965419e-06
6.98583677e-06
-1.69209739e-06
8.22514614e-06
-2.11643591e-06
9.51405329e-06
-2.57856353e-06
1.08518597e-05
-3.07359254e-06
1.22371978e-05
-3.59536534e-06
1.36673868e-05
-4.13619946e-06
1.51386632e-05
-4.68660636e-06
1.66461703e-05
-5.23500027e-06
1.81839512e-05
-5.76739801e-06
1.9744926e-05
-6.26717211e-06
2.13209173e-05
-6.71465742e-06
2.29024208e-05
-7.08755386e-06
2.44793175e-05
-7.36012752e-06
2.60395924e-05
-7.50052871e-06
2.75673895e-05
-7.47221501e-06
2.90475589e-05
-7.23274058e-06
3.04622187e-05
-6.73242195e-06
3.1790746e-05
-5.9129165e-06
3.30094889e-05
-4.70492716e-06
3.40910751e-05
-3.03133694e-06
3.500213e-05
-8.0050351e-07
3.57042062e-05
2.09668307e-06
3.61520964e-05
5.78987459e-06
3.62927325e-05
1.04302666e-05
3.6063728e-05
1.6177942e-05
3.54068587e-05
2.32182567e-05
3.42417944e-05
3.1761161e-05
3.24771858e-05
4.20428846e-05
3.00078645e-05
5.43633514e-05
2.66980761e-05
6.90447372e-05
2.24260102e-05
8.62902242e-05
1.71970118e-05
0.000106658337
1.05024647e-05
0.000130671991
2.25304828e-06
0.000158927999
-7.59655451e-06
0.0001921025
-1.97218483e-05
0.000230976023
-3.4317029e-05
0.000276612071
-5.17188903e-05
0.000329747171
-7.23490355e-05
0.000391355041
-9.66751417e-05
0.000462547487
-0.000125207657
0.000544545466
-0.000158503566
0.000638610123
-0.000197151115
0.000746079206
-0.000241778063
0.000868325986
-0.000293034926
0.0010067104
-0.000351578904
0.00116258268
-0.000418075547
0.00133718884
-0.000493146891
0.00153171032
-0.000577469738
0.00174706946
-0.000671519242
0.00198372784
-0.000775681496
0.00224162878
-0.000890047321
0.00251985043
-0.00101426825
0.00281649896
-0.00114758773
0.00312870154
-0.00128927997
0.00345338031
-0.00143886036
0.00378626252
-0.00159304578
0.00412121142
-0.00174721189
0.0044480144
-0.00189992301
0.00476447414
-0.00205521491
0.0050584482
-0.00220354529
0.00530810289
-0.00233730532
0.00551235696
-0.00245625795
0.00569006797
-0.00256163149
0.00584013341
-0.00266527657
0.00596657851
-0.00275978232
0.00608037195
-0.00285732335
0.00618170819
-0.0029534042
0.00627452804
-0.00304875422
0.00636257051
-0.00314415526
0.00644632257
-0.00323798215
0.00652995313
-0.00333643456
0.00662087173
-0.00343515551
-0.00354127497
0.00671967356
-2.96508603e-08
5.25556165e-07
-1.14377072e-07
1.56776439e-06
-2.51456645e-07
2.6380931e-06
-4.37809188e-07
3.7424809e-06
-6.69907079e-07
4.88513832e-06
-9.43662279e-07
6.06903797e-06
-1.25429139e-06
7.29601974e-06
-1.59640173e-06
8.56677238e-06
-1.96355023e-06
9.88067652e-06
-2.34797633e-06
1.1235716e-05
-2.74002703e-06
1.26286307e-05
-3.12818329e-06
1.40548732e-05
-3.49889281e-06
1.55086463e-05
-3.83617937e-06
1.69826691e-05
-4.12144194e-06
1.84683593e-05
-4.33264427e-06
1.99552018e-05
-4.4442583e-06
2.14315293e-05
-4.42646721e-06
2.28835467e-05
-4.24466708e-06
2.42963436e-05
-3.8589253e-06
2.5652582e-05
-3.2243944e-06
2.69314907e-05
-2.28838035e-06
2.81100691e-05
-9.88813288e-07
2.91610617e-05
7.47303937e-07
3.0052918e-05
3.00581533e-06
3.07491325e-05
5.88801066e-06
3.12068918e-05
9.50446679e-06
3.13835384e-05
1.39820733e-05
3.12243083e-05
1.9466116e-05
3.06655955e-05
2.612255e-05
2.9633665e-05
3.41393151e-05
2.80441437e-05
4.37429512e-05
2.58002086e-05
5.52013575e-05
2.278017e-05
6.88099015e-05
1.88652034e-05
8.47712111e-05
1.40428778e-05
0.000103580011
7.88540449e-06
0.000125701604
3.00351344e-07
0.000151659399
-8.76514153e-06
0.000182052562
-1.98953775e-05
0.000217566013
-3.32653851e-05
0.000259142997
-4.91788417e-05
0.000307437696
-6.80221879e-05
0.000363328121
-9.02134519e-05
0.000427811164
-0.000116208309
0.000501964493
-0.00014650915
0.000586933413
-0.000181651279
0.000683920743
-0.000222202617
0.00079416596
-0.000268756798
0.000918917879
-0.00032191142
0.00105938541
-0.000382254335
0.00121668834
-0.000450346931
0.0013917957
-0.00052669569
0.00158548729
-0.000611776929
0.00179822087
-0.000705890163
0.00202996016
-0.000809217969
0.00228008087
-0.000921647996
0.00254713083
-0.00104273857
0.00282886115
-0.00117178382
0.00312218055
-0.00130759287
0.00342272195
-0.0014481334
0.00372486333
-0.00159142469
0.0040225251
-0.00173652454
0.00431005461
-0.00188057685
0.00458226986
-0.00201942788
0.00483307169
-0.00215072496
0.0050492143
-0.00227135716
0.00522376282
-0.00237809327
0.0053600151
-0.00247355708
0.00547380126
-0.00257004429
0.00557816513
-0.00266599668
0.00567404653
-0.00276116111
0.00576601249
-0.00285175298
0.0058507461
-0.00294206396
0.0059292244
-0.00303189188
0.00600553827
-0.00312508099
0.00608142199
-0.0032200603
0.00616138087
-0.00331797744
0.00624596413
-0.00342105909
0.00633524795
-0.00352447454
-0.00362903493
0.00642296992
-3.1935615e-08
5.57223109e-07
-1.21522774e-07
1.65697692e-06
-2.64115296e-07
2.78025929e-06
-4.54485731e-07
3.93237725e-06
-6.86616498e-07
5.11675007e-06
-9.53508246e-07
6.335367e-06
-1.24696933e-06
7.58887427e-06
-1.55737928e-06
8.87653077e-06
-1.87355228e-06
1.01961506e-05
-2.18262348e-06
1.15440383e-05
-2.46921287e-06
1.29144184e-05
-2.71543447e-06
1.43002375e-05
-2.90030821e-06
1.56926042e-05
-2.99945053e-06
1.70808318e-05
-2.98460261e-06
1.84524634e-05
-2.82305934e-06
1.97925389e-05
-2.47694518e-06
2.10842216e-05
-1.90283808e-06
2.23081677e-05
-1.0499726e-06
2.34421189e-05
1.41319194e-07
2.44598378e-05
1.73813143e-06
2.53331289e-05
3.81802031e-06
2.60285273e-05
6.46953902e-06
2.65077784e-05
9.7938721e-06
2.67267003e-05
1.39064587e-05
2.66345331e-05
1.89384714e-05
2.61727296e-05
2.50459512e-05
2.52737626e-05
3.24077116e-05
2.38600959e-05
4.12280572e-05
2.18426298e-05
5.17464304e-05
1.91124946e-05
6.42316806e-05
1.55559e-05
7.88838456e-05
1.11448362e-05
9.61362539e-05
5.52436918e-06
0.0001163985
-1.40062497e-06
0.000140133182
-9.69565772e-06
0.000167869019
-1.98545862e-05
0.000200206442
-3.20415202e-05
0.000237966448
-4.65299064e-05
0.000281735861
-6.3669883e-05
0.000332298479
-8.38334475e-05
0.000390544051
-0.000107430234
0.000457427381
-0.000134911742
0.000533968647
-0.000166761371
0.000621247328
-0.000203494061
0.000720377007
-0.000245646296
0.000832477964
-0.000293760091
0.000958640999
-0.000348373879
0.00109987871
-0.000410003087
0.00125707452
-0.000479116138
0.00143092541
-0.000556114493
0.0016218763
-0.000641307442
0.00183002592
-0.000734854943
0.00205493661
-0.00083669665
0.00229552545
-0.00094648721
0.00254990971
-0.0010636096
0.00281540142
-0.00118714625
0.00308852365
-0.00131586651
0.00336511935
-0.00144838443
0.00364070152
-0.00158317916
0.00390896907
-0.00171640429
0.00416496886
-0.00184742702
0.00440030515
-0.00197186261
0.00461079585
-0.00209106862
0.0047938715
-0.00220250397
0.00494931675
-0.00230617024
0.00507126844
-0.00239330852
0.0051682753
-0.00247509991
0.0052517221
-0.00255700392
0.00532912588
-0.00264744892
0.00540010201
-0.0027369748
0.00546400517
-0.00282506767
0.00552585705
-0.00291361022
0.00558842432
-0.00300464027
0.00565612496
-0.00309960527
0.0057265797
-0.00319555332
0.00580241861
-0.00329592091
0.00588132237
-0.003396908
0.00596191305
-0.00350168043
0.00605565684
-0.00361824507
-0.00372753994
0.00615413383
-3.19421353e-08
5.89014011e-07
-1.19661206e-07
1.74448489e-06
-2.56170457e-07
2.91652785e-06
-4.33534686e-07
4.10947278e-06
-6.42614844e-07
5.32553435e-06
-8.72802835e-07
6.56523173e-06
-1.11173768e-06
7.82745732e-06
-1.34499138e-06
9.10940234e-06
-1.55564066e-06
1.04063851e-05
-1.72387469e-06
1.17118217e-05
-1.82706642e-06
1.30171203e-05
-1.83869892e-06
1.43113382e-05
-1.72786492e-06
1.55811926e-05
-1.45884951e-06
1.68111885e-05
-9.90129781e-07
1.79830609e-05
-2.74085799e-07
1.90757538e-05
7.43914202e-07
2.00654173e-05
2.12663378e-06
2.09245757e-05
3.94565277e-06
2.16221544e-05
6.28271087e-06
2.21217561e-05
9.23214287e-06
2.23825886e-05
1.29020506e-05
2.23574209e-05
1.74162146e-05
2.19923192e-05
2.29162625e-05
2.12252548e-05
2.95640506e-05
1.99852378e-05
3.75442261e-05
1.81909309e-05
4.70713436e-05
1.57448993e-05
5.83895698e-05
1.2539991e-05
7.16936227e-05
8.53655403e-06
8.73620385e-05
3.44192781e-06
0.000105755789
-2.84013227e-06
0.000127283791
-1.03856241e-05
0.000152411889
-1.96063781e-05
0.000181664695
-3.06562678e-05
0.000215753045
-4.37870426e-05
0.000255203168
-5.93079533e-05
0.000300709236
-7.75510552e-05
0.000353058608
-9.88829801e-05
0.000413092704
-0.000123707932
0.000481714088
-0.000152459055
0.000559877023
-0.00018559766
0.000648568315
-0.000223607785
0.000748783348
-0.000266981417
0.00086149433
-0.000316210317
0.000987611633
-0.000371769131
0.00112794092
-0.000434095163
0.00128312672
-0.000503565701
0.00145359088
-0.000580473538
0.00163946027
-0.000664992093
0.00184054722
-0.000757208155
0.00205615375
-0.000856920438
0.0022849691
-0.00096367628
0.00252495461
-0.00107668761
0.00277332733
-0.00119486486
0.00302657448
-0.00131686111
0.00328053109
-0.00144110666
0.00353054464
-0.00156588329
0.00377204737
-0.00168988983
0.00400242993
-0.00181356381
0.00421583825
-0.00192981405
0.00440494613
-0.00203653573
0.00456623667
-0.00213315346
0.00469940198
-0.00222423388
0.0048074421
-0.00231054374
0.00489533855
-0.00239406616
0.00497437988
-0.00247234916
0.00504488613
-0.0025456057
0.00510495509
-0.00261707268
0.00515439281
-0.00269688726
0.00520340558
-0.00278598884
0.0052562804
-0.00287794513
0.00531086296
-0.00296819764
0.00536550641
-0.00305929021
0.00542162151
-0.00315572914
0.0054842936
-0.00325823828
0.0055545154
-0.00336615886
0.0056365195
-0.00347893145
0.00572584517
-0.0035910292
0.00582220023
-0.00371462397
-0.00383120719
0.00592584693
-2.80140949e-08
6.16806639e-07
-1.01313149e-07
1.81747514e-06
-2.09715925e-07
3.02457923e-06
-3.41631574e-07
4.24099771e-06
-4.83719378e-07
5.4671945e-06
-6.20518893e-07
6.70156772e-06
-7.34044274e-07
7.94048291e-06
-8.03354909e-07
9.17817595e-06
-8.04023168e-07
1.04064776e-05
-7.07605528e-07
1.16147872e-05
-4.81008387e-07
1.27898625e-05
-8.59242531e-08
1.39155473e-05
5.21572624e-07
1.49729399e-05
1.39200819e-06
1.59399449e-05
2.58318722e-06
1.67910181e-05
4.16103782e-06
1.749698e-05
6.20125426e-06
1.8024215e-05
8.79045512e-06
1.83343223e-05
1.20276324e-05
1.83838521e-05
1.60258347e-05
1.81223512e-05
2.09140279e-05
1.74931104e-05
2.683841e-05
1.64316657e-05
3.3965862e-05
1.48633993e-05
4.24883621e-05
1.27011864e-05
5.26262662e-05
9.84565466e-06
6.45666856e-05
6.24871135e-06
7.86395131e-05
1.67015999e-06
9.51631671e-05
-3.98569109e-06
0.000114498915
-1.0801377e-05
0.000137056445
-1.91179536e-05
0.000163292999
-2.90792091e-05
0.000193819667
-4.09149988e-05
0.000229108445
-5.489806e-05
0.000269772694
-7.13236333e-05
0.00031650013
-9.05178215e-05
0.000370028352
-0.000112839764
0.000431148988
-0.000138675547
0.000500699108
-0.000168437225
0.00057954577
-0.000202558986
0.000668566833
-0.00024148478
0.00076862573
-0.000285661492
0.000880537605
-0.000335524865
0.00100503285
-0.000391482128
0.00114270792
-0.000453891118
0.00129396895
-0.000523036122
0.00145896963
-0.000599102022
0.00163755083
-0.000682153324
0.0018291979
-0.000772127293
0.00203297253
-0.000868773298
0.00224738104
-0.000971622767
0.00247033191
-0.0010798769
0.00269910636
-0.00119245583
0.00293041044
-0.00130799627
0.00316049922
-0.00142495771
0.00338524131
-0.00154160677
0.00360048183
-0.00165635026
0.00380215319
-0.00176755724
0.00398649794
-0.00187423653
0.00414554654
-0.00197261366
0.00428130267
-0.00206557092
0.00439539809
-0.00215063149
0.00449554491
-0.0022333002
0.00458566259
-0.00231435116
0.00466839171
-0.00239327229
0.00474545485
-0.00247112854
0.0048174652
-0.00254435871
0.00488415576
-0.00261229574
0.00494559524
-0.00267851185
0.00499341708
-0.00274470929
0.00503213601
-0.00282470884
0.00506941785
-0.00291523006
0.00511583556
-0.00301461967
0.00517182815
-0.0031152874
0.0052319287
-0.00321583557
0.00529459312
-0.0033209112
0.0053585574
-0.00343013378
0.00542501484
-0.00354540237
0.00549515082
-0.00366118235
0.00556244645
-0.00378194142
-0.00390346864
0.00563468305
-1.85862855e-08
6.35274598e-07
-6.03846412e-08
1.85910854e-06
-1.10816754e-07
3.07482334e-06
-1.53266366e-07
4.2832374e-06
-1.68620867e-07
5.48231774e-06
-1.34782117e-07
6.66747608e-06
-2.61285378e-08
7.83155367e-06
1.87086139e-07
8.96466124e-06
5.39279848e-07
1.00539576e-05
1.07014845e-06
1.10835635e-05
1.82535563e-06
1.20342689e-05
2.85717726e-06
1.2883305e-05
4.22558501e-06
1.3604074e-05
5.99900811e-06
1.41660232e-05
8.25582493e-06
1.45336587e-05
1.10855519e-05
1.46666623e-05
1.45903164e-05
1.45188075e-05
1.88863917e-05
1.4037548e-05
2.41065081e-05
1.31629759e-05
3.04023703e-05
1.18256643e-05
3.79488259e-05
9.94576097e-06
4.69153419e-05
7.46417995e-06
5.75055196e-05
4.27216896e-06
7.00042547e-05
2.01319476e-07
8.46894164e-05
-4.84072132e-06
0.000101876707
-1.09398956e-05
0.000121924578
-1.83791386e-05
0.000145230932
-2.7293584e-05
0.000172319125
-3.78912287e-05
0.000203610991
-5.04116046e-05
0.000239645666
-6.5115804e-05
0.00028102121
-8.22926046e-05
0.000328380625
-0.000102259688
0.000382414539
-0.000125359924
0.000443853947
-0.000151959771
0.000513458155
-0.000182446679
0.000591999187
-0.000217219452
0.000680241172
-0.000256682251
0.000778912253
-0.000301233273
0.000888674445
-0.000351250345
0.00101008277
-0.000407073347
0.00114353772
-0.000468983505
0.00128923128
-0.000537179525
0.00144708777
-0.000611751574
0.00161670266
-0.000692655107
0.00179728644
-0.000779690038
0.00198764534
-0.000872516509
0.00218608811
-0.000970574154
0.00239038829
-0.00107307725
0.00259775504
-0.00117899294
0.00280504403
-0.00128716895
0.0030089074
-0.00139632189
0.00320556668
-0.00150465784
0.00339116996
-0.00161056288
0.00356265077
-0.00171308903
0.00371740983
-0.00181111035
0.00385349672
-0.00190364475
0.00396861048
-0.00198935044
0.00406106342
-0.00206506627
0.00413848339
-0.00214298999
0.00421060829
-0.00222275522
0.00427774544
-0.00230043623
0.0043399162
-0.0023765206
0.00439900638
-0.00245236054
0.0044590501
-0.00253116989
0.00452236503
-0.00260767158
0.00459242545
-0.00268235434
0.00466238249
-0.00274846728
0.00472702253
-0.00280934843
0.00478653187
-0.00288421809
0.0048403556
-0.00296905446
0.00488632599
-0.00306059154
0.0049260968
-0.00315506096
0.00496917003
-0.00325891347
0.00501739904
-0.00336914734
0.00507277083
-0.00348551464
0.00513603875
-0.00360868105
0.00520598288
-0.00373114192
0.00527731577
-0.0038532896
-0.00397179711
0.00534563089
-2.83280234e-09
6.3792515e-07
6.7189254e-09
1.84930287e-06
4.89619861e-08
3.03229136e-06
1.47110571e-07
4.18476753e-06
3.27790996e-07
5.30128558e-06
6.21624868e-07
6.3732608e-06
1.06386924e-06
7.38889806e-06
1.6950894e-06
8.33299917e-06
2.56185221e-06
9.1867208e-06
3.71761674e-06
9.92729119e-06
5.22363376e-06
1.05277082e-05
7.14972567e-06
1.09566318e-05
9.57588106e-06
1.11772973e-05
1.25932602e-05
1.11479793e-05
1.63056089e-05
1.08205988e-05
2.08308199e-05
1.0140691e-05
2.63030378e-05
9.045777e-06
3.28735905e-05
7.46612595e-06
4.06950874e-05
5.34054706e-06
4.99780184e-05
2.54173946e-06
6.09407717e-05
-1.01804441e-06
7.38299861e-05
-5.42615697e-06
8.89264835e-05
-1.08255384e-05
0.000106543365
-1.74168625e-05
0.000127025961
-2.53247096e-05
0.000150820005
-3.47354334e-05
0.000178300198
-4.58609328e-05
0.000209937379
-5.89324828e-05
0.000246249531
-7.42052233e-05
0.000287795128
-9.19591792e-05
0.000335174648
-0.000112497451
0.000389024492
-0.000136144728
0.000450007694
-0.000163245328
0.000518801703
-0.000194156535
0.000596082041
-0.000229242878
0.000682499795
-0.000268867375
0.000778657158
-0.000313379931
0.000885074558
-0.000363102942
0.00100215203
-0.000418314214
0.00113012515
-0.0004792271
0.00126901652
-0.000545968504
0.00141858443
-0.000618555364
0.0015782716
-0.00069687077
0.00174715723
-0.000780641425
0.00192392061
-0.000869422847
0.00210684195
-0.000962615719
0.00229373495
-0.00105941358
0.00248194851
-0.00115879149
0.00266843197
-0.00125956413
0.00284994343
-0.0013605075
0.00302336651
-0.00146059475
0.00318647633
-0.00155943409
0.00333689158
-0.00165507508
0.00347158592
-0.00174525873
0.00358852764
-0.00183003175
0.00368727683
-0.00190986017
0.00376981262
-0.00198618069
0.0038398127
-0.0020593502
0.00390389247
-0.00212914527
0.00395696376
-0.00219606018
0.00400107723
-0.00226686699
0.00404040583
-0.00233976299
0.00407705758
-0.00241317036
0.00411400196
-0.00248930249
0.00415052515
-0.00256769053
0.00419115467
-0.00264829831
0.00423732876
-0.00272852582
0.00429233483
-0.00280347131
0.00435413345
-0.00287114549
0.00441853409
-0.00294861748
0.00448417365
-0.00303469336
0.00455177675
-0.003128195
0.00461992277
-0.00322320856
0.00468603358
-0.00332502707
0.00474856675
-0.00343168406
0.00480472394
-0.00354167741
0.00485861624
-0.00366258117
0.0049233212
-0.00379585657
0.00499356355
-0.00392354246
-0.00404425521
0.00506601318
1.96733164e-08
6.18162319e-07
1.01696002e-07
1.76715553e-06
2.7366156e-07
2.8601838e-06
5.67065467e-07
3.89120502e-06
1.01789476e-06
4.85028134e-06
1.6673471e-06
5.72361684e-06
2.56260208e-06
6.49343386e-06
3.75767342e-06
7.13769966e-06
5.31434768e-06
7.62979772e-06
7.30298647e-06
7.93838114e-06
9.80410694e-06
8.02629194e-06
1.29092513e-05
7.8511643e-06
1.67223874e-05
7.36380809e-06
2.13617091e-05
6.50827206e-06
2.69609798e-05
5.22090688e-06
3.36592085e-05
3.44200203e-06
4.16364704e-05
1.06801442e-06
5.1084872e-05
-1.98281938e-06
6.22197782e-05
-5.79495289e-06
7.52829324e-05
-1.0522062e-05
9.05414793e-05
-1.62772948e-05
0.000108322529
-2.32079714e-05
0.000128975582
-3.14794222e-05
0.00015283371
-4.12758916e-05
0.000180308115
-5.280009e-05
0.000211847933
-6.62763055e-05
0.000247936585
-8.19507249e-05
0.000289093426
-0.000100090554
0.000335869464
-0.000120982586
0.000388840714
-0.00014493185
0.000448598961
-0.000172257215
0.000515738848
-0.000203286234
0.000590840429
-0.000238348628
0.000674449075
-0.000277767002
0.000767049617
-0.00032184534
0.000869035319
-0.000370855096
0.000980672232
-0.000425018958
0.00110205972
-0.000484492633
0.00123308819
-0.000549344969
0.00137339657
-0.000619537848
0.00152233201
-0.000694906362
0.00167891593
-0.000775141755
0.00184182173
-0.000859779074
0.00200936905
-0.000948191299
0.00217956164
-0.00103961791
0.00235008267
-0.00113313903
0.002518346
-0.00122767894
0.00268164639
-0.00132209366
0.00283727488
-0.00141519411
0.00298273843
-0.00150597225
0.00311611149
-0.00159396866
0.00323502142
-0.00167834449
0.00333763404
-0.00175768777
0.0034251662
-0.00183279059
0.00349979935
-0.00190466421
0.00356520122
-0.00197526111
0.00362387023
-0.00204484847
0.00367800562