/*--------------------------------*- C++ -*----------------------------------*\
  =========                 |
  \\      /  F ield         | OpenFOAM: The Open Source CFD Toolbox
   \\    /   O peration     | Website:  https://openfoam.org
    \\  /    A nd           | Version:  8
     \\/     M anipulation  |
\*---------------------------------------------------------------------------*/
FoamFile
{
    version     2.0;
    format      ascii;
    class       volScalarField;
    location    "0.019";
    object      p_rgh;
}
// * * * * * * * * * * * * * * * * * * * * * * * * * * * * * * * * * * * * * //

dimensions      [1 -1 -2 0 0 0 0];

internalField   nonuniform List<scalar> 
42400
(
101304.395
101304.386
101304.377
101304.369
101304.361
101304.354
101304.348
101304.343
101304.338
101304.334
101304.331
101304.329
101304.327
101304.327
101304.327
101304.328
101304.331
101304.334
101304.338
101304.343
101304.35
101304.357
101304.365
101304.375
101304.386
101304.398
101304.411
101304.425
101304.441
101304.459
101304.478
101304.499
101304.522
101304.546
101304.573
101304.607
101304.65
101304.698
101304.745
101304.785
101304.822
101304.863
101304.917
101304.983
101305.055
101305.134
101305.22
101305.311
101305.408
101305.519
101305.651
101305.801
101305.944
101306.08
101306.24
101306.423
101306.619
101306.821
101307.031
101307.245
101307.463
101307.683
101307.908
101308.129
101308.326
101308.497
101308.616
101308.659
101308.665
101308.534
101308.396
101308.576
101307.622
101305.758
101304.462
101305.421
101307.391
101306.961
101309.323
101311.372
101304.117
101304.11
101304.103
101304.097
101304.092
101304.087
101304.083
101304.08
101304.077
101304.075
101304.074
101304.074
101304.074
101304.075
101304.078
101304.081
101304.085
101304.09
101304.096
101304.104
101304.112
101304.121
101304.131
101304.143
101304.155
101304.169
101304.183
101304.199
101304.217
101304.235
101304.254
101304.275
101304.301
101304.333
101304.369
101304.404
101304.431
101304.454
101304.481
101304.517
101304.563
101304.612
101304.664
101304.721
101304.781
101304.842
101304.918
101305.017
101305.122
101305.201
101305.282
101305.394
101305.525
101305.662
101305.808
101305.965
101306.132
101306.313
101306.514
101306.74
101306.984
101307.242
101307.512
101307.802
101308.097
101308.417
101308.744
101309.024
101309.291
101309.58
101309.822
101310.422
101310.772
101310.452
101311.249
101314.946
101315.276
101316.416
101319.4
101321.549
101303.753
101303.749
101303.744
101303.74
101303.736
101303.733
101303.731
101303.73
101303.729
101303.728
101303.729
101303.73
101303.733
101303.736
101303.74
101303.745
101303.751
101303.758
101303.766
101303.775
101303.785
101303.796
101303.809
101303.822
101303.836
101303.852
101303.868
101303.886
101303.906
101303.928
101303.953
101303.981
101304.008
101304.029
101304.049
101304.07
101304.097
101304.132
101304.169
101304.207
101304.249
101304.291
101304.333
101304.387
101304.46
101304.523
101304.571
101304.636
101304.719
101304.81
101304.904
101305.004
101305.114
101305.235
101305.37
101305.527
101305.706
101305.905
101306.126
101306.378
101306.667
101306.998
101307.374
101307.804
101308.268
101308.791
101309.386
101310.015
101310.659
101311.48
101312.296
101313.224
101315.594
101318.063
101318.833
101318.898
101319.909
101322.914
101325.376
101326.755
101303.327
101303.324
101303.32
101303.317
101303.315
101303.313
101303.312
101303.312
101303.312
101303.313
101303.315
101303.318
101303.321
101303.326
101303.332
101303.338
101303.346
101303.355
101303.365
101303.376
101303.389
101303.402
101303.417
101303.433
101303.449
101303.467
101303.487
101303.509
101303.532
101303.553
101303.575
101303.597
101303.62
101303.648
101303.679
101303.711
101303.744
101303.778
101303.814
101303.847
101303.89
101303.949
101303.997
101304.031
101304.08
101304.144
101304.209
101304.278
101304.352
101304.434
101304.526
101304.634
101304.758
101304.9
101305.059
101305.241
101305.453
101305.702
101305.992
101306.326
101306.714
101307.16
101307.684
101308.287
101308.976
101309.75
101310.672
101311.59
101312.427
101313.563
101316.069
101318.513
101319.037
101319.445
101320.814
101322.203
101324.157
101325.924
101327.475
101328.688
101302.843
101302.84
101302.837
101302.834
101302.832
101302.831
101302.831
101302.831
101302.832
101302.833
101302.836
101302.84
101302.845
101302.851
101302.858
101302.866
101302.876
101302.887
101302.899
101302.912
101302.925
101302.94
101302.957
101302.976
101302.997
101303.019
101303.042
101303.066
101303.091
101303.119
101303.148
101303.178
101303.209
101303.24
101303.274
101303.307
101303.338
101303.377
101303.431
101303.473
101303.501
101303.545
101303.599
101303.653
101303.709
101303.77
101303.838
101303.916
101304.007
101304.11
101304.227
101304.363
101304.523
101304.713
101304.938
101305.202
101305.51
101305.864
101306.269
101306.73
101307.265
101307.859
101308.57
101309.323
101310.212
101310.976
101311.855
101313.477
101316.22
101318.35
101318.955
101319.628
101321.28
101323.069
101324.61
101326.106
101328.525
101330.742
101332.91
101334.925
101302.301
101302.298
101302.295
101302.292
101302.29
101302.289
101302.288
101302.289
101302.29
101302.292
101302.295
101302.299
101302.305
101302.312
101302.321
101302.331
101302.341
101302.353
101302.368
101302.385
101302.404
101302.424
101302.447
101302.47
101302.494
101302.52
101302.547
101302.576
101302.606
101302.637
101302.67
101302.704
101302.738
101302.77
101302.81
101302.862
101302.902
101302.931
101302.973
101303.024
101303.074
101303.125
101303.181
101303.243
101303.312
101303.389
101303.478
101303.579
101303.698
101303.841
101304.011
101304.215
101304.46
101304.752
101305.098
101305.501
101305.969
101306.505
101307.112
101307.783
101308.549
101309.349
101310.278
101311.124
101312.429
101315.159
101317.565
101318.47
101318.93
101320.081
101321.575
101323.052
101324.874
101327.116
101329.603
101331.522
101332.76
101334.139
101336.353
101338.86
101301.689
101301.685
101301.681
101301.678
101301.676
101301.675
101301.675
101301.675
101301.677
101301.681
101301.685
101301.69
101301.697
101301.705
101301.715
101301.727
101301.742
101301.758
101301.776
101301.795
101301.816
101301.839
101301.864
101301.89
101301.918
101301.948
101301.98
101302.013
101302.048
101302.084
101302.118
101302.159
101302.211
101302.253
101302.285
101302.328
101302.38
101302.43
101302.481
101302.535
101302.594
101302.658
101302.728
101302.807
101302.898
101303.003
101303.127
101303.275
101303.453
101303.666
101303.924
101304.235
101304.607
101305.046
101305.565
101306.17
101306.872
101307.675
101308.586
101309.603
101310.737
101312.025
101313.54
101315.758
101317.127
101317.807
101318.959
101320.589
101322.249
101323.597
101325.172
101326.824
101328.61
101330.681
101332.277
101333.848
101335.81
101337.695
101339.543
101341.602
101300.985
101300.981
101300.977
101300.974
101300.972
101300.971
101300.971
101300.973
101300.976
101300.98
101300.986
101300.994
101301.004
101301.016
101301.028
101301.043
101301.06
101301.079
101301.1
101301.122
101301.147
101301.175
101301.204
101301.235
101301.268
101301.303
101301.339
101301.375
101301.417
101301.468
101301.512
101301.548
101301.594
101301.647
101301.699
101301.752
101301.809
101301.868
101301.932
101302.002
101302.079
101302.165
101302.263
101302.376
101302.509
101302.665
101302.851
101303.073
101303.34
101303.66
101304.043
101304.494
101305.023
101305.639
101306.356
101307.176
101308.11
101309.169
101310.36
101311.677
101312.972
101314.495
101315.928
101317.087
101318.701
101320.308
101321.651
101323.115
101324.623
101326.375
101328.115
101329.761
101331.156
101332.634
101334.846
101337.143
101339.108
101341.009
101343.174
101345.584
101300.167
101300.164
101300.161
101300.159
101300.159
101300.159
101300.161
101300.165
101300.17
101300.178
101300.187
101300.197
101300.21
101300.224
101300.241
101300.26
101300.281
101300.304
101300.33
101300.358
101300.388
101300.421
101300.456
101300.493
101300.53
101300.572
101300.623
101300.669
101300.709
101300.758
101300.814
101300.87
101300.927
101300.987
101301.051
101301.119
101301.193
101301.273
101301.362
101301.46
101301.572
101301.7
101301.849
101302.022
101302.226
101302.468
101302.753
101303.091
101303.489
101303.952
101304.485
101305.093
101305.785
101306.561
101307.435
101308.387
101309.413
101310.465
101311.823
101313.536
101315.344
101316.868
101318.113
101319.607
101321.323
101322.969
101324.719
101326.57
101328.402
101330.123
101331.839
101333.724
101335.702
101337.676
101339.331
101340.996
101343.093
101345.577
101347.897
101349.519
101299.218
101299.216
101299.215
101299.216
101299.218
101299.222
101299.227
101299.234
101299.243
101299.254
101299.267
101299.282
101299.299
101299.319
101299.341
101299.366
101299.393
101299.423
101299.455
101299.49
101299.528
101299.566
101299.61
101299.661
101299.709
101299.753
101299.806
101299.865
101299.924
101299.986
101300.051
101300.12
101300.194
101300.273
101300.359
101300.453
101300.556
101300.671
101300.802
101300.951
101301.123
101301.323
101301.557
101301.83
101302.151
101302.527
101302.965
101303.472
101304.053
101304.713
101305.455
101306.281
101307.194
101308.179
101309.251
101310.366
101311.747
101313.756
101315.609
101316.748
101317.892
101319.75
101322.121
101323.993
101325.538
101327.315
101328.939
101330.283
101331.926
101333.591
101335.52
101337.769
101339.437
101340.962
101342.747
101344.643
101346.43
101348.244
101350.159
101352.447
101298.105
101298.106
101298.109
101298.114
101298.12
101298.128
101298.138
101298.15
101298.164
101298.181
101298.2
101298.222
101298.246
101298.273
101298.303
101298.336
101298.372
101298.41
101298.45
101298.495
101298.547
101298.598
101298.647
101298.703
101298.765
101298.828
101298.894
101298.964
101299.038
101299.117
101299.201
101299.292
101299.389
101299.496
101299.615
101299.746
101299.895
101300.064
101300.259
101300.483
101300.744
101301.048
101301.402
101301.815
101302.294
101302.847
101303.482
101304.206
101305.027
101305.951
101306.983
101308.126
101309.386
101310.774
101312.261
101313.94
101315.464
101316.721
101318.087
101319.815
101321.327
101322.83
101324.454
101325.866
101327.305
101328.722
101330.305
101332.064
101334.019
101336.304
101338.684
101340.672
101342.417
101343.974
101345.559
101347.292
101349.331
101351.139
101352.925
101354.602
101296.801
101296.807
101296.815
101296.825
101296.836
101296.85
101296.867
101296.886
101296.908
101296.932
101296.96
101296.99
101297.023
101297.06
101297.1
101297.142
101297.189
101297.242
101297.295
101297.348
101297.408
101297.473
101297.54
101297.611
101297.685
101297.763
101297.847
101297.935
101298.029
101298.13
101298.239
101298.358
101298.489
101298.634
101298.798
101298.983
101299.194
101299.436
101299.715
101300.038
101300.412
101300.844
101301.341
101301.912
101302.563
101303.299
101304.125
101305.045
101306.058
101307.163
101308.352
101309.624
101310.951
101312.342
101313.835
101315.366
101317.049
101318.523
101319.747
101321.244
101322.563
101323.98
101325.783
101327.655
101329.47
101331.277
101333.139
101335.025
101337.071
101339.131
101340.843
101342.693
101344.735
101346.628
101348.908
101350.969
101352.674
101354.453
101355.917
101357.298
101295.261
101295.273
101295.288
101295.305
101295.324
101295.346
101295.371
101295.399
101295.431
101295.465
101295.503
101295.544
101295.589
101295.637
101295.692
101295.748
101295.805
101295.868
101295.937
101296.008
101296.083
101296.162
101296.245
101296.333
101296.426
101296.525
101296.63
101296.742
101296.864
101296.996
101297.14
101297.3
101297.479
101297.681
101297.909
101298.169
101298.467
101298.809
101299.202
101299.652
101300.166
101300.752
101301.414
101302.158
101302.987
101303.902
101304.902
101305.985
101307.15
101308.379
101309.674
101311.017
101312.412
101313.772
101315.233
101317.008
101318.84
101320.643
101322.614
101324.64
101326.609
101327.834
101329.168
101331.182
101332.892
101334.408
101336.47
101338.904
101340.116
101341.444
101344
101346.519
101348.666
101350.637
101352.619
101354.473
101356.594
101359.074
101361.134
101362.435
101293.445
101293.465
101293.489
101293.515
101293.544
101293.576
101293.611
101293.651
101293.693
101293.74
101293.791
101293.846
101293.904
101293.966
101294.033
101294.104
101294.179
101294.259
101294.343
101294.431
101294.525
101294.623
101294.728
101294.839
101294.956
101295.083
101295.219
101295.367
101295.529
101295.708
101295.907
101296.13
101296.382
101296.668
101296.994
101297.366
101297.79
101298.273
101298.822
101299.443
101300.141
101300.921
101301.786
101302.736
101303.769
101304.88
101306.056
101307.277
101308.556
101310.024
101311.581
101313.392
101315.601
101317.922
101319.903
101321.529
101323.011
101324.383
101325.781
101327.145
101328.756
101330.857
101332.87
101334.475
101336.442
101338.667
101340.135
101341.606
101344.055
101346.629
101348.183
101349.679
101351.39
101353.854
101356.366
101358.462
101360.748
101362.944
101364.312
101365.571
101291.302
101291.331
101291.366
101291.404
101291.444
101291.489
101291.537
101291.59
101291.646
101291.706
101291.772
101291.842
101291.916
101291.995
101292.078
101292.166
101292.26
101292.358
101292.462
101292.571
101292.687
101292.811
101292.942
101293.083
101293.234
101293.399
101293.579
101293.778
101293.998
101294.245
101294.522
101294.836
101295.191
101295.595
101296.054
101296.574
101297.164
101297.828
101298.572
101299.403
101300.323
101301.336
101302.444
101303.648
101304.954
101306.364
101307.881
101309.473
101311.233
101312.902
101314.499
101315.985
101317.537
101319.112
101320.563
101322.187
101323.864
101325.663
101327.477
101329.286
101331.042
101332.836
101334.658
101336.434
101338.271
101340.053
101341.916
101344.271
101346.467
101348.391
101350.787
101353.438
101355.593
101357.238
101359.04
101360.966
101362.707
101364.863
101367.006
101368.521
101288.793
101288.833
101288.882
101288.933
101288.987
101289.045
101289.107
101289.175
101289.246
101289.323
101289.404
101289.49
101289.581
101289.677
101289.779
101289.886
101289.999
101290.118
101290.245
101290.379
101290.522
101290.675
101290.84
101291.018
101291.214
101291.429
101291.667
101291.933
101292.231
101292.566
101292.945
101293.373
101293.858
101294.404
101295.019
101295.708
101296.476
101297.326
101298.262
101299.283
101300.388
101301.574
101302.837
101304.169
101305.563
101307.007
101308.503
101310.073
101311.642
101313.331
101315.102
101316.574
101317.874
101319.563
101321.547
101323.446
101325.334
101327.177
101329.04
101331.245
101333.426
101335.095
101337.283
101339.407
101341.322
101343.376
101345.545
101347.849
101349.749
101351.724
101353.6
101355.236
101357.069
101359.467
101362.29
101364.626
101366.07
101367.815
101369.945
101371.977
101285.887
101285.941
101286.004
101286.07
101286.139
101286.212
101286.291
101286.373
101286.461
101286.554
101286.652
101286.755
101286.864
101286.979
101287.1
101287.227
101287.362
101287.505
101287.658
101287.821
101287.997
101288.188
101288.396
101288.625
101288.878
101289.159
101289.474
101289.828
101290.226
101290.675
101291.18
101291.748
101292.385
101293.097
101293.886
101294.758
101295.714
101296.755
101297.879
101299.084
101300.365
101301.714
101303.123
101304.587
101306.093
101307.646
101309.243
101310.924
101312.556
101314.432
101316.847
101319.22
101321.183
101322.864
101324.819
101327.073
101329.325
101331.756
101333.937
101335.228
101336.35
101338.399
101340.265
101342.004
101344.49
101346.862
101348.731
101350.204
101352.214
101354.979
101357.362
101359.278
101360.956
101363.118
101365.065
101366.764
101368.923
101371.096
101372.357
101373.991
101282.602
101282.67
101282.751
101282.833
101282.918
101283.007
101283.102
101283.201
101283.306
101283.416
101283.531
101283.653
101283.781
101283.916
101284.059
101284.21
101284.372
101284.545
101284.731
101284.934
101285.154
101285.397
101285.666
101285.965
101286.298
101286.673
101287.093
101287.567
101288.099
101288.696
101289.364
101290.109
101290.935
101291.846
101292.844
101293.93
101295.105
101296.364
101297.71
101299.141
101300.65
101302.23
101303.882
101305.593
101307.335
101309.056
101311.098
101313.738
101316.757
101318.789
101320.123
101321.502
101323.002
101324.632
101326.816
101329.388
101331.402
101333.011
101334.597
101336.663
101338.935
101340.643
101342.56
101344.729
101346.303
101348.011
101350.661
101353.752
101355.906
101357.434
101359.247
101361.932
101364.89
101367.042
101369.27
101371.936
101373.341
101373.97
101375.253
101377.11
101278.988
101279.073
101279.171
101279.27
101279.372
101279.479
101279.591
101279.708
101279.831
101279.96
101280.096
101280.239
101280.39
101280.551
101280.722
101280.906
101281.104
101281.32
101281.555
101281.814
101282.101
101282.419
101282.775
101283.173
101283.621
101284.122
101284.685
101285.316
101286.019
101286.8
101287.663
101288.612
101289.647
101290.769
101291.977
101293.266
101294.63
101296.048
101297.538
101299.077
101300.606
101302.338
101304.538
101306.989
101309.479
101312.096
101314.394
101315.942
101316.971
101318.35
101320.481
101322.715
101324.891
101327.165
101328.879
101330.019
101331.795
101334.29
101336.624
101339.054
101341.52
101344.001
101346.422
101348.747
101351.325
101353.849
101355.579
101357.146
101358.98
101361.379
101363.886
101366.255
101368.71
101370.907
101372.983
101374.913
101376.944
101379.039
101380.879
101381.925
101275.125
101275.226
101275.342
101275.458
101275.577
101275.701
101275.831
101275.967
101276.11
101276.261
101276.42
101276.589
101276.77
101276.964
101277.174
101277.403
101277.654
101277.93
101278.236
101278.576
101278.957
101279.383
101279.862
101280.398
101280.999
101281.671
101282.419
101283.249
101284.165
101285.168
101286.262
101287.444
101288.713
101290.067
101291.5
101293.001
101294.551
101296.209
101298.321
101301.039
101303.984
101306.774
101308.81
101310.294
101311.597
101312.85
101314.134
101315.615
101317.657
101320.025
101322.333
101324.58
101326.988
101329.661
101332.47
101335.072
101336.936
101338.681
101340.639
101342.515
101344.175
101345.664
101347.596
101350.215
101352.4
101354.537
101357.236
101359.905
101362.444
101365.258
101367.84
101369.538
101371.289
101373.439
101375.561
101377.192
101379.027
101381.262
101383.114
101384.509
101335.004
101335.004
101335.004
101335.005
101335.006
101335.008
101335.009
101335.011
101335.014
101335.017
101335.02
101335.024
101335.028
101335.032
101335.037
101335.042
101335.048
101335.054
101335.06
101335.067
101335.074
101335.081
101335.09
101335.098
101335.107
101335.117
101335.128
101335.139
101335.151
101335.164
101335.177
101335.192
101335.208
101335.225
101335.242
101335.262
101335.285
101335.309
101335.335
101335.364
101335.396
101335.43
101335.468
101335.51
101335.555
101335.606
101335.661
101335.722
101335.788
101335.86
101335.938
101336.021
101336.11
101336.203
101336.298
101336.393
101336.484
101336.562
101336.618
101336.638
101336.605
101336.5
101336.299
101335.976
101335.506
101334.878
101334.092
101333.152
101332.051
101330.766
101329.247
101327.485
101325.544
101323.47
101321.24
101318.824
101316.072
101312.736
101307.692
101301.705
101331.197
101331.197
101331.197
101331.198
101331.197
101331.197
101331.197
101331.196
101331.196
101331.195
101331.194
101331.193
101331.191
101331.189
101331.187
101331.185
101331.183
101331.18
101331.176
101331.173
101331.169
101331.164
101331.16
101331.154
101331.149
101331.143
101331.136
101331.129
101331.122
101331.114
101331.106
101331.098
101331.089
101331.08
101331.071
101331.062
101331.053
101331.044
101331.035
101331.027
101331.019
101331.011
101331.005
101330.999
101330.995
101330.992
101330.99
101330.99
101330.991
101330.993
101330.996
101330.999
101331
101330.997
101330.987
101330.963
101330.918
101330.841
101330.719
101330.533
101330.262
101329.884
101329.374
101328.712
101327.883
101326.884
101325.72
101324.388
101322.866
101321.135
101318.972
101316.41
101313.839
101311.129
101308.143
101304.836
101300.966
101296.289
101289.658
101283.73
101327.433
101327.434
101327.434
101327.434
101327.433
101327.431
101327.428
101327.425
101327.421
101327.417
101327.411
101327.405
101327.398
101327.389
101327.38
101327.37
101327.359
101327.347
101327.334
101327.319
101327.303
101327.286
101327.268
101327.248
101327.226
101327.203
101327.179
101327.153
101327.125
101327.096
101327.064
101327.031
101326.996
101326.958
101326.919
101326.878
101326.835
101326.79
101326.742
101326.693
101326.641
101326.588
101326.532
101326.473
101326.413
101326.35
101326.284
101326.215
101326.143
101326.066
101325.984
101325.894
101325.795
101325.682
101325.548
101325.385
101325.182
101324.928
101324.606
101324.197
101323.68
101323.027
101322.215
101321.223
101320.038
101318.66
101317.086
101315.298
101313.263
101310.931
101308.271
101305.313
101302.077
101298.493
101294.555
101290.146
101285.189
101278.812
101269.597
101263.028
101323.783
101323.784
101323.785
101323.784
101323.782
101323.779
101323.774
101323.769
101323.762
101323.753
101323.743
101323.732
101323.719
101323.705
101323.689
101323.671
101323.651
101323.63
101323.606
101323.581
101323.553
101323.523
101323.491
101323.457
101323.419
101323.379
101323.337
101323.291
101323.242
101323.191
101323.135
101323.077
101323.015
101322.949
101322.879
101322.805
101322.727
101322.644
101322.557
101322.465
101322.368
101322.266
101322.158
101322.044
101321.924
101321.797
101321.663
101321.52
101321.368
101321.205
101321.03
101320.839
101320.626
101320.385
101320.11
101319.791
101319.417
101318.975
101318.448
101317.816
101317.058
101316.15
101315.067
101313.789
101312.304
101310.607
101308.687
101306.511
101304.025
101301.201
101297.932
101293.95
101289.492
101285.097
101280.128
101274.249
101267.53
101259.637
101250.987
101245.233
101320.321
101320.323
101320.324
101320.323
101320.321
101320.316
101320.31
101320.302
101320.293
101320.281
101320.267
101320.251
101320.233
101320.213
101320.191
101320.166
101320.139
101320.109
101320.076
101320.04
101320.002
101319.96
101319.915
101319.867
101319.815
101319.759
101319.7
101319.636
101319.568
101319.495
101319.418
101319.336
101319.248
101319.156
101319.057
101318.953
101318.842
101318.725
101318.6
101318.469
101318.329
101318.181
101318.024
101317.858
101317.682
101317.494
101317.295
101317.082
101316.854
101316.609
101316.344
101316.053
101315.731
101315.371
101314.966
101314.506
101313.978
101313.368
101312.657
101311.824
101310.847
101309.7
101308.36
101306.805
101305.02
101302.995
101300.711
101298.126
101295.167
101291.775
101287.937
101283.63
101278.865
101273.612
101267.562
101260.867
101255.042
101248.003
101237.43
101227.85
101317.113
101317.116
101317.117
101317.117
101317.114
101317.109
101317.102
101317.092
101317.08
101317.066
101317.049
101317.03
101317.007
101316.982
101316.955
101316.924
101316.89
101316.853
101316.812
101316.768
101316.72
101316.668
101316.612
101316.552
101316.488
101316.419
101316.345
101316.266
101316.181
101316.091
101315.994
101315.892
101315.783
101315.667
101315.544
101315.413
101315.274
101315.127
101314.971
101314.804
101314.628
101314.441
101314.242
101314.031
101313.806
101313.566
101313.311
101313.038
101312.745
101312.429
101312.085
101311.707
101311.29
101310.827
101310.308
101309.722
101309.057
101308.297
101307.426
101306.425
101305.274
101303.95
101302.434
101300.707
101298.757
101296.571
101294.121
101291.345
101288.146
101284.343
101279.804
101274.621
101268.899
101262.76
101256.339
101250.83
101243.509
101231.017
101220.787
101213.216
101314.221
101314.225
101314.228
101314.227
101314.225
101314.219
101314.211
101314.201
101314.187
101314.171
101314.152
101314.13
101314.104
101314.076
101314.044
101314.009
101313.97
101313.927
101313.881
101313.83
101313.776
101313.716
101313.652
101313.583
101313.51
101313.43
101313.345
101313.254
101313.157
101313.054
101312.943
101312.826
101312.7
101312.567
101312.425
101312.275
101312.115
101311.944
101311.763
101311.57
101311.366
101311.148
101310.917
101310.67
101310.407
101310.125
101309.825
101309.502
101309.158
101308.786
101308.384
101307.945
101307.466
101306.94
101306.358
101305.712
101304.986
101304.163
101303.221
101302.132
101300.862
101299.376
101297.645
101295.644
101293.348
101290.719
101287.723
101284.247
101280.635
101276.985
101272.942
101268.479
101263.347
101256.605
101248.63
101240.764
101232.026
101222.755
101213.822
101205.672
101311.69
101311.695
101311.698
101311.698
101311.695
101311.69
101311.682
101311.671
101311.657
101311.639
101311.619
101311.595
101311.568
101311.538
101311.504
101311.466
101311.424
101311.378
101311.328
101311.273
101311.214
101311.15
101311.081
101311.007
101310.927
101310.841
101310.75
101310.652
101310.547
101310.436
101310.317
101310.19
101310.055
101309.912
101309.76
101309.598
101309.426
101309.244
101309.05
101308.844
101308.626
101308.394
101308.147
101307.883
101307.601
101307.3
101306.977
101306.632
101306.263
101305.862
101305.421
101304.935
101304.394
101303.787
101303.115
101302.368
101301.528
101300.601
101299.577
101298.443
101297.181
101295.707
101293.973
101292.092
101290.071
101287.872
101285.562
101283.19
101280.007
101275.267
101269.5
101262.529
101255.911
101250.325
101244.795
101237.193
101227.444
101218.093
101208.501
101200.79
101309.551
101309.557
101309.56
101309.561
101309.559
101309.554
101309.546
101309.535
101309.521
101309.503
101309.483
101309.459
101309.431
101309.4
101309.365
101309.326
101309.283
101309.236
101309.185
101309.129
101309.068
101309.003
101308.932
101308.856
101308.774
101308.687
101308.593
101308.493
101308.386
101308.272
101308.151
101308.021
101307.884
101307.737
101307.582
101307.417
101307.242
101307.056
101306.858
101306.649
101306.427
101306.191
101305.941
101305.676
101305.393
101305.094
101304.776
101304.441
101304.088
101303.711
101303.306
101302.874
101302.41
101301.913
101301.354
101300.72
101300.014
101299.2
101298.252
101297.156
101295.889
101294.52
101293.039
101291.291
101289.203
101286.787
101283.962
101280.624
101277.137
101273.447
101269.202
101264.439
101258.465
101251.074
101242.689
101233.711
101226.445
101220.483
101214.206
101206.576
101307.816
101307.821
101307.825
101307.826
101307.825
101307.82
101307.812
101307.802
101307.788
101307.771
101307.751
101307.727
101307.701
101307.67
101307.636
101307.598
101307.556
101307.51
101307.459
101307.405
101307.345
101307.281
101307.212
101307.138
101307.058
101306.973
101306.881
101306.784
101306.68
101306.569
101306.452
101306.326
101306.194
101306.053
101305.904
101305.746
101305.578
101305.402
101305.215
101305.017
101304.808
101304.588
101304.355
101304.11
101303.851
101303.576
101303.286
101302.979
101302.653
101302.303
101301.926
101301.517
101301.072
101300.586
101300.05
101299.456
101298.797
101298.059
101297.231
101296.298
101295.244
101294.051
101292.701
101291.156
101289.374
101287.326
101284.983
101282.313
101279.327
101276.009
101272.243
101267.919
101262.983
101257.272
101250.98
101243.341
101235.16
101227.311
101219.035
101211.302
101306.479
101306.484
101306.488
101306.489
101306.488
101306.484
101306.476
101306.467
101306.454
101306.438
101306.419
101306.397
101306.371
101306.343
101306.31
101306.275
101306.235
101306.192
101306.144
101306.093
101306.037
101305.977
101305.913
101305.843
101305.769
101305.689
101305.604
101305.514
101305.417
101305.315
101305.206
101305.09
101304.968
101304.839
101304.702
101304.557
101304.405
101304.244
101304.074
101303.896
101303.708
101303.511
101303.304
101303.086
101302.857
101302.617
101302.365
101302.1
101301.821
101301.526
101301.214
101300.88
101300.521
101300.134
101299.712
101299.249
101298.736
101298.163
101297.518
101296.786
101295.952
101294.995
101293.897
101292.633
101291.176
101289.502
101287.584
101285.402
101282.924
101280.104
101276.874
101273.142
101268.818
101263.801
101258.026
101252.252
101244.738
101236.634
101230.633
101224.211
101305.516
101305.52
101305.524
101305.524
101305.523
101305.518
101305.512
101305.502
101305.49
101305.476
101305.458
101305.438
101305.415
101305.388
101305.359
101305.326
101305.291
101305.251
101305.209
101305.162
101305.112
101305.059
101305.001
101304.939
101304.872
101304.801
101304.725
101304.645
101304.56
101304.469
101304.374
101304.273
101304.167
101304.055
101303.937
101303.813
101303.683
101303.547
101303.405
101303.256
101303.101
101302.939
101302.771
101302.596
101302.414
101302.226
101302.031
101301.829
101301.618
101301.399
101301.17
101300.929
101300.673
101300.4
101300.104
101299.782
101299.426
101299.029
101298.581
101298.069
101297.479
101296.796
101295.999
101295.07
101293.984
101292.718
101291.245
101289.541
101287.576
101285.313
101282.705
101279.677
101276.148
101272.036
101267.276
101261.872
101256.12
101249.041
101241.527
101235.638
101304.89
101304.892
101304.894
101304.894
101304.892
101304.887
101304.881
101304.872
101304.861
101304.847
101304.831
101304.813
101304.793
101304.77
101304.744
101304.715
101304.684
101304.65
101304.614
101304.574
101304.531
101304.485
101304.436
101304.383
101304.327
101304.268
101304.205
101304.138
101304.067
101303.993
101303.914
101303.831
101303.743
101303.651
101303.555
101303.453
101303.347
101303.235
101303.122
101303.008
101302.89
101302.769
101302.643
101302.515
101302.383
101302.25
101302.114
101301.976
101301.838
101301.698
101301.556
101301.412
101301.265
101301.112
101300.951
101300.777
101300.588
101300.375
101300.132
101299.848
101299.512
101299.108
101298.62
101298.03
101297.317
101296.459
101295.431
101294.208
101292.76
101291.055
101289.048
101286.68
101283.9
101280.65
101276.891
101272.598
101267.785
101262.433
101256.191
101249.832
101304.544
101304.545
101304.544
101304.542
101304.539
101304.534
101304.527
101304.518
101304.507
101304.495
101304.481
101304.464
101304.446
101304.426
101304.404
101304.38
101304.353
101304.325
101304.294
101304.261
101304.225
101304.188
101304.148
101304.105
101304.06
101304.012
101303.961
101303.909
101303.853
101303.795
101303.735
101303.672
101303.608
101303.541
101303.473
101303.403
101303.33
101303.254
101303.173
101303.088
101303
101302.91
101302.823
101302.743
101302.667
101302.593
101302.52
101302.451
101302.387
101302.328
101302.274
101302.228