/*--------------------------------*- C++ -*----------------------------------*\
  =========                 |
  \\      /  F ield         | OpenFOAM: The Open Source CFD Toolbox
   \\    /   O peration     | Website:  https://openfoam.org
    \\  /    A nd           | Version:  8
     \\/     M anipulation  |
\*---------------------------------------------------------------------------*/
FoamFile
{
    version     2.0;
    format      ascii;
    class       surfaceScalarField;
    location    "0.019";
    object      phi;
}
// * * * * * * * * * * * * * * * * * * * * * * * * * * * * * * * * * * * * * //

dimensions      [1 0 -1 0 0 0 0];

internalField   nonuniform List<scalar> 
84340
(
-4.68928397e-08
3.0113939e-07
-2.54379335e-07
-1.88587823e-07
9.22676297e-07
-7.81196221e-07
-4.30709606e-07
1.5845509e-06
-1.34269475e-06
-7.80476445e-07
2.28806897e-06
-1.93861163e-06
-1.24593072e-06
3.03411358e-06
-2.56900759e-06
-1.83551759e-06
3.82379693e-06
-3.23459434e-06
-2.55760805e-06
4.65818859e-06
-3.93651753e-06
-3.42016435e-06
5.5381632e-06
-4.67606191e-06
-4.4305063e-06
6.46429171e-06
-5.45444188e-06
-5.59516545e-06
7.4368054e-06
-6.27267759e-06
-6.91980421e-06
8.45560982e-06
-7.13154427e-06
-8.40917353e-06
9.52031805e-06
-8.03156674e-06
-1.00670893e-05
1.06302931e-05
-8.97304349e-06
-1.1896409e-05
1.17846899e-05
-9.95608805e-06
-1.38989891e-05
1.29824836e-05
-1.0980677e-05
-1.60756325e-05
1.42224981e-05
-1.20466878e-05
-1.84259949e-05
1.55034084e-05
-1.31539435e-05
-2.09484732e-05
1.68237362e-05
-1.43022243e-05
-2.36400551e-05
1.8181833e-05
-1.54912921e-05
-2.64961379e-05
1.95758486e-05
-1.67208866e-05
-2.95103173e-05
2.10036926e-05
-1.79907207e-05
-3.2674138e-05
2.24629884e-05
-1.93004683e-05
-3.59768079e-05
2.39510125e-05
-2.06497443e-05
-3.94048797e-05
2.54646353e-05
-2.20380742e-05
-4.29418792e-05
2.70002342e-05
-2.34648643e-05
-4.65678872e-05
2.85536025e-05
-2.49293523e-05
-5.0259071e-05
3.01198198e-05
-2.64305347e-05
-5.39871304e-05
3.16931023e-05
-2.79670937e-05
-5.77187339e-05
3.32666573e-05
-2.95372723e-05
-6.14150217e-05
3.48326101e-05
-3.11387223e-05
-6.50312161e-05
3.63818717e-05
-3.27682764e-05
-6.85157372e-05
3.7903377e-05
-3.442167e-05
-7.1809468e-05
3.93841311e-05
-3.60934635e-05
-7.48413247e-05
4.08056905e-05
-3.77771763e-05
-7.75333121e-05
4.21533238e-05
-3.94649279e-05
-7.98031112e-05
4.34109566e-05
-4.11450103e-05
-8.15728688e-05
4.45596136e-05
-4.27940852e-05
-8.27250257e-05
4.55466401e-05
-4.43990981e-05
-8.31014017e-05
4.63196653e-05
-4.59483244e-05
-8.25181861e-05
4.68314382e-05
-4.74201487e-05
-8.07769963e-05
4.70150264e-05
-4.87621899e-05
-7.7666293e-05
4.67997451e-05
-4.99169852e-05
-7.29582889e-05
4.60968691e-05
-5.08120454e-05
-6.6403002e-05
4.48198153e-05
-5.13829015e-05
-5.77112917e-05
4.28522249e-05
-5.15524249e-05
-4.65698256e-05
4.00624455e-05
-5.12131247e-05
-3.25997931e-05
3.6263158e-05
-5.02432078e-05
-1.54061219e-05
3.13280748e-05
-4.8532572e-05
5.34355608e-06
2.51902688e-05
-4.595167e-05
3.0048275e-05
1.75764749e-05
-4.22939135e-05
5.96276856e-05
7.85473825e-06
-3.74478242e-05
9.48645025e-05
-4.11926402e-06
-3.11321386e-05
0.000136663302
-1.84710608e-05
-2.33437454e-05
0.000186084834
-3.61322635e-05
-1.33068579e-05
0.000244331707
-5.74291098e-05
-8.37013658e-07
0.000312787488
-8.28039014e-05
1.4327073e-05
0.000392934891
-0.000112926785
3.27560972e-05
0.000486108511
-0.000148512288
5.53128886e-05
0.000594100662
-0.00019034526
8.23242792e-05
0.000718886999
-0.000239219301
0.000114400539
0.000862405716
-0.00029596752
0.000152412349
0.001026624
-0.000361414943
0.000197155999
0.00121357299
-0.000436498852
0.000249504091
0.00142494692
-0.000521682936
0.000310259083
0.0016619156
-0.000617286191
0.000380266535
0.00192647533
-0.000725245121
0.000460634956
0.00221927498
-0.000843813641
0.000550964146
0.00253785322
-0.000971293056
0.000652665813
0.00288700075
-0.00111692138
0.000767725833
0.00326355358
-0.00126655444
0.000889954736
0.00364425677
-0.00144124456
0.00106049624
0.00409040208
-0.00168452378
0.00123833487
0.00464585155
-0.00182928368
0.00127379302
0.00509379485
-0.00189089357
0.00144291291
0.00538585328
-0.00221012467
0.00191803326
0.00582722927
-0.00259906179
0.00215765834
0.00645869628
-0.0027638404
0.00213235468
0.00706922274
-0.00274128269
0.00213074508
0.00732707234
-0.00290959848
0.00265174648
-0.00315104748
0.00306474457
0.00741337612
-3.62709173e-08
3.37190505e-07
-1.45393906e-07
1.03148246e-06
-3.31510902e-07
1.77029971e-06
-6.00234437e-07
2.55637746e-06
-9.57979711e-07
3.3914001e-06
-1.41142049e-06
4.27673659e-06
-1.96720027e-06
5.21342453e-06
-2.63157672e-06
6.20195159e-06
-3.41016262e-06
7.24224284e-06
-4.30775642e-06
8.33371469e-06
-5.32823197e-06
9.4753475e-06
-6.4744652e-06
1.06657561e-05
-7.74827591e-06
1.1903247e-05
-9.15036648e-06
1.31858575e-05
-1.06802565e-05
1.45113793e-05
-1.23361805e-05
1.58773513e-05
-1.41149719e-05
1.72810469e-05
-1.60119092e-05
1.87194323e-05
-1.80205261e-05
2.0189114e-05
-2.01323901e-05
2.16862752e-05
-2.23368431e-05
2.32065992e-05
-2.46206936e-05
2.47451757e-05
-2.69678765e-05
2.62964066e-05
-2.93590388e-05
2.78538744e-05
-3.17710651e-05
2.94101922e-05
-3.41765722e-05
3.09568862e-05
-3.65434008e-05
3.2484257e-05
-3.88340288e-05
3.39811599e-05
-4.1004539e-05
3.54344004e-05
-4.30040911e-05
3.68291866e-05
-4.47755632e-05
3.81501588e-05
-4.62551458e-05
3.93795573e-05
-4.73755561e-05
4.05008694e-05
-4.80619368e-05
4.14881102e-05
-4.8209351e-05
4.22964975e-05
-4.76855015e-05
4.2882543e-05
-4.63304256e-05
4.31996055e-05
-4.39756849e-05
4.31865904e-05
-4.04424083e-05
4.27806415e-05
-3.55229868e-05
4.19058064e-05
-2.89998304e-05
4.04851711e-05
-2.06235522e-05
3.84162561e-05
-1.0118382e-05
3.55839255e-05
2.86560819e-06
3.1827471e-05
1.86829971e-05
2.70258298e-05
3.75576411e-05
2.1178086e-05
6.01074302e-05
1.37029697e-05
8.6939662e-05
4.48491954e-06
0.000118747321
-6.62909011e-06
0.000156380001
-2.0069039e-05
0.000200858615
-3.66379606e-05
0.000253164848
-5.64407686e-05
0.000314645859
-7.99687414e-05
0.000386339633
-0.000107844233
0.000469609611
-0.000140719111
0.000566069722
-0.000179286093
0.000677401855
-0.000224283534
0.00080533722
-0.000276474896
0.000951675139
-0.000336713339
0.00111811579
-0.000405693409
0.00130637145
-0.000484260564
0.00151803255
-0.000573116155
0.00175447091
-0.000672977637
0.00201681831
-0.000784070041
0.00230484738
-0.000905354342
0.00261910003
-0.00103953638
0.00296134645
-0.00118609822
0.00332652297
-0.00133650742
0.00370960489
-0.0015000405
0.00412426308
-0.00168124917
0.00453538026
-0.00185239721
0.00492308537
-0.002072263
0.00540571873
-0.00231194803
0.00595087862
-0.00243608034
0.00630298773
-0.00256225547
0.00648435858
-0.00278045244
0.00669635421
-0.00297585292
0.00704056954
-0.00308550915
0.00732538264
-0.00319442089
-0.00331882938
0.00749316018
-2.63904869e-08
3.63285667e-07
-1.05403565e-07
1.11006986e-06
-2.39840243e-07
1.90424182e-06
-4.33658644e-07
2.74963873e-06
-6.91540854e-07
3.64866705e-06
-1.01837134e-06
4.60289588e-06
-1.41880185e-06
5.61312806e-06
-1.89692288e-06
6.67928844e-06
-2.45617222e-06
7.8006483e-06
-3.09911083e-06
8.97574654e-06
-3.82726508e-06
1.02025283e-05
-4.64102709e-06
1.14784739e-05
-5.53957135e-06
1.28006716e-05
-6.5207662e-06
1.41658525e-05
-7.58106986e-06
1.55703979e-05
-8.71540654e-06
1.70103123e-05
-9.91700515e-06
1.84811734e-05
-1.1177212e-05
1.99780646e-05
-1.24852581e-05
2.14954766e-05
-1.38279712e-05
2.3027189e-05
-1.51894109e-05
2.45661161e-05
-1.65504344e-05
2.61041452e-05
-1.78882424e-05
2.76320209e-05
-1.91758981e-05
2.9139188e-05
-2.0381973e-05
3.06137659e-05
-2.14705727e-05
3.20428124e-05
-2.24010189e-05
3.34118428e-05
-2.31280136e-05
3.47051132e-05
-2.36020465e-05
3.59052002e-05
-2.37638274e-05
3.69875069e-05
-2.35378753e-05
3.7920501e-05
-2.28344522e-05
3.86721822e-05
-2.1541403e-05
3.92035892e-05
-1.95277149e-05
3.9469889e-05
-1.66533601e-05
3.94172914e-05
-1.27609606e-05
3.89849276e-05
-7.66786175e-06
3.81008913e-05
-1.18677763e-06
3.66994837e-05
6.89913962e-06
3.46882598e-05
1.68356752e-05
3.19623376e-05
2.89331661e-05
2.8380243e-05
4.35157284e-05
2.38257099e-05
6.07852355e-05
1.83058275e-05
8.13193745e-05
1.12842246e-05
0.000105665955
2.66958674e-06
0.000134464632
-7.63103941e-06
0.000168446018
-2.02897505e-05
0.000208458295
-3.55395576e-05
0.000255565716
-5.37497144e-05
0.00031086871
-7.53863032e-05
0.000375217672
-0.000101002417
0.000449929626
-0.000131169539
0.000536458678
-0.000166516181
0.00063630524
-0.000207710948
0.000751061332
-0.000255497276
0.000882349807
-0.000310598564
0.00103174124
-0.000373701162
0.0012007527
-0.000445515075
0.00139073642
-0.000526728791
0.00160298888
-0.000617979433
0.00183854496
-0.000719849999
0.00209806643
-0.000832670219
0.00238192217
-0.000956865331
0.00268993775
-0.00109211714
0.00302067799
-0.00123612576
0.0033703206
-0.00138921004
0.00373852131
-0.00155432971
0.00412586587
-0.00172388269
0.00451526183
-0.00188946665
0.00491047062
-0.00207648767
0.0053140042
-0.00225595868
0.00566500101
-0.00242328516
0.00595487592
-0.00260184779
0.00626839878
-0.00274962728
0.00656142183
-0.00285529976
0.00675000458
-0.00296905737
0.00686177284
-0.00308764012
0.00698737963
-0.00321112885
0.00711741761
-0.00332447258
-0.00343365093
0.00723222651
-2.03143644e-08
3.83312834e-07
-8.04815711e-08
1.16982865e-06
-1.82045027e-07
2.0053347e-06
-3.27416106e-07
2.89448214e-06
-5.19409148e-07
3.84007871e-06
-7.60948341e-07
4.84380119e-06
-1.05458277e-06
5.90607528e-06
-1.40224544e-06
7.02620839e-06
-1.80484207e-06
8.20244363e-06
-2.26207003e-06
9.43211079e-06
-2.77255185e-06
1.07120795e-05
-3.3336237e-06
1.20385435e-05
-3.94117055e-06
1.34071393e-05
-4.58950678e-06
1.48130272e-05
-5.27123617e-06
1.62508775e-05
-5.97707207e-06
1.77148042e-05
-6.69561647e-06
1.91982729e-05
-7.41306814e-06
2.06939641e-05
-8.11291358e-06
2.21936556e-05
-8.77564788e-06
2.36881357e-05
-9.37864742e-06
2.51671979e-05
-9.89597175e-06
2.66194133e-05
-1.02982059e-05
2.80320567e-05
-1.05521328e-05
2.93907665e-05
-1.0617023e-05
3.06761452e-05
-1.04450029e-05
3.18681119e-05
-9.97999197e-06
3.29439726e-05
-9.15565488e-06
3.38777275e-05
-7.89219322e-06
3.46384834e-05
-6.09815078e-06
3.51899903e-05
-3.67095273e-06
3.54896039e-05
-4.90647952e-07
3.54879359e-05
3.58157625e-06
3.51271535e-05
8.70297834e-06
3.43439938e-05
1.50416512e-05
3.30738324e-05
2.27894463e-05
3.12320384e-05
3.21628403e-05
2.87220741e-05
4.34377338e-05
2.54188258e-05
5.69077489e-05
2.12121036e-05
7.27666735e-05
1.60968661e-05
9.15362658e-05
9.6037622e-06
0.000113707892
1.64685112e-06
0.000139850706
-7.84475567e-06
0.000170619354
-1.94927849e-05
0.000206772333
-3.3492344e-05
0.000249312639
-5.01809252e-05
0.000299005318
-6.99927133e-05
0.000356859291
-9.3404579e-05
0.00042403646
-0.00012093881
0.000501811568
-0.000153174317
0.000591537898
-0.000190742822
0.000694672466
-0.000234319386
0.000812704917
-0.000284565187
0.000947155361
-0.000342179306
0.00109947966
-0.000407841038
0.00127105168
-0.000482191868
0.00146308604
-0.000565758965
0.00167647316
-0.000658926923
0.00191170417
-0.000761984357
0.00216886463
-0.000875163993
0.00244765814
-0.000998667232
0.00274698097
-0.00113201655
0.00306536517
-0.00127527289
0.00339962924
-0.00142640462
0.00374826325
-0.00158478321
0.00410371298
-0.00174468339
0.00445956542
-0.00191020582
0.00481698344
-0.00208132453
0.00516899843
-0.00224150385
0.00548464632
-0.00239215565
0.00576428814
-0.00253562095
0.00600018796
-0.00265921103
0.0061694634
-0.00277114605
0.00630551585
-0.00288569646
0.00645040857
-0.00300021634
0.00658985169
-0.00310852087
0.00670865927
-0.00320646141
0.00680960596
-0.00331209322
0.00690471313
-0.00341959621
-0.00352904991
0.00700010169
-1.87783089e-08
4.01707244e-07
-7.36024267e-08
1.22410884e-06
-1.64934146e-07
2.09604123e-06
-2.93710353e-07
3.0225589e-06
-4.60923218e-07
4.00652304e-06
-6.6725652e-07
5.04929938e-06
-9.12854701e-07
6.15077175e-06
-1.19701303e-06
7.30939689e-06
-1.51779258e-06
8.52218219e-06
-1.87195355e-06
9.78515596e-06
-2.25454164e-06
1.10934731e-05
-2.65878832e-06
1.24415127e-05
-3.07635414e-06
1.38233398e-05
-3.49697175e-06
1.52321867e-05
-3.90820163e-06
1.66605511e-05
-4.29521498e-06
1.81001579e-05
-4.64056781e-06
1.95418559e-05
-4.92408709e-06
2.09755968e-05
-5.12191268e-06
2.23894752e-05
-5.20618812e-06
2.37702799e-05
-5.14461569e-06
2.51033588e-05
-4.89978284e-06
2.63721716e-05
-4.42804998e-06
2.75577652e-05
-3.6785939e-06
2.86385934e-05
-2.59489698e-06
2.95895626e-05
-1.11044334e-06
3.03805948e-05
8.53042862e-07
3.09772359e-05
3.38784494e-06
3.13394713e-05
6.60179775e-06
3.14208538e-05
1.0615509e-05
3.11723708e-05
1.55620043e-05
3.05389578e-05
2.15934297e-05
2.94521013e-05
2.88817892e-05
2.78341101e-05
3.76250765e-05
2.55957313e-05
4.80687695e-05
2.2624858e-05
6.04780215e-05
1.88171699e-05
7.50449955e-05
1.41491175e-05
9.22312636e-05
8.22627206e-06
0.000112476198
9.6057173e-07
0.000136284224
-7.71822533e-06
0.000164236273
-1.8355873e-05
0.000197003582
-3.11285473e-05
0.000235492374
-4.63421797e-05
0.000280377165
-6.43867864e-05
0.000332561904
-8.56869296e-05
0.000393084763
-0.000110714316
0.000463075721
-0.000139994975
0.000543755852
-0.000174096878
0.000636424506
-0.000213620533
0.000742443753
-0.000259207516
0.00086320487
-0.000311518842
0.00100009351
-0.000371223927
0.00115448035
-0.000438969024
0.00132761139
-0.000515328647
0.00152050422
-0.000600753703
0.00173381473
-0.000695523003
0.00196772686
-0.000799691308
0.00222188737
-0.000913107011
0.0024952697
-0.00103538574
0.00278614519
-0.00116605814
0.00309226048
-0.0013048009
0.00341022562
-0.00144999998
0.00373705365
-0.00160211919
0.00406565772
-0.00175502716
0.00439613514
-0.00191527916
0.00471960337
-0.00206817002
0.00502226707
-0.00221288686
0.00528783655
-0.00234691015
0.00551685976
-0.00247054326
0.00570384605
-0.00257916167
0.00585449231
-0.00268628548
0.00598345479
-0.00278819016
0.00610172017
-0.0028894287
0.00620879451
-0.00299278583
0.00630723029
-0.0030986675
0.00640249928
-0.00320380425
0.00650217179
-0.00330614833
0.00659723278
-0.00340716914
0.00668506818
-0.00350744811
-0.00361406833
0.00677006918
-2.05907434e-08
4.21993043e-07
-8.00790636e-08
1.28316844e-06
-1.77818899e-07
2.19329056e-06
-3.13194355e-07
3.15738656e-06
-4.85221467e-07
4.177948e-06
-6.92199255e-07
5.25562148e-06
-9.31378371e-07
6.38924071e-06
-1.19866219e-06
7.57591376e-06
-1.48854363e-06
8.81123629e-06
-1.7938284e-06
1.00895489e-05
-2.10518164e-06
1.1403865e-05
-2.4112085e-06
1.27465034e-05
-2.69794721e-06
1.41089626e-05
-2.94882774e-06
1.54818656e-05
-3.14447574e-06
1.6854906e-05
-3.26234184e-06
1.82166358e-05
-3.27616705e-06
1.9554189e-05
-3.15567639e-06
2.08535016e-05
-2.86652865e-06
2.20986085e-05
-2.36934398e-06
2.32712555e-05
-1.61857097e-06
2.43506168e-05
-5.60839439e-07
2.53123354e-05
8.66150688e-07
2.6128523e-05
2.73566281e-06
2.67666725e-05
5.12968108e-06
2.71929732e-05
8.14094552e-06
2.73665895e-05
1.18751336e-05
2.72401285e-05
1.64525861e-05
2.6758912e-05
2.20101081e-05
2.58600284e-05
2.87071431e-05
2.44718276e-05
3.67304797e-05
2.2511898e-05
4.62994292e-05
1.9879207e-05
5.76544561e-05
1.64748988e-05
7.09861446e-05
1.22596026e-05
8.66990151e-05
6.90733385e-06
0.000105185123
3.26194609e-07
0.000126890455
-7.56139396e-06
0.000152329372
-1.72181658e-05
0.000182095163
-2.88110688e-05
0.000216985924
-4.26151837e-05
0.000257601981
-5.89785011e-05
0.000304746514
-7.82800524e-05
0.00035933914
-0.000100942217
0.00042237382
-0.000127429358
0.000494929864
-0.000158251412
0.000578163284
-0.000193956741
0.000673286694
-0.00023512797
0.000781554386
-0.000282374759
0.000904240534
-0.000336317529
0.00104258471
-0.000397563238
0.00119773769
-0.000466684153
0.00137068336
-0.000544182843
0.00156215062
-0.00063045062
0.00177251456
-0.000725707586
0.00200168414
-0.000829938111
0.00224902342
-0.000942876702
0.00251331323
-0.00106399518
0.00279260493
-0.00119241251
0.00308395579
-0.0013267502
0.00338355068
-0.00146566657
0.00368715799
-0.00160842175
0.00398949284
-0.00175234857
0.00428624747
-0.00189888778
0.00457166083
-0.00204045402
0.0048280318
-0.00217166243
0.00504734417
-0.00228749526
0.00523120935
-0.0023967674
0.00538197379
-0.002497691
0.00550915691
-0.00259774004
0.00562361659
-0.00269363593
0.0057253634
-0.00278804731
0.00581970851
-0.0028825472
0.00590391939
-0.00297365117
0.00598712881
-0.00307600691
0.00606969038
-0.00318124297
0.00614861181
-0.00328274267
0.00623466628
-0.00339222028
0.00633191143
-0.0035044305
0.00643372009
-0.00360927441
-0.003714027
0.00653366301
-2.37906996e-08
4.45384517e-07
-9.15497427e-08
1.3503667e-06
-2.01213769e-07
2.30231361e-06
-3.50248918e-07
3.30570722e-06
-5.35233117e-07
4.36214912e-06
-7.51510318e-07
5.47104942e-06
-9.92859409e-07
6.62967457e-06
-1.25119209e-06
7.83326385e-06
-1.51628358e-06
9.0752755e-06
-1.7755281e-06
1.03476682e-05
-2.01399841e-06
1.1641133e-05
-2.21400151e-06
1.29452229e-05
-2.35436763e-06
1.42479585e-05
-2.41047482e-06
1.5536511e-05
-2.35378006e-06
1.67966544e-05
-2.15132198e-06
1.80125231e-05
-1.76535934e-06
1.91664667e-05
-1.15221434e-06
2.02384847e-05
-2.61711821e-07
2.12061179e-05
9.63469515e-07
2.20439644e-05
2.58897863e-06
2.27228702e-05
4.68946466e-06
2.32094764e-05
7.34983257e-06
2.34656379e-05
1.06664784e-05
2.34473581e-05
1.47521845e-05
2.31044395e-05
1.97367074e-05
2.23790712e-05
2.57684775e-05
2.12051863e-05
3.30170906e-05
1.95069397e-05
4.16802082e-05
1.71933561e-05
5.19770301e-05
1.41712379e-05
6.40940833e-05
1.03908469e-05
7.83853949e-05
5.58369723e-06
9.51999104e-05
-3.44020129e-07
0.000114932543
-7.47771953e-06
0.000138037857
-1.62029837e-05
0.000165038703
-2.66799638e-05
0.000196627663
-3.91559963e-05
0.000233343674
-5.39401709e-05
0.000275895047
-7.13688159e-05
0.000325089478
-9.18163958e-05
0.000381802607
-0.000115698856
0.00044698592
-0.00014347108
0.000521660405
-0.000175624931
0.000606908635
-0.000212686327
0.000703851713
-0.000255203752
0.000813624061
-0.000303738895
0.000937336084
-0.000358850367
0.00107602202
-0.000421071658
0.00123057598
-0.000490883082
0.00140167522
-0.000568674782
0.00158969516
-0.000654717237
0.00179461608
-0.000749117477
0.00201593978
-0.000851787868
0.00225262794
-0.000962408759
0.00250306817
-0.00108039086
0.00276495104
-0.0012047717
0.00303532898
-0.00133438493
0.00331055978
-0.0014676549
0.00358622304
-0.00160242491
0.0038568566
-0.00173631158
0.0041163894
-0.00186796597
0.00436035221
-0.00199632246
0.00457643412
-0.00211498084
0.00475998868
-0.00222402083
0.00490849384
-0.00232017952
0.00503517829
-0.00241419131
0.00514712557
-0.00250872797
0.00524851186
-0.00259909071
0.00533837353
-0.00268761335
0.00542121704
-0.00277649
0.00549784231
-0.00286468543
0.00557138673
-0.00295610468
0.00564217526
-0.00304445034
0.0057058587
-0.00313970408
0.00577248267
-0.00324788145
0.00584599689
-0.00335627071
0.00591877224
-0.00346501175
0.00599781595
-0.00358349444
0.00608894063
-0.00370041831
-0.00381270042
0.00618759812
-2.48479668e-08
4.69961384e-07
-9.45041384e-08
1.41964445e-06
-2.05061649e-07
2.41244006e-06
-3.51512195e-07
3.45167751e-06
-5.27330869e-07
4.53744049e-06
-7.24131958e-07
5.66727653e-06
-9.31337612e-07
6.83625838e-06
-1.13587106e-06
8.03712539e-06
-1.3218329e-06
9.26051226e-06
-1.47017176e-06
1.04952244e-05
-1.55835117e-06
1.17284679e-05
-1.55989745e-06
1.29458587e-05
-1.44431953e-06
1.41313984e-05
-1.17621223e-06
1.52673444e-05
-7.14682763e-07
1.63339842e-05
-1.29733093e-08
1.73095857e-05
9.82439531e-07
1.8169733e-05
2.33257339e-06
1.88869317e-05
4.10729045e-06
1.94298776e-05
6.3864975e-06
1.97631231e-05
9.26149324e-06
1.9846123e-05
1.28365587e-05
1.96325362e-05
1.72309551e-05
1.90692372e-05
2.25805787e-05
1.8095594e-05
2.90404977e-05
1.6642237e-05
3.67898616e-05
1.46272752e-05
4.60287922e-05
1.19636647e-05
5.69371582e-05
8.59581376e-06
6.98249832e-05
4.30261975e-06
8.50022553e-05
-1.00909882e-06
0.000102819244
-7.42940542e-06
0.000123677426
-1.52779628e-05
0.000148036423
-2.47067047e-05
0.00017649327
-3.5938475e-05
0.000209532687
-4.92465421e-05
0.00024777785
-6.49295132e-05
0.00029193734
-8.33201356e-05
0.00034278037
-0.000104788131
0.000401144844
-0.000129738528
0.000467932615
-0.000158609731
0.000544098151
-0.000191870285
0.000630633794
-0.00023001295
0.000728548002
-0.000273545717
0.000838833375
-0.000322978649
0.000962428653
-0.00037880637
0.00110016739
-0.000441485387
0.0012527141
-0.000511405269
0.00142048619
-0.00058885244
0.0016035625
-0.000673968679
0.00180157294
-0.000766695064
0.00201362668
-0.000866780925
0.00223826487
-0.000973765312
0.00247345745
-0.00108698981
0.00271651691
-0.00120547735
0.00296417778
-0.00132806069
0.00321248683
-0.00145308958
0.00345716951
-0.00157907639
0.00369342876
-0.00170392295
0.00391740136
-0.00182640627
0.00412411133
-0.00194303041
0.00430792312
-0.0020517865
0.00446524327
-0.00215365191
0.00459417949
-0.00224392756
0.00470036339
-0.00233021419
0.00479586681
-0.00241569092
0.00488502093
-0.00250335455
0.00496711456
-0.00259083234
0.00504454957
-0.0026765354
0.00511658845
-0.00275966191
0.00518534329
-0.00284525526
0.00525162287
-0.00293097305
0.00531795809
-0.00302245177
0.0053899786
-0.00311648418
0.00545974487
-0.0032094812
0.00552273404
-0.00331088211
0.00558158629
-0.0034151357
0.00564238528
-0.00352582585
0.00570402972
-0.00364515473
0.00577513194
-0.00377153665
-0.00389540323
0.00585781972
-2.19081742e-08
4.91500562e-07
-8.07233581e-08
1.47794348e-06
-1.69876849e-07
2.50100523e-06
-2.81001096e-07
3.56214723e-06
-4.03487549e-07
4.65921071e-06
-5.24105272e-07
5.78711859e-06
-6.26614225e-07
6.93793219e-06
-6.91388328e-07
8.10100383e-06
-6.95010234e-07
9.26317621e-06
-6.0985035e-07
1.04090409e-05
-4.03555615e-07
1.15210807e-05
-3.8536237e-08
1.25796749e-05
5.28432873e-07
1.35631892e-05
1.34685484e-06
1.4447603e-05
2.47323661e-06
1.52061996e-05
3.97211506e-06
1.58092176e-05
5.91729641e-06
1.62229709e-05
8.39287016e-06
1.64096805e-05
1.14946892e-05
1.63262793e-05
1.53319862e-05
1.59239407e-05
2.00290435e-05
1.51470685e-05
2.57271642e-05
1.3932301e-05
3.2588326e-05
1.22058381e-05
4.07945478e-05
9.88700286e-06
5.0516881e-05
6.91739273e-06
6.20264609e-05
3.11505442e-06
7.55980574e-05
-1.61070708e-06
9.15418748e-05
-7.35095119e-06
0.000110211963
-1.43706031e-05
0.0001320113
-2.28117576e-05
0.000157453673
-3.28753007e-05
0.000186973874
-4.48019007e-05
0.000221119314
-5.88561115e-05
0.000260509347
-7.5332722e-05
0.000305817156
-9.45588324e-05
0.000357775767
-0.000116892898
0.000417174733
-0.000142724191
0.000484851162
-0.000172469972
0.0005616779
-0.000206571007
0.000648546741
-0.000245484658
0.000746344328
-0.000289674317
0.000855920134
-0.000339595578
0.000978045568
-0.000395678366
0.0011133642
-0.000458304899
0.00126233286
-0.000527783084
0.00142515352
-0.000604314528
0.00160169315
-0.000687953899
0.0017913916
-0.000778560492
0.00199316149
-0.000875748405
0.00220534049
-0.000978883644
0.00242570143
-0.00108715111
0.00265142332
-0.00119949616
0.00287911924
-0.00131469442
0.00310487771
-0.00143124433
0.00332456563
-0.00154775699
0.0035338781
-0.0016624104
0.00372961657
-0.0017748232
0.0039075425
-0.00188185698
0.00406376562
-0.00198263722
0.00419667691
-0.00207594943
0.00430631051
-0.00216142721
0.00439628446
-0.00224363385
0.00447923503
-0.0023268858
0.00455927068
-0.00241025643
0.0046356958
-0.00249212339
0.00470645362
-0.00257412002
0.00477327051
-0.00265765734
0.00483673415
-0.00274000673
0.0048987671
-0.00282170227
0.00496232607
-0.00290882215
0.00502520218
-0.00299385762
0.00508844162
-0.0030856998
0.00515133229
-0.00317938344
0.00521435688
-0.00327251798
0.00527499598
-0.00337153388
0.00533429422
-0.00347444645
0.0053922336
-0.00358377857
0.00544492062
-0.00369785629
0.00548893877
-0.00381557486
-0.00393853023
0.00553204237
-1.36686544e-08
5.04953932e-07
-4.50959178e-08
1.50907107e-06
-8.37767912e-08
2.53934521e-06
-1.16617486e-07
3.59460822e-06
-1.27412464e-07
4.66958864e-06
-9.63934211e-08
5.75564518e-06
2.31106542e-10
6.84081454e-06
1.90764371e-07
7.90993652e-06
5.08481228e-07
8.94488168e-06
9.92087917e-07
9.92480962e-06
1.68627238e-06
1.0826221e-05
2.64230755e-06
1.16229099e-05
3.91894643e-06
1.22857617e-05
5.58316197e-06
1.2782536e-05
7.71148202e-06
1.3076961e-05
1.03909606e-05
1.31287477e-05
1.37206397e-05
1.2892223e-05
1.78130157e-05
1.23161535e-05
2.27956234e-05
1.13424334e-05
2.88139608e-05
9.90427319e-06
3.60323961e-05
7.92720468e-06
4.4611438e-05
5.35172553e-06
5.47870402e-05
2.02860166e-06
6.68017895e-05
-2.12948428e-06
8.09294734e-05
-7.21215316e-06
9.74812589e-05
-1.34387256e-05
0.00011680924
-2.09408158e-05
0.000139354609
-2.98985873e-05
0.000165505151
-4.0523559e-05
0.000195740056
-5.30492311e-05
0.000230597737
-6.77357126e-05
0.000270664328
-8.48713962e-05
0.000316577604
-0.000104772476
0.000369024687
-0.000127783092
0.0004287355
-0.000154273133
0.000496473737
-0.000184634827
0.000573023373
-0.000219277728
0.000659169494
-0.000258620213
0.000755672634
-0.000303078496
0.000863235628
-0.000353052241
0.000982463166
-0.000408906694
0.00111381387
-0.000470951386
0.00125754543
-0.000539415304
0.00141365415
-0.000614419292
0.00158181088
-0.000695945814
0.00176129469
-0.000783804725
0.00195092063
-0.000877586563
0.00214899531
-0.000976641959
0.00235330904
-0.00108006876
0.002561181
-0.00118676208
0.0027694182
-0.00129539466
0.00297441795
-0.00140450217
0.00317236021
-0.00151264288
0.00335950042
-0.0016183908
0.00353233449
-0.0017205974
0.003688249
-0.00181833097
0.00382353672
-0.00191011636
0.00393659816
-0.00199492435
0.00402978474
-0.00207583121
0.00410910749
-0.00215527904
0.00418098483
-0.00223330968
0.00424452772
-0.00230718141
0.00430386208
-0.00238622597
0.00436003616
-0.00246643757
0.00441510702
-0.00254720129
0.00446738743
-0.00262640789
0.0045181888
-0.00270846683
0.00457075491
-0.00279258027
0.00462512148
-0.00287607575
0.00468093971
-0.00296464905
0.00474183012
-0.00305475652
0.00480280516
-0.00314668444
0.00486627605
-0.00324286607
0.00493254062
-0.00333879396
0.00499696676
-0.003435971
0.00505962931
-0.00353712033
0.00512105993
-0.00364522192
0.00518842437
-0.00376523591
0.00525154734
-0.00387871189
-0.0039852476
0.00529825026
3.95355983e-10
5.04240547e-07
1.50162864e-08
1.49400701e-06
5.98049573e-08
2.49405265e-06
1.54267506e-07
3.49958591e-06
3.22031831e-07
4.50121241e-06
5.91358088e-07
5.4856567e-06
9.95660111e-07
6.43580029e-06
1.57403182e-06
7.33080174e-06
2.37181186e-06
8.14628613e-06
3.44127717e-06
8.85447418e-06
4.84239156e-06
9.42417931e-06
6.64354996e-06
9.82076499e-06
8.92290595e-06
1.00053573e-05
1.17692408e-05
9.9350868e-06
1.52833466e-05
9.56167131e-06
1.95794501e-05
8.83138823e-06
2.47871421e-05
7.6831996e-06
3.10535702e-05
6.04831359e-06
3.85274537e-05
3.86705294e-06
4.74128324e-05
1.01731609e-06
5.7922815e-05
-2.58444054e-06
7.02979487e-05
-7.02517167e-06
8.48104788e-05
-1.24857997e-05
0.000101766692
-1.90876781e-05
0.000121544066
-2.69916237e-05
0.000144486319
-3.63831984e-05
0.000171011004
-4.74678531e-05
0.000201584258
-6.04743333e-05
0.000236714108
-7.5656051e-05
0.000276953158
-9.32910875e-05
0.000322896804
-0.000113682342
0.000375178576
-0.000137156337
0.000434463259
-0.000164060518
0.000501436242
-0.000194759633
0.000576788493
-0.000229629151
0.000661196186
-0.000269046509
0.000755293935
-0.000313379698
0.000859641995
-0.00036297274
0.000974687003
-0.000418128227
0.00110071651
-0.000479086737
0.00123780825
-0.00054600371
0.00138577565
-0.000618924368
0.00154411232
-0.00069775785
0.00171193906
-0.000782252269
0.00188795723
-0.000871970634
0.00207041565
-0.000966270068
0.00225712264
-0.00106430043
0.00244550919
-0.00116503526
0.00263270344
-0.00126726962
0.0028155689
-0.00136963407
0.002990795
-0.00147062721
0.00315515181
-0.00156886538
0.00330563968
-0.00166313712
0.00344007613
-0.00175283356
0.00355690673
-0.00183743412
0.00365579266
-0.00191722341
0.0037381179
-0.00199244828
0.00381034695
-0.00206715881
0.00387462954
-0.0021401189
0.0039316883
-0.00221234414
0.00398446237
-0.00228608911
0.00403167059
-0.00235439489
0.00407324546
-0.00242780679
0.00411374552
-0.00250694318
0.00415367414
-0.002587136
0.00419674946
-0.00266948926
0.00424130716
-0.00275303
0.00428829036
-0.00283956892
0.0043382132
-0.00292600382
0.00438739422
-0.00301383638
0.00443915841
-0.00310652845
0.00449474034
-0.00320227502
0.0045527866
-0.00330092309
0.00461398449
-0.00340000615
0.00468021611
-0.00350221577
0.00474907507
-0.00360599113
0.00481492231
-0.00371108496
0.0048786821
-0.00382901104
0.00494997903
-0.00395002361
-0.00406107838
0.00502579648
2.08982113e-08
4.83184004e-07
1.01896839e-07
1.41278897e-06
2.66119058e-07
2.32958145e-06
5.412917e-07
3.22413611e-06
9.60385089e-07
4.08181437e-06
1.5622208e-06
4.88348853e-06
2.39209054e-06
5.60556911e-06
3.5024239e-06
6.22007608e-06
4.95353378e-06
6.69475074e-06
6.81432965e-06
6.99321714e-06
9.16356307e-06
7.07444621e-06
1.20905923e-05
6.89319386e-06
1.56968213e-05
6.39854065e-06
2.00972093e-05
5.53406213e-06
2.5421748e-05
4.23644308e-06
3.18066511e-05
2.44573831e-06
3.94274628e-05
6.15831585e-08
4.84705117e-05
-2.99560106e-06
5.9146132e-05
-6.80950287e-06
7.16913738e-05
-1.15289357e-05
8.63714864e-05
-1.726564e-05
0.000103507883
-2.41627362e-05
0.000123403713
-3.23828842e-05
0.00014642115
-4.21064598e-05
0.000172962192
-5.3534105e-05
0.000203465371
-6.68879171e-05
0.000238407612
-8.24117388e-05
0.000278302885
-0.000100371364
0.000323699044
-0.000121054085
0.00037517264
-0.000144766675
0.000433320855
-0.000171832669
0.000498749832
-0.00020258755
0.000572058906
-0.000237371956
0.000653819447
-0.000276522668
0.000744548748
-0.000320361082
0.000844678514
-0.000369179046
0.000954517919
-0.000423222018
0.00107421192
-0.000482669813
0.00120369562
-0.000547615153
0.00134264691
-0.000618041416
0.00149043973
-0.00069380009
0.00164610212
-0.000774590506
0.00180828394
-0.000859943637
0.00197523934
-0.000949211895
0.00214482534
-0.00104156101
0.00231455942
-0.00113600853
0.00248174663
-0.00123149197
0.00264362755
-0.00132692049
0.00279752044
-0.00142116682
0.00294098569
-0.00151310364
0.00307194987
-0.00160159574
0.00318904139
-0.00168596131
0.00329157452
-0.00176567481
0.00337960472
-0.00184086832
0.00345488747
-0.00191272066
0.00352032588
-0.00198266558
0.0035796158
-0.0020517427