/*--------------------------------*- C++ -*----------------------------------*\
  =========                 |
  \\      /  F ield         | OpenFOAM: The Open Source CFD Toolbox
   \\    /   O peration     | Website:  https://openfoam.org
    \\  /    A nd           | Version:  8
     \\/     M anipulation  |
\*---------------------------------------------------------------------------*/
FoamFile
{
    version     2.0;
    format      ascii;
    class       volScalarField;
    location    "0.019";
    object      T;
}
// * * * * * * * * * * * * * * * * * * * * * * * * * * * * * * * * * * * * * //

dimensions      [0 0 0 1 0 0 0];

internalField   nonuniform List<scalar> 
42400
(
472.192768
470.560482
468.885371
467.166498
465.402973
463.593972
461.738758
459.836703
457.887319
455.890281
453.845466
451.752984
449.613214
447.426847
445.194924
442.918878
440.600581
438.242386
435.847167
433.418364
430.960022
428.476819
425.974096
423.457877
420.934877
418.412495
415.898804
413.402515
410.932929
408.499873
406.113619
403.784781
401.524206
399.342846
397.251619
395.261268
393.382227
391.62449
389.997465
388.509817
387.169343
385.982822
384.955896
384.092952
383.39707
382.869964
382.511871
382.321285
382.295217
382.428236
382.713673
383.14035
383.6939
384.35763
385.108623
385.915592
386.74205
387.566613
388.403584
388.930994
389.097676
388.900845
388.16657
387.207566
385.93788
384.28846
382.117782
379.378352
376.03203
372.088556
367.419271
362.250415
357.250732
351.436759
344.253127
337.826439
332.329929
327.076345
319.91183
314.686108
472.227989
470.666923
469.064918
467.421099
465.734643
464.004798
462.230906
460.412428
458.548967
456.640306
454.686433
452.687582
450.644266
448.557322
446.427948
444.25775
442.048783
439.803597
437.525279
435.217497
432.884536
430.531332
428.163499
425.787351
423.409904
421.038881
418.682687
416.35038
414.051621
411.796602
409.595964
407.46069
405.401986
403.431161
401.559479
399.797991
398.157346
396.647602
395.277993
394.056713
392.990716
392.085516
391.344966
390.771027
390.363461
390.11962
390.034602
390.099151
390.303565
390.630745
391.061224
391.568267
392.116709
392.676899
393.227603
393.675886
393.826161
393.662694
392.986702
392.107001
390.95017
389.443914
387.478375
384.959705
381.863762
378.179118
373.935942
369.18272
363.923592
358.259183
352.21647
345.806545
339.688853
333.866808
327.610204
321.331312
315.997289
311.195253
307.13698
303.215721
472.273053
470.803117
469.294667
467.746915
466.159132
464.530668
462.860976
461.149635
459.396383
457.601141
455.764051
453.885511
451.966211
450.007175
448.009799
445.975899
443.90775
441.80813
439.680364
437.528363
435.356657
433.170433
430.975553
428.778572
426.58674
424.407995
422.250937
420.124788
418.039338
416.004872
414.032069
412.131881
410.315384
408.593608
406.977329
405.476828
404.101637
402.860264
401.759916
400.806203
400.002812
399.351124
398.849878
398.495225
398.279487
398.191016
398.214487
398.329808
398.507384
398.71894
398.93987
399.138369
399.129057
398.904619
398.312107
397.401624
396.270471
394.849708
393.064265
390.789523
387.9791
384.607064
380.66681
376.184323
371.206905
365.779219
359.986425
353.949893
347.732846
341.399996
335.146048
328.983514
323.099385
317.886239
313.08258
308.888038
304.92438
301.97505
300.34088
300.086366
472.324717
470.959262
469.558086
468.12051
466.645922
465.1338
463.583738
461.995467
460.368887
458.704099
457.001434
455.261493
453.48518
451.673745
449.828821
447.952465
446.047198
444.116048
442.162585
440.190956
438.205915
436.212848
434.217785
432.227409
430.249046
428.290647
426.360741
424.468378
422.623046
420.834556
419.112905
417.468096
415.909934
414.447778
413.090271
411.845043
410.718379
409.714853
408.836938
408.084617
407.455268
406.942588
406.536254
406.221872
405.9813
405.794408
405.64254
405.465646
405.167544
404.697373
403.995037
403.009975
401.846353
400.443417
398.734464
396.628496
394.055289
390.982012
387.387702
383.270918
378.647363
373.556339
368.045117
362.1867
356.074273
349.800821
343.459878
337.176015
331.080774
325.224804
319.760499
314.800484
310.402425
306.663378
303.559469
301.127588
300.12199
299.918664
299.866386
299.852621
472.379333
471.124338
469.836592
468.515543
467.160716
465.771742
464.348373
462.890517
461.398262
459.871905
458.311989
456.719335
455.095075
453.44069
451.758045
450.049426
448.317573
446.565714
444.797593
443.017494
441.230256
439.441283
437.65654
435.882536
434.126287
432.395268
430.69733
429.040598
427.43334
425.883789
424.399951
422.989365
421.658833
420.414102
419.259526
418.197669
417.228904
416.351135
415.559146
414.844577
414.196468
413.600737
413.041707
412.452183
411.794131
411.023276
410.088678
408.983481
407.727215
406.270721
404.56021
402.525549
400.097314
397.239433
393.923507
390.133497
385.868708
381.145758
375.997636
370.480091
364.647513
358.569683
352.322704
346.011754
339.731253
333.606076
327.724236
322.180344
317.090401
312.541532
308.629224
305.40643
302.937409
300.96337
300.131392
299.947461
299.900999
299.881087
299.871481
299.864637
472.43282
471.286009
470.109379
468.902515
467.665091
466.396895
465.097848
463.768033
462.407721
461.017396
459.597791
458.149911
456.675068
455.17491
453.651446
452.107075
450.544611
448.967295
447.378815
445.783305
444.185337
442.58991
441.002408
439.428549
437.874309
436.345824
434.849259
433.390654
431.975729
430.609667
429.296854
428.0406
426.842812
425.703666
424.621381
423.591806
422.608333
421.656063
420.714612
419.759827
418.763549
417.693436
416.513985
415.241072
413.840012
412.272691
410.495286
408.451294
406.088505
403.371288
400.268166
396.754894
392.817262
388.452452
383.670981
378.498497
372.976039
367.169538
361.145759
354.975178
348.733034
342.508625
336.387259
330.485406
324.891567
319.710873
315.012421
310.884331
307.389378
304.586526
302.506678
301.013337
300.140093
299.957928
299.903724
299.888289
299.878393
299.8681
299.850532
299.828528
472.480535
471.430242
470.352765
469.247822
468.115227
466.954906
465.766924
464.551501
463.30904
462.040144
460.745648
459.426632
458.084451
456.720745
455.337463
453.936866
452.52154
451.094387
449.658615
448.217716
446.775425
445.335668
443.902484
442.479931
441.071965
439.68229
438.314184
436.97029
435.652379
434.361084
433.095608
431.853467
430.630102
429.418409
428.206226
426.978363
425.716868
424.407919
423.036333
421.580556
420.015447
418.311504
416.432822
414.334886
411.984971
409.35103
406.402843
403.114115
399.464468
395.440828
391.03885
386.264182
381.13354
375.675661
369.932863
363.964673
357.841202
351.636351
345.432993
339.316707
333.373171
327.697781
322.382211
317.519545
313.185485
309.449663
306.359224
303.944602
302.17137
301.005174
300.273671
299.985065
299.92455
299.906791
299.892667
299.87586
299.84711
299.823838
299.805113
299.803312
472.517483
471.541935
470.541257
469.515271
468.46389
467.387129
466.285127
465.158158
464.006649
462.831194
461.632569
460.411741
459.169878
457.908352
456.628735
455.332794
454.022472
452.699859
451.367157
450.026622
448.680494
447.33091
445.979787
444.628697
443.278703
441.930187
440.582642
439.234457
437.882715
436.522928
435.148747
433.751838
432.321481
430.844575
429.307822
427.694976
425.986349
424.157798
422.182482
420.034493
417.686865
415.112387
412.284724
409.179313
405.774492
402.052876
398.002567
393.618314
388.902567
383.866379
378.530075
372.92396
367.089022
361.077375
354.956402
348.794973
342.669675
336.666846
330.879676
325.402191
320.324935
315.734118
311.707309
308.29356
305.529583
303.407278
301.887501
300.887965
300.312405
300.01757
299.928472
299.914506
299.897445
299.866532
299.839548
299.816914
299.810709
299.805257
299.802662
299.80121
472.538927
471.606765
470.650668
469.670508
468.666224
467.637839
466.585461
465.509292
464.409638
463.286906
462.14161
460.974363
459.785871
458.57692
457.348347
456.101018
454.835776
453.553451
452.254771
450.940286
449.610271
448.264616
446.902687
445.523173
444.123885
442.701531
441.251383
439.767217
438.241844
436.666416
435.030334
433.321032
431.524046
429.623055
427.600015
425.435343
423.108223
420.597072
417.880154
414.936365
411.745852
408.29057
404.555474
400.529456
396.206296
391.5856
386.673715
381.484578
376.040475
370.37261
364.521568
358.538429
352.485881
346.433788
340.454143
334.627457
329.038361
323.777588
318.93527
314.593703
310.822895
307.667603
305.144033
303.227472
301.859918
300.955225
300.410994
300.121588
299.981992
299.926123
299.890712
299.855662
299.829347
299.822531
299.819174
299.815515
299.810224
299.804799
299.802199
299.801398
472.54137
471.61414
470.663077
469.688013
468.688823
467.665426
466.617786
465.545911
464.449844
463.329656
462.185437
461.017273
459.825223
458.609291
457.36939
456.105314
454.816678
453.502798
452.162619
450.794605
449.396605
447.965673
446.497864
444.98796
443.429946
441.817453
440.143181
438.39868
436.573532
434.655901
432.632566
430.48899
428.209472
425.777372
423.175423
420.386125
417.392258
414.177438
410.726286
407.025435
403.064252
398.835604
394.336657
389.569688
384.542921
379.271402
373.77789
368.093679
362.259304
356.32495
350.351369
344.412755
338.585152
332.94721
327.58004
322.566683
317.985446
313.905793
310.381392
307.446771
305.10616
303.327704
302.04671
301.177197
300.624005
300.291474
300.100993
299.991615
299.923471
299.873665
299.842239
299.827077
299.822473
299.819642
299.817411
299.814857
299.810982
299.808559
299.807621
299.804889
472.525107
471.564981
470.580121
469.570277
468.535205
467.474664
466.388397
465.276127
464.137535
462.972251
461.779827
460.559714
459.311173
458.032457
456.721407
455.376237
453.994797
452.574481
451.112157
449.60411
448.04601
446.432884
444.759119
443.018623
441.20418
439.306876
437.316769
435.222891
433.013272
430.675036
428.194537
425.557565
422.749608
419.756192
416.563325
413.157545
409.526636
405.66022
401.550387
397.192366
392.585258
387.732819
382.644287
377.335259
371.828585
366.15528
360.355367
354.478465
348.584089
342.741431
337.032546
331.540823
326.347604
321.5318
317.164493
313.304522
309.990959
307.242352
305.050338
303.375205
302.151935
301.298406
300.728232
300.362997
300.125286
299.978652
299.898685
299.854622
299.831537
299.821513
299.819138
299.818153
299.816295
299.81496
299.813534
299.812978
299.811941
299.81189
299.814163
299.815981
472.489227
471.456518
470.397077
469.310499
468.196337
467.054079
465.883132
464.682713
463.45131
462.18767
460.890293
459.557384
458.186868
456.777113
455.326248
453.831259
452.288617
450.694258
449.04352
447.331072
445.550896
443.696226
441.759486
439.732294
437.605435
435.368883
433.011846
430.522859
427.889913
425.100629
422.142483
419.003111
415.670455
412.133108
408.380857
404.405195
400.199887
395.761625
391.090746
386.192027
381.075545
375.757576
370.261507
364.618699
358.869222
353.062327
347.256519
341.51911
335.925172
330.556129
325.496824
320.824229
316.60583
312.893247
309.718331
307.088285
304.98529
303.366082
302.167906
301.316888
300.736303
300.353185
300.10443
299.950278
299.881396
299.859367
299.844891
299.833213
299.824688
299.819249
299.813808
299.811524
299.810977
299.811568
299.812692
299.814382
299.814538
299.812775
299.81266
299.818851
472.434857
471.292158
470.119686
468.916802
467.682765
466.416694
465.117145
463.782787
462.412616
461.004898
459.557602
458.068361
456.534437
454.95268
453.319481
451.630718
449.881701
448.067148
446.181143
444.217089
442.167703
440.025007
437.780331
435.424343
432.947099
430.338121
427.586516
424.681121
421.610713
418.36421
414.930786
411.300353
407.46397
403.414323
399.146294
394.657597
389.949521
385.027733
379.903157
374.592896
369.121121
363.519902
357.829833
352.100367
346.389657
340.763616
335.294301
330.057452
325.129534
320.583261
316.482045
312.873015
309.783451
307.216168
305.150519
303.543719
302.336619
301.461091
300.848576
300.436207
300.171613
300.007413
299.9183
299.881842
299.864783
299.85298
299.841147
299.829872
299.820962
299.815533
299.812358
299.810675
299.810271
299.810902
299.811441
299.814177
299.816528
299.815173
299.812817
299.815452
472.36656
471.085718
469.771345
468.422575
467.038381
465.61745
464.158511
462.659895
461.119644
459.535466
457.904698
456.224264
454.490635
452.699793
450.847194
448.927733
446.935712
444.86482
442.708118
440.458042
438.106409
435.644444
433.062836
430.351808
427.501223
424.500728
421.339943
418.008534
414.496542
410.794748
406.895061
402.791004
398.478267
393.95536
389.224347
384.291655
379.168953
373.87404
368.431705
362.874477
357.243141
351.586915
345.963116
340.436197
335.075908
329.954339
325.142305
320.705005
316.698043
313.162749
310.121986
307.57724
305.508676
303.878114
302.631926
301.710227
301.05032
300.594043
300.289786
300.097425
299.985484
299.926365
299.894146
299.871049
299.852994
299.83741
299.828232
299.820361
299.814142
299.809763
299.806519
299.805615
299.806049
299.808092
299.810045
299.812883
299.817525
299.822336
299.822264
299.816868
472.287693
470.847338
469.369156
467.852057
466.294733
464.69566
463.053164
461.365159
459.629202
457.842453
456.001639
454.103012
452.142317
450.114755
448.014964
445.836994
443.574298
441.219733
438.765568
436.203517
433.524783
430.720134
427.780002
424.694622
421.454165
418.04889
414.469465
410.707296
406.754924
402.606492
398.258305
393.709472
388.962627
384.024723
378.907878
373.630215
368.216665
362.699621
357.119365
351.524111
345.969543
340.517706
335.235131
330.190209
325.449683
321.074434
317.115078
313.608009
310.572397
308.008785
305.90175
304.21731
302.909225
301.924231
301.205911
300.699232
300.35463
300.129794
299.987676
299.906262
299.866692
299.848676
299.837611
299.829657
299.824052
299.822671
299.819459
299.818847
299.81664
299.81256
299.808353
299.806209
299.806241
299.808524
299.81067
299.81216
299.816483
299.821403
299.827196
299.827403
472.200239
470.583009
468.923208
467.219536
465.470452
463.674179
461.8286
459.931205
457.979074
455.968831
453.896612
451.758026
449.548133
447.261419
444.891786
442.432551
439.876455
437.215693
434.441958
431.546516
428.5203
425.354047
422.038391
418.564103
414.922361
411.105076
407.105278
402.917584
398.53874
393.968248
389.209063
384.268354
379.158304
373.896893
368.508634
363.025151
357.485518
351.936245
346.430761
341.028301
335.79207
330.786691
326.075024
321.714533
317.753455
314.227331
311.156115
308.543027
306.373957
304.619908
303.239717
302.185145
301.403101
300.840794
300.451074
300.191571
300.026547
299.927074
299.879005
299.856766
299.843657
299.836342
299.831445
299.827366
299.824277
299.821855
299.819225
299.81592
299.814974
299.815899
299.816022
299.815773
299.815326
299.815812
299.816962
299.815046
299.815967
299.815796
299.819894
299.824143
472.105524
470.296739
468.44028
466.534643
464.578034
462.568322
460.502998
458.379124
456.193296
453.941608
451.619615
449.222313
446.744123
444.178885
441.519865
438.759783
435.890857
432.904868
429.793256
426.547245
423.157949
419.616614
415.914877
412.045082
408.000656
403.776562
399.36983
394.780152
390.01055
385.068102
379.964688
374.71772
369.350815
363.894312
358.385566
352.868893
347.395084
342.020364
336.804713
331.809562
327.094836
322.715617
318.718753
315.139689
311.999841
309.305169
307.045923
305.198259
303.725968
302.584546
301.723672
301.093846
300.648311
300.343491
300.142369
300.015566
299.939893
299.898059
299.872646
299.854847
299.841697
299.83198
299.82609
299.822158
299.818248
299.815374
299.813771
299.813912
299.81362
299.815301
299.818052
299.820295
299.821932
299.825659
299.828762
299.830128
299.823217
299.814605
299.815735
299.821309
472.004544
469.991534
467.925393
465.804385
463.626432
461.389073
459.089413
456.724083
454.289202
451.780346
449.192526
446.520181
443.757177
440.89683
437.931944
434.854873
431.657612
428.331905
424.86938
421.261762
417.50113
413.580216
409.49277
405.234001
400.801071
396.193676
391.414671
386.470757
381.373176
376.138403
370.788758
365.352895
359.866058
354.370048
348.912763
343.547269
338.330312
333.320266
328.574529
324.146617
320.082783
316.418995
313.178456
310.370294
307.988773
306.013996
304.414718
303.150279
302.175608
301.443483
300.909112
300.530718
300.271635
300.100567
299.990913
299.923308
299.881928
299.855163
299.837651
299.826842
299.820374
299.816736
299.813937
299.811422
299.809573
299.809898
299.811422
299.81365
299.814889
299.815653
299.817701
299.82
299.821977
299.823351
299.827004
299.835323
299.839848
299.836572
299.82968
299.82859
471.898146
469.669947
467.382867
465.034925
462.623755
460.146557
457.600058
454.980472
452.283467
449.504155
446.637079
443.676231
440.61508
437.446628
434.163492
430.758003
427.222343
423.548744
419.729726
415.758383
411.628734
407.336133
402.877746
398.253084
393.464607
388.518355
383.424613
378.198551
372.860814
367.437986
361.962855
356.474409
351.017457
345.641814
340.400972
335.35027
330.544587
326.035623
321.869
318.081859
314.699972
311.736235
309.189067
307.044428
305.276857
303.851324
302.727629
301.863881
301.217262
300.746906
300.4142
300.185791
300.034302
299.93834
299.878318
299.846543
299.828711
299.818558
299.813273
299.811168
299.810724
299.811061
299.812238
299.811842
299.809148
299.809164
299.810879
299.814358
299.816623
299.816551
299.816898
299.818247
299.818681
299.820223
299.82231
299.827903
299.837308
299.842972
299.84857
299.851371
471.787343
469.335048
466.817885
464.233625
461.579616
458.852736
456.049357
453.165319
450.195911
447.135875
443.979426
440.720294
437.351792
433.866913
430.25845
426.519177
422.642068
418.620568
414.448915
410.12252
405.638412
400.995739
396.19632
391.245246
386.151497
380.928553
375.594964
370.17481
364.698002
359.200334
353.72322
348.313021
343.019924
337.896331
332.99479
328.365582
324.054138
320.098458
316.526515
313.3548
310.589282
308.224338
306.242791
304.618207
303.3172
302.301072
301.528697
300.958994
300.552317
300.272353
300.086941
299.968909
299.896711
299.856455
299.840869
299.830208
299.822754
299.815494
299.811286
299.809011
299.807899
299.808083
299.811032
299.814479
299.816938
299.818164
299.818041
299.820969
299.822804
299.821847
299.817066
299.816733
299.816114
299.817881
299.81917
299.822445
299.832444
299.839764
299.844554
299.847739
472.581908
471.736507
470.869005
469.978948
469.065876
468.129326
467.168825
466.183892
465.174032
464.138742
463.077503
461.989781
460.875031
459.732688
458.562171
457.362882
456.134204
454.875498
453.586103
452.265335
450.912478
449.526789
448.107485
446.653741
445.164682
443.639367
442.076784
440.475821
438.835254
437.153711
435.429641
433.661268
431.846536
429.983047
428.06798
426.098002
424.069175
421.976862
419.815632
417.579001
415.259074
412.846626
410.331252
407.701529
404.936582
402.014585
398.911669
395.614962
392.101215
388.347637
384.33463
380.048337
375.485268
370.658007
365.601714
360.380647
355.093158
349.872859
344.883112
340.302283
336.299397
333.003542
330.475037
328.687494
327.534249
326.858862
326.494404
326.299219
326.176221
326.072628
325.967311
325.857
325.747756
325.648711
325.564397
325.488966
325.424666
325.369307
325.316243
325.262281
472.580827
471.733259
470.863565
469.971312
469.056064
468.117379
467.154809
466.167897
465.156175
464.119164
463.056371
461.967286
460.851382
459.70811
458.5369
457.337155
456.108247
454.849517
453.560265
452.23975
450.887178
449.501696
448.082382
446.628236
445.138159
443.61094
442.045235
440.43954
438.792157
437.101162
435.364359
433.579227
431.742854
429.851866
427.902332
425.889666
423.80857
421.652994
419.416085
417.090206
414.665123
412.124353
409.453341
406.634122
403.654049
400.496028
397.139314
393.563199
389.747911
385.676671
381.338655
376.732933
371.873438
366.794699
361.557669
356.254342
351.009085
345.974422
341.319076
337.207304
333.767594
331.067844
329.101126
327.785626
326.984321
326.538514
326.30238
326.166294
326.071327
325.983538
325.89476
325.806494
325.72299
325.646656
325.573593
325.509971
325.456735
325.419821
325.410429
325.516501
472.576944
471.721537
470.843827
469.943396
469.01982
468.072673
467.101524
466.105931
465.085446
464.039606
462.967937
461.869944
460.745111
459.592899
458.412737
457.20402
455.966104
454.698297
453.399852
452.06996
450.707736
449.31221
447.882311
446.416852
444.914505
443.373781
441.793002
440.17027
438.503437
436.790071
435.027416
433.212352
431.341375
429.410575
427.415265
425.348825
423.203391
420.971119
418.64258
416.206377
413.65063
410.966378
408.138357
405.150012
401.983812
398.621467
395.044532
391.235626
387.180207
382.86909
378.301813
373.490881
368.466732
363.282873
358.020213
352.789163
347.727378
342.989307
338.727031
335.072211
332.112282
329.871295
328.303021
327.30052
326.720663
326.415777
326.261722
326.166449
326.097469
326.041203
326.001646
325.983339
325.99895
326.075355
326.160322
326.243068
326.362804
326.613062
327.128577
328.085093
472.570081
471.700808
470.808889
469.89391
468.955452
467.993094
467.006409
465.994963
464.958313
463.896005
462.807569
461.692514
460.550328
459.380467
458.182353
456.955365
455.698834
454.412032
453.094164
451.744356
450.361649
448.944978
447.493172
446.004935
444.478841
442.913118
441.305719
439.654249
437.956145
436.208491
434.407901
432.550428
430.631454
428.645529
426.586556
424.448742
422.225629
419.908455
417.487397
414.951482
412.288568
409.485376
406.527353
403.398883
400.083672
396.565371
392.828555
388.860173
384.651589
380.201334
375.518598
370.627373
365.570887
360.415666
355.254083
350.20307
345.395642
340.972905
337.067571
333.784111
331.179554
329.250946
327.934917
327.11916
326.667821
326.43849
326.372043
326.357852
326.388356
326.452012
326.560917
326.731645
326.975344
327.289344
327.660775
328.08492
328.683223
329.690978
331.311228
333.663927
472.560001
471.670351
470.757534
469.821129
468.860711
467.875853
466.866121
465.831076
464.77027
463.683245
462.569524
461.428612
460.259988
459.063097
457.83735
456.582109
455.296688
453.980342
452.632241
451.251414
449.83677
448.387137
446.901176
445.37735
443.813883
442.208914
440.560365
438.865933
437.122815
435.327788
433.477199
431.566902
429.592188
427.547726
425.42749
423.224694
420.931701
418.539905
416.039677
413.420313
410.670036
407.776033
404.724597
401.501391
398.091919
394.482274
390.660245
386.616898
382.348724
377.860409
373.168186
368.30356
363.316945
358.280538
353.28783
348.450869
343.895102
339.748556
336.12684
333.114839
330.75173
329.022324
327.839972
327.119376
326.739727
326.626987
326.609833
326.675981
326.796141
326.972432
327.231712
327.615996
328.168963
328.922827
329.896332
331.108201
332.655048
334.755655
337.499288
340.755335
472.5464
471.629251
470.688217
469.722863
468.732748
467.717425
466.676444
465.60935
464.515679
463.394956
462.246691
461.070375
459.865469
458.631408
457.367584
456.073322
454.74788
453.390454
452.000163
450.57607
449.117138
447.622146
446.089732
444.518367
442.906331
441.251685
439.552245
437.805536
436.008763
434.158757
432.251937
430.284255
428.251141
426.147446
423.967377
421.704422
419.351293
416.899863
414.341117
411.665125
408.861058
405.917261
402.821419
399.56087
396.123113
392.496584
388.671795
384.642904
380.409801
375.98071
371.375217
366.627439
361.78893
356.930162
352.140241
347.524773
343.199787
339.281683
335.850945
332.998987
330.756592
329.107286
328.007999
327.351777
327.034368
326.96743
327.037886
327.225048
327.512713
327.917876
328.482438
329.256152
330.279916
331.580273
333.176273
335.071617
337.280387
339.860303
342.809318
345.907661
472.528918
471.576416
470.599101
469.59651
468.568176
467.513625
466.432379
465.323958
464.187872
463.023624
461.830703
460.608578
459.356695
458.074461
456.761252
455.416414
454.039236
452.628926
451.184622
449.705374
448.190137
446.63775
445.046924
443.416221
441.744034
440.028562
438.267791
436.459457
434.601019
432.68962
430.722052
428.694707
426.603534
424.443985
422.210962
419.898755
417.500987
415.010556
412.419607
409.719489
406.900789
403.953398
400.866676
397.629737
394.231943
390.663644
386.917219
382.988518
378.878736
374.596692
370.161407
365.604683
360.973237
356.330791
351.757404
347.347016
343.2019
339.423568
336.124968
333.357118
331.156383
329.518693
328.402151
327.730887
327.41301
327.352344
327.46158
327.708254
328.076053
328.584743
329.29388
330.292174
331.671569
333.478102
335.661939
338.076874
340.662329
343.361207
346.062839
348.552416
472.507166
471.510677
470.488212
469.439276
468.363366
467.259973
466.128583
464.968683
463.779754
462.561271
461.312699
460.033496
458.723106
457.380952
456.006419
454.598855
453.157571
451.681827
450.17083
448.62372
447.039566
445.417353
443.755969
442.054196
440.310693
438.523976
436.692407
434.814164
432.88722
430.909317
428.877929
426.79023
424.643052
422.432838
420.155591
417.80682
415.381479
412.873908
410.277791
407.586106
404.79113
401.884477
398.85723
395.700153
392.404097
388.960635
385.362937
381.606999
377.693237
373.628394
369.427662
365.116807
360.740896
356.349465
352.012959
347.814993
343.847954
340.206189
336.977344
334.227915
331.996787
330.289995
329.080864
328.31549
327.922711
327.82258
327.948007
328.256919
328.730115
329.37987
330.255609
331.440805
333.014192
334.955309
337.06768
339.507153
342.002537
344.376799
346.578043
348.613471
472.480823
471.431061
470.353916
469.248852
468.115323
466.95278
465.76067
464.538444
463.28555
462.001441
460.68558
459.337422
457.956409
456.541973
455.093535
453.610497
452.092244
450.538138
448.947514
447.319676
445.653894
443.949398
442.205374
440.420958
438.595224
436.727179
434.81575
432.859769
430.857957
428.808901
426.711031
424.562587
422.361583
420.105764
417.792547
415.41897
412.981617
410.47655
407.899242
405.244508
402.50647
399.67855
396.753544
393.723767
390.581325
387.318597
383.92891
380.407484
376.752676
372.967526
369.061544
365.06879
361.004085
356.910308
352.844332
348.874748
345.079464
341.541319
338.341247
335.549496
333.216828
331.367916
329.998511
329.077317
328.552663
328.362347
328.436272
328.744615
329.250708
329.953742
330.875381
332.023973
333.347047
335.166525
337.254339
339.568122
341.95746
344.171326
346.312122
348.09054
472.449767
471.337202
470.195596
469.02437
467.822931
466.590686
465.327042
464.031413
462.703228
461.341933
459.946972
458.517802
457.053887
455.554704
454.019735
452.448475
450.840427
449.195107
447.512041
445.790771
444.030853
442.231862
440.39339
438.515047
436.596463
434.637281
432.637158
430.595753
428.512721
426.38769
424.220249
422.009912
419.756084
417.458014
415.114739
412.725009
410.287209
407.799265
405.258549
402.661779
400.004938
397.283208
394.490964
391.621834
388.668865
385.624844
382.482783
379.236592
375.881871
372.416551
368.856029
365.208878
361.488436
357.725686
353.964051
350.257793
346.67067
343.272752
340.135469
337.325509
334.897926
332.890013
331.317244
330.172303
329.427882
329.043331
328.975892
329.132867
329.550601
330.177079
330.990812
332.078239
333.411492
335.017363
336.90681
339.007967
341.168595
343.217257
345.060905
346.691331
472.414217
471.229765
470.01438
468.767433
467.488285
466.1763
464.830846
463.451315
462.037114
460.587668
459.102427
457.580868
456.022501
454.426865
452.793541
451.122148
449.412353
447.663876
445.876496
444.050059
442.184486
440.27978
438.336033
436.353434
434.332274
432.272952
430.175973
428.041951
425.871599
423.665717
421.425173
419.150877
416.843737
414.504612
412.134243
409.733172
407.301647
404.839503
402.346045
399.819912
397.258953
394.660115
392.01937
389.331699
386.591163
383.791103
380.924501
377.984572
374.965674
371.864804
368.673015
365.418861
362.095179
358.719071
355.319871
351.936879
348.618262
345.41943
342.400069
339.619882
337.133364
334.984557
333.202756
331.800112
330.771871
330.099541
329.756652
329.710564
329.849756
330.234017
330.79042
331.662634
332.746195
334.02419
335.486658
337.152703
338.93579
340.727099
342.422371
343.796822
472.374855
471.110807
469.813734
468.482956
467.11779
465.717555
464.281594
462.809266
461.29996
459.753098
458.168147
456.544623
454.882094
453.180192
451.43862
449.657158
447.835675
445.974142
444.072642
442.131381
440.150706
438.131116
436.073275
433.978025
431.846397
429.679621
427.479128
425.246555
422.983741
420.692712
418.375663
416.034926
413.67293
411.292139
408.89498
406.483747
404.060497
401.62691
399.184146
396.732683
394.272156
391.801202
389.317329
386.816836
384.294793
381.745118
379.160775
376.534105
373.857326
371.123177
368.32552
365.48112
362.590478
359.647284
356.666724
353.67384
350.701956
347.791058
344.986317
342.335636
339.886312
337.68124
335.755266
334.132371
332.82435
331.831396
331.144409
330.74768
330.620829
330.646132
330.897563
331.332739
331.896691
332.738617
333.779045
334.983048
336.299457
337.650943
339.02804
339.887709
472.332933
470.984118
469.600049
468.179999
466.72324
465.229057
463.696754
462.12567
460.515182
458.864723
457.173787
455.441938
453.668825
451.854191
449.997883
448.099871
446.16026
444.179304
442.157428
440.095245
437.993572
435.853448
433.676155
431.463233
429.216492
426.938025
424.630214
422.295735
419.937545
417.558879
415.163218
412.754253
410.335842
407.911934
405.486494
403.063395
400.6463
398.238516
395.842846
393.461401
391.095429
388.745139
386.409543
384.086327
381.7718
379.460937
377.147513
374.824389
372.483968
370.118852
367.722784
365.266722
362.792487
360.291119
357.755655
355.197945
352.635874
350.095353
347.607051
345.205175
342.925592
340.803461
338.870678
337.153524
335.670952
334.43385
333.445342
332.701622
332.192044
331.889096
331.792554
331.814975
332.016824
332.44497
332.998191
333.676158
334.466251
335.314021
336.286761
336.891424
472.290305
470.855296
469.382766
467.871939
466.322043
464.732325
463.102061
461.430569
459.717227
457.96148
456.162858
454.320989
452.435611
450.506592
448.533945
446.517846
444.458656
442.356939
440.213484
438.029332
435.805791
433.544463
431.247264
428.91644
426.554583
424.164647
421.749945
419.314154
416.861305
414.395763
411.922194
409.445526
406.970881
404.503504
402.048666
399.611553
397.197131
394.810009
392.454277
390.133341
387.84974
385.604975
383.399343
381.231788
379.099787
376.999338
374.925049
372.870334
370.827763
368.789512
366.747968