/*--------------------------------*- C++ -*----------------------------------*\
  =========                 |
  \\      /  F ield         | OpenFOAM: The Open Source CFD Toolbox
   \\    /   O peration     | Website:  https://openfoam.org
    \\  /    A nd           | Version:  8
     \\/     M anipulation  |
\*---------------------------------------------------------------------------*/
FoamFile
{
    version     2.0;
    format      ascii;
    class       volVectorField;
    location    "0.019";
    object      U;
}
// * * * * * * * * * * * * * * * * * * * * * * * * * * * * * * * * * * * * * //

dimensions      [0 1 -1 0 0 0 0];

internalField   nonuniform List<vector> 
42400
(
(-0.0170493903 0.0163291649 -6.67080398e-27)
(-0.0510065349 0.0481234314 2.16872033e-26)
(-0.085398249 0.0794400702 2.17852933e-26)
(-0.120162729 0.110152727 0)
(-0.155234461 0.140169977 0)
(-0.190579753 0.169412774 -4.22702345e-28)
(-0.226180107 0.197812065 0)
(-0.262013494 0.22530157 4.63420229e-28)
(-0.298045978 0.251812573 0)
(-0.334229415 0.277272666 5.07484635e-28)
(-0.37050235 0.301607222 5.30811742e-28)
(-0.406792528 0.324742032 -5.5502381e-28)
(-0.443020002 0.346606231 -3.39734449e-27)
(-0.479100195 0.367135023 -4.30176641e-28)
(-0.514946455 0.386271955 -6.33122262e-28)
(-0.550471922 0.403970622 0)
(-0.585590648 0.420195777 0)
(-0.62021803 0.434923955 0)
(-0.654270698 0.448143703 0)
(-0.687665993 0.459855561 0)
(-0.72032116 0.470071903 0)
(-0.752152353 0.478816703 -1.69959074e-27)
(-0.783073483 0.48612528 3.81754949e-26)
(-0.812994922 0.492044014 9.07969145e-26)
(-0.841822025 0.496630032 5.32164648e-26)
(-0.869453394 0.499950809 -2.00060239e-27)
(-0.895778763 0.502083656 -2.08429404e-27)
(-0.920676365 0.503115056 4.34455563e-27)
(-0.944009815 0.503139746 0)
(-0.965624994 0.502259207 0)
(-0.985345893 0.50057877 -1.10750742e-25)
(-1.00296562 0.498202811 -1.24113027e-25)
(-1.01824273 0.495230196 5.38144292e-27)
(-1.03094574 0.491776715 1.54483147e-25)
(-1.04085498 0.487982214 1.81857586e-25)
(-1.04742846 0.484285337 0)
(-1.05038785 0.480116158 0)
(-1.04913694 0.47578799 0)
(-1.04330468 0.471288494 0)
(-1.0325485 0.467254865 2.71248606e-25)
(-1.0149564 0.463602295 2.84039114e-25)
(-0.989713778 0.459645707 3.52201123e-25)
(-0.954675321 0.455650578 9.45115499e-25)
(-0.909780309 0.451013456 -2.43334139e-26)
(-0.853180736 0.446315569 -5.88681017e-25)
(-0.78335504 0.441416362 -7.1515754e-25)
(-0.69838296 0.436113329 3.1256509e-26)
(-0.596273341 0.430261952 7.98515831e-25)
(-0.475234358 0.423520046 3.62368168e-26)
(-0.332250927 0.416018807 1.12505239e-24)
(-0.167677443 0.408213926 2.48309131e-33)
(0.0269150218 0.401657766 -2.71210799e-24)
(0.245724508 0.396168249 -1.49010583e-24)
(0.509411566 0.388036804 1.31089598e-25)
(0.817318795 0.377086714 0)
(1.17274669 0.365427614 0)
(1.58301099 0.353647763 0)
(2.05416934 0.341630185 -2.02318568e-25)
(2.59177907 0.329523711 -2.19530629e-25)
(3.20175742 0.317435898 0)
(3.88956171 0.305293517 5.41832938e-24)
(4.65953044 0.293320174 5.75044162e-24)
(5.51451664 0.282302538 -5.49760212e-24)
(6.45600145 0.27449482 -5.11292378e-24)
(7.4818494 0.270762954 0)
(8.59370071 0.269962174 0)
(9.76904708 0.285359026 -1.38662513e-24)
(11.0006554 0.306985152 -3.64345368e-25)
(12.2972404 0.310964347 1.24281245e-25)
(13.5592032 0.396136637 0)
(15.060621 0.247847513 0)
(16.7054704 -0.120131719 5.01616693e-25)
(17.4313708 0.715552716 8.94861724e-25)
(18.2797475 1.72702173 0)
(20.404734 0.0288156474 9.11534509e-25)
(22.2806294 -1.23344969 9.84869012e-24)
(22.832998 -0.372389695 4.51505038e-24)
(22.7196467 1.44488762 -4.29008168e-24)
(23.6242426 1.46778642 -1.09288025e-23)
(24.0385778 0.157546122 -2.81476418e-23)
(-0.0202901831 0.0179820809 0)
(-0.0604323037 0.0530166388 1.64930787e-26)
(-0.100866401 0.0876487218 1.5968208e-26)
(-0.141593944 0.121827732 0)
(-0.182560382 0.155485704 0)
(-0.22372858 0.188549383 1.1311972e-26)
(-0.26504565 0.220932794 1.0411609e-26)
(-0.306442006 0.252538525 6.70159823e-28)
(-0.347829088 0.283259881 0)
(-0.389102249 0.312984873 7.36484633e-28)
(-0.43014529 0.341601027 7.71925224e-28)
(-0.470834981 0.368999833 2.86936919e-28)
(-0.511044902 0.395080323 7.15388107e-27)
(-0.550648342 0.419751698 6.28767097e-27)
(-0.589520196 0.44293506 -1.06299223e-26)
(-0.627537902 0.464564376 -1.1439629e-26)
(-0.664581562 0.484586846 0)
(-0.700533416 0.50296284 2.14816636e-27)
(-0.735276848 0.519665575 0)
(-0.768695091 0.534680669 0)
(-0.800669729 0.548005682 0)
(-0.831079092 0.559649681 3.93542199e-26)
(-0.859796529 0.56963289 9.29873381e-26)
(-0.886688505 0.577986397 5.41816655e-26)
(-0.911612401 0.584751931 0)
(-0.934414045 0.589981503 -6.15588862e-27)
(-0.954924732 0.593736411 -3.19733297e-27)
(-0.972956709 0.596085954 6.69114714e-27)
(-0.988296665 0.597106916 9.34778557e-26)
(-1.00071444 0.596888613 1.02106803e-25)
(-1.00998046 0.595514322 -7.67861533e-27)
(-1.01582329 0.593077691 -7.91555894e-27)
(-1.01782783 0.589917704 1.8376708e-25)
(-1.01584544 0.58568243 2.01951816e-25)
(-1.00925027 0.580821487 -2.2485282e-25)
(-0.997796258 0.575265486 -2.04261883e-25)
(-0.981126608 0.569543915 0)
(-0.957335612 0.563470482 1.16622701e-26)
(-0.925619161 0.556577107 0)
(-0.884344522 0.54918266 2.6591846e-26)
(-0.833374095 0.541003672 3.71925307e-25)
(-0.771105504 0.532551953 3.79675782e-25)
(-0.696180825 0.523813757 3.0130857e-26)
(-0.60677421 0.514673813 -3.22295655e-26)
(-0.500855098 0.505003393 6.87312964e-26)
(-0.376864984 0.49435454 -3.62975113e-26)
(-0.231404335 0.482760419 4.00848178e-26)
(-0.0628688262 0.471719552 8.35083691e-25)
(0.128278164 0.463153994 8.4101294e-25)
(0.346849233 0.454248555 0)
(0.612770297 0.441344249 -5.80407161e-26)
(0.918814025 0.426258652 1.24222786e-25)
(1.27101387 0.411353754 1.21199845e-24)
(1.67622316 0.396563598 1.60295276e-24)
(2.13951404 0.38160611 1.62717456e-25)
(2.66665996 0.366580895 3.7023756e-24)
(3.26347172 0.351517049 4.06999348e-24)
(3.93497979 0.336297345 -1.84859484e-25)
(4.6856443 0.321213053 -1.85854746e-25)
(5.51919951 0.307416487 5.37922287e-24)
(6.4378268 0.296199069 5.72471062e-24)
(7.44088677 0.288519839 1.43766397e-25)
(8.52497258 0.284716124 -1.15911379e-25)
(9.68165122 0.288540825 0)
(10.8926774 0.302095167 -4.90216558e-24)
(12.1650085 0.313228615 -9.06306363e-24)
(13.4617998 0.339184074 -3.60113053e-24)
(14.7408689 0.417279605 0)
(16.0661609 0.430005386 1.38003778e-26)
(17.3313844 0.47625244 5.95873752e-25)
(18.5166886 0.638502756 3.52274353e-24)
(20.0198394 0.262705227 4.50048236e-24)
(21.2343487 0.0120298675 1.21853731e-24)
(21.7494472 1.01968506 3.66796386e-25)
(22.5669593 1.37889739 6.15649677e-26)
(23.6195447 0.476147143 1.05581572e-23)
(23.9505004 -0.275877797 8.23093246e-24)
(23.9385759 0.28233547 -4.40848184e-24)
(24.0108691 0.634333584 -1.80441942e-23)
(24.0345912 0.606369989 -1.68128769e-23)
(-0.0229597833 0.0188080212 1.80350882e-27)
(-0.0681898829 0.05548006 3.08479046e-28)
(-0.113594279 0.0918340779 -3.26142483e-28)
(-0.159230281 0.127881844 3.41299477e-28)
(-0.205075837 0.163587603 0)
(-0.251066281 0.198875662 -7.09016237e-27)
(-0.297124959 0.233650247 7.41741891e-34)
(-0.343135332 0.267793899 3.56455372e-27)
(-0.388951926 0.30117193 1.55356407e-27)
(-0.434410626 0.333641652 -1.37844331e-27)
(-0.479336294 0.365060642 -2.2172606e-27)
(-0.523549254 0.395292826 1.0210822e-27)
(-0.566870071 0.424212664 1.07216844e-27)
(-0.609122523 0.451707761 -1.23615836e-26)
(-0.650134965 0.477680225 -1.60063746e-26)
(-0.689740447 0.502047079 3.72368106e-27)
(-0.727775874 0.52474003 2.16021918e-26)
(-0.764080545 0.545704867 5.75593466e-26)
(-0.798494283 0.564900703 3.36780014e-26)
(-0.830855312 0.582299242 3.01558138e-27)
(-0.86099788 0.597884221 -3.16013944e-27)
(-0.888749648 0.611651107 -3.31032855e-27)
(-0.913929057 0.623606885 0)
(-0.936342216 0.633769578 7.2245648e-27)
(-0.955776921 0.642165632 -7.02348984e-26)
(-0.972003488 0.648828002 4.73021293e-29)
(-0.98478041 0.653793588 8.40494905e-26)
(-0.993854644 0.657099741 9.45298997e-26)
(-0.998889071 0.658859297 1.09532136e-25)
(-0.999671429 0.659028843 -1.1795267e-25)
(-0.995842131 0.657818232 -9.74069732e-27)
(-0.987000038 0.655434939 2.86299593e-25)
(-0.972936808 0.651856483 1.60544329e-25)
(-0.95283252 0.647492 0)
(-0.925370491 0.641987271 0)
(-0.889705299 0.635117939 -1.27468399e-26)
(-0.8442559 0.627230434 0)
(-0.789053969 0.618204116 2.78480682e-26)
(-0.722664636 0.608504636 2.59677299e-25)
(-0.643789319 0.598157188 6.09449664e-26)
(-0.550700947 0.587118404 -2.74876621e-25)
(-0.441479489 0.575354492 0)
(-0.314604497 0.562533652 0)
(-0.166976067 0.548773524 5.01851218e-25)
(0.00347885848 0.535896228 5.77384692e-25)
(0.192650875 0.524772073 4.18503778e-26)
(0.419181608 0.511598436 0)
(0.681775964 0.49631516 0)
(0.984584898 0.480560498 7.87641093e-25)
(1.3330385 0.465062187 8.58351845e-25)
(1.7325938 0.449712652 -5.64264054e-26)
(2.18788983 0.434467995 0)
(2.70465874 0.419619018 -1.02800122e-24)
(3.28857029 0.405289867 -1.31869297e-24)
(3.94464648 0.391694576 -2.94479406e-24)
(4.67747014 0.379524614 -3.28759275e-24)
(5.49066214 0.369938301 -3.89822211e-24)
(6.38605782 0.363913115 -1.4290225e-32)
(7.36288825 0.361970884 1.54326531e-32)
(8.41786503 0.364511628 -1.13416686e-23)
(9.54557519 0.371299421 -5.86154278e-24)
(10.7371612 0.383097243 5.89273266e-24)
(11.9818625 0.399573933 5.98884266e-24)
(13.2641378 0.425342669 0)
(14.5484611 0.469798396 6.04707757e-24)
(15.8439057 0.516366828 1.1899711e-23)
(17.132868 0.540302315 5.9439459e-24)
(18.3316384 0.63175986 0)
(19.4551907 0.750114106 -2.92420758e-26)
(20.6161411 0.712284176 6.8432084e-24)
(21.5662214 0.826093762 7.0856372e-24)
(22.4182023 0.914933342 0)
(23.3638194 0.609959556 0)
(23.8255943 0.463831375 1.37569653e-24)
(23.920504 0.922777191 -1.49969923e-24)
(23.9287414 1.04502242 1.03291977e-24)
(23.9485877 0.915181704 1.82764602e-23)
(23.9432098 0.690092878 0)
(23.9651215 0.648352158 -1.91276388e-24)
(23.9857042 0.592743683 1.10010108e-23)
(-0.025147379 0.0190093531 2.27626467e-28)
(-0.0745522283 0.0560752239 3.5815695e-28)
(-0.124047439 0.0928732987 4.00805535e-27)
(-0.173740379 0.129463083 -2.50641237e-27)
(-0.223625536 0.165834425 -2.65431107e-27)
(-0.273641499 0.201923706 0)
(-0.323659145 0.237620478 -2.5134442e-27)
(-0.37350141 0.272786053 -1.33036287e-27)
(-0.422977746 0.307266992 2.12534816e-27)
(-0.471861738 0.340903081 4.69044044e-27)
(-0.519913071 0.37353186 9.74127318e-27)
(-0.566890605 0.404997894 2.9170684e-34)
(-0.612556282 0.435158825 1.26883398e-27)
(-0.656677726 0.463887949 1.70798926e-33)
(-0.69902919 0.491075166 -1.40303487e-27)
(-0.739390841 0.51662692 2.92557108e-26)
(-0.777546826 0.540465535 -3.42555531e-26)
(-0.813282554 0.56252832 -3.22915505e-27)
(-0.846381698 0.582766662 4.20415787e-26)
(-0.876623258 0.60114481 3.55163174e-27)
(-0.903773292 0.617634997 -7.48713318e-27)
(-0.927581474 0.632214969 -6.07098284e-26)
(-0.947783817 0.644868412 -6.64858076e-26)
(-0.964113862 0.655562395 4.26570598e-27)
(-0.976260771 0.664342215 0)
(-0.983969415 0.671248667 4.64433575e-27)
(-0.986935892 0.676377001 0)
(-0.984851442 0.679867249 1.17680733e-25)
(-0.977431388 0.681797742 2.28382784e-25)
(-0.963930211 0.682242292 1.2607411e-25)
(-0.943455474 0.681022953 -1.19207161e-25)
(-0.915255703 0.678105366 -1.40800804e-25)
(-0.878332907 0.673507281 2.55913458e-26)
(-0.831696381 0.667387056 1.34467889e-26)
(-0.774919393 0.659942397 -1.94372901e-25)
(-0.706760389 0.651372859 -2.20401078e-25)
(-0.625949176 0.641727796 0)
(-0.530869289 0.631036907 2.50037448e-25)
(-0.419695325 0.61933545 2.35022741e-25)
(-0.290887973 0.606364079 3.30330772e-26)
(-0.141596305 0.592242715 3.60134992e-26)
(0.0304424698 0.578814968 0)
(0.220506132 0.56698855 0)
(0.447639744 0.55317804 0)
(0.709557255 0.537530735 4.39032262e-26)
(1.01041626 0.521851234 5.82400361e-25)
(1.35532671 0.506679428 5.73996995e-25)
(1.74890554 0.491976068 0)
(2.19630394 0.477920984 0)
(2.70304764 0.464750361 8.08118416e-25)
(3.27460231 0.452681618 8.95466902e-25)
(3.91608309 0.442317064 1.13046707e-24)
(4.63219402 0.434659314 1.30398548e-24)
(5.4265135 0.430772567 -9.12186406e-26)
(6.30083793 0.431498311 -1.77449179e-24)
(7.25477777 0.437582903 -1.9014978e-24)
(8.28531932 0.449820994 -4.54513431e-24)
(9.38694296 0.469153447 -5.25042109e-24)
(10.5508281 0.495659653 0)
(11.7660304 0.528962474 -4.48902258e-26)
(13.0205403 0.568647283 -5.80248845e-24)
(14.2965567 0.613890212 -1.19912748e-23)
(15.5804405 0.663327686 1.2551328e-25)
(16.8490147 0.715691415 1.48061529e-25)
(18.067117 0.779934345 -7.16326435e-24)
(19.2133518 0.8677928 7.26128186e-24)
(20.3014657 0.923244792 7.26405849e-24)
(21.3140647 0.94643812 -5.34049951e-25)
(22.1404902 1.05996121 -5.14148301e-24)
(22.9247851 1.10097666 -1.09939277e-23)
(23.5495541 1.06664068 6.87308239e-26)
(23.8827915 1.10606402 -1.00566359e-23)
(23.9261414 1.11650534 -4.02565325e-24)
(23.9346399 1.08747203 0)
(23.9275687 0.992356064 -7.89968721e-24)
(23.9358441 0.994125242 -3.17501417e-23)
(23.9383664 1.04440158 1.74523485e-24)
(23.9714067 0.980128491 9.24457684e-24)
(24.0260769 0.938419792 9.70395958e-24)
(24.0004837 0.825913298 1.04332055e-23)
(-0.0271356125 0.018887728 1.47952017e-27)
(-0.0803285983 0.0556637909 0)
(-0.133527744 0.092151834 0)
(-0.1868791 0.128442438 8.4681244e-31)
(-0.240384483 0.164542361 0)
(-0.293960515 0.20039478 0)
(-0.347449512 0.235893279 0)
(-0.400635563 0.270889746 -2.2284361e-27)
(-0.453231746 0.305206604 0)
(-0.504927412 0.338663925 1.24042357e-27)
(-0.555441034 0.371087846 1.30328381e-26)
(-0.604463609 0.40232085 1.7229703e-33)
(-0.651687929 0.432214555 -1.66596594e-26)
(-0.696817295 0.460636018 0)
(-0.739561984 0.487470828 -1.59991089e-27)
(-0.779637195 0.512622384 3.37230286e-27)
(-0.816759729 0.536010517 0)
(-0.850638818 0.55756853 4.4489178e-26)
(-0.88097508 0.577243279 3.92535567e-27)
(-0.907487095 0.594956812 -1.01889312e-25)
(-0.929834064 0.610756496 -6.29969304e-26)
(-0.947752238 0.624618406 4.44836706e-27)
(-0.960938273 0.636583856 0)
(-0.969048683 0.646760843 -9.60550412e-26)
(-0.971561876 0.654998852 -1.06224755e-25)
(-0.967903247 0.66131356 -1.08386057e-25)
(-0.957482255 0.665703735 -1.2132867e-25)
(-0.939611721 0.668149414 1.30697477e-25)
(-0.913448482 0.668659856 1.37854708e-25)
(-0.878313734 0.667386725 0)
(-0.833563835 0.664512422 -1.6320995e-25)
(-0.778168395 0.660111062 -1.72886735e-25)
(-0.711007401 0.654238004 1.40798081e-26)
(-0.630805468 0.646958956 -1.8057731e-25)
(-0.535994472 0.638347151 -2.05421712e-25)
(-0.424843421 0.628480454 -3.17108885e-26)
(-0.295792289 0.617178441 1.66419605e-26)
(-0.146219173 0.604592345 -3.1200354e-25)
(0.0261110736 0.592462707 -3.2341934e-25)
(0.216730179 0.581583717 2.6322619e-25)
(0.443679659 0.568910248 5.59363359e-25)
(0.704503099 0.554649722 4.05919951e-25)
(1.00309477 0.540649781 0)
(1.34430316 0.527386577 -4.38358618e-26)
(1.73240043 0.514838774 -4.76258138e-25)
(2.17232386 0.503296438 -4.62112987e-26)
(2.66940334 0.493110062 8.97626866e-33)
(3.22892289 0.48484595 -6.93008086e-25)
(3.85593985 0.479279882 0)
(4.5549194 0.477205721 -4.37606975e-26)
(5.32934366 0.47940596 -1.24464834e-24)
(6.18133411 0.486615983 -1.37050964e-24)
(7.11131544 0.499619372 -9.20661582e-26)
(8.11767215 0.519369566 -1.96704874e-24)
(9.19601876 0.546921909 -2.24491132e-24)
(10.3389542 0.583407672 -2.61663212e-24)
(11.5346898 0.629845216 -8.28962689e-24)
(12.7689148 0.686758508 -5.71394916e-24)
(14.0260558 0.753875071 -5.71925783e-24)
(15.2885478 0.827921202 -6.09096803e-24)
(16.5421906 0.907648532 0)
(17.7596833 0.986952474 2.17805788e-25)
(18.9359007 1.06918656 -6.14053294e-24)
(20.0227768 1.14766657 -6.83267758e-24)
(21.0429907 1.2188167 -3.15242198e-26)
(21.9252918 1.29832371 0)
(22.7039017 1.37944161 1.00980626e-23)
(23.343162 1.39805692 1.16403074e-23)
(23.7846869 1.4070681 8.06424895e-25)
(23.9309128 1.45345096 -8.00453456e-25)
(23.9696551 1.45233313 -2.41101897e-26)
(23.9566092 1.46323545 -8.20973732e-25)
(23.9288179 1.42722246 -1.32242494e-23)
(23.9338125 1.39229113 -7.24983582e-24)
(23.9735064 1.31622568 -1.14450132e-24)
(24.0317097 1.27787838 0)
(24.0597577 1.26813875 -9.1403094e-24)
(24.0692919 1.23234755 -1.10401222e-23)
(24.0775909 1.21692181 0)
(24.0712434 1.13856082 -1.08202653e-23)
(-0.0291867967 0.0186569502 -2.68283298e-27)
(-0.0862601992 0.0548750229 -3.72391204e-27)
(-0.143211351 0.090711006 -4.31061778e-27)
(-0.200206921 0.126270354 -5.07434167e-28)
(-0.257240012 0.161568783 2.0796137e-27)
(-0.314194851 0.196549978 -1.12995869e-27)
(-0.370861933 0.231102333 1.22053102e-27)
(-0.426955038 0.265075254 5.98638009e-29)
(-0.482135181 0.29829558 1.32662314e-27)
(-0.536041597 0.330573185 2.79594562e-27)
(-0.588259131 0.361720401 -3.9575258e-27)
(-0.638385014 0.391574999 -2.40538693e-26)
(-0.686080891 0.419984752 -2.15972414e-26)
(-0.730967361 0.44683373 -2.52729969e-26)
(-0.772672891 0.47201688 1.81761112e-27)
(-0.810832638 0.495446578 4.10457096e-26)
(-0.845101619 0.517016904 0)
(-0.87507708 0.536772996 0)
(-0.900412821 0.55457563 6.15394384e-26)
(-0.92065305 0.570467511 1.5027958e-25)
(-0.935400338 0.584364973 8.30937413e-26)
(-0.944125679 0.596281743 9.19620137e-26)
(-0.94626517 0.606196195 1.60442693e-33)
(-0.941191211 0.614074046 -1.1376118e-25)
(-0.928384822 0.620075889 1.11500969e-25)
(-0.907153675 0.624232878 2.55667044e-25)
(-0.876700137 0.626574932 1.32321772e-25)
(-0.836127409 0.627150947 -6.62179547e-27)
(-0.784441182 0.626014098 6.90515456e-27)
(-0.720524747 0.623234459 -1.44169747e-26)
(-0.643088067 0.618904553 0)
(-0.550599336 0.613128126 2.09619163e-25)
(-0.441396151 0.6060058 -1.61692262e-26)
(-0.313894139 0.597428877 -2.15485023e-25)
(-0.165665706 0.587578525 0)
(0.00543470757 0.577997028 -3.07390124e-25)
(0.195702071 0.56929922 -2.05913508e-25)
(0.421293716 0.55912484 0)
(0.680094278 0.547657274 0)
(0.975661182 0.536664277 -3.36269916e-25)
(1.31252947 0.526634017 -3.67473434e-25)
(1.69471466 0.517623786 8.86199851e-26)
(2.12689226 0.510061958 0)
(2.61411066 0.504487732 4.7044821e-25)
(3.1612926 0.501526381 1.14055859e-24)
(3.77309736 0.501858225 6.43576794e-25)
(4.45369932 0.506178077 4.54333301e-26)
(5.20650339 0.515200873 -2.3180625e-27)
(6.03387913 0.529659567 0)
(6.9368265 0.55033103 -1.38446732e-24)
(7.91454729 0.577992405 -4.22470316e-26)
(8.96399514 0.613374521 1.95165669e-24)
(10.079396 0.657134719 1.76718307e-26)
(11.2519665 0.709912527 -2.6790752e-24)
(12.4689894 0.772310595 -5.99326912e-24)
(13.7147167 0.844795586 1.49167901e-32)
(14.9714668 0.927583534 3.16841601e-24)
(16.2193196 1.01992279 0)
(17.4372955 1.12187281 0)
(18.6038382 1.22644517 2.50958064e-25)
(19.7085176 1.33255901 2.85678475e-25)
(20.718546 1.42772033 0)
(21.656394 1.51578888 7.20009687e-24)
(22.4299989 1.58661722 7.28273541e-24)
(23.1676746 1.64060632 -1.16253863e-23)
(23.6393143 1.68374727 -3.00625035e-23)
(23.8750269 1.69562112 -1.0111271e-23)
(23.9434282 1.72230299 -4.95515374e-24)
(23.9588382 1.74021347 -5.6694571e-24)
(23.9508393 1.7381654 -1.03602875e-24)
(23.9490534 1.68879504 1.2792206e-23)
(23.9473736 1.65841231 6.48919275e-24)
(23.9648729 1.61508811 -1.11590426e-23)
(24.0121586 1.55537538 -1.0943655e-23)
(24.070228 1.52017863 -1.22246266e-23)
(24.0989347 1.43955493 -1.07998426e-23)
(24.1434884 1.36681607 -8.89867521e-24)
(24.1627145 1.348774 1.69533949e-31)
(24.1588491 1.37479327 2.05039871e-23)
(24.139135 1.35900578 3.72247846e-23)
(-0.0314970046 0.0184298254 1.53783423e-27)
(-0.0928717623 0.0540464443 5.18837724e-28)
(-0.153887946 0.0891216695 3.78684792e-27)
(-0.214710402 0.123762543 -9.06502382e-34)
(-0.275303855 0.157986571 -2.20853904e-27)
(-0.335502903 0.191735244 -2.3123067e-27)
(-0.395031413 0.224892634 6.84825428e-28)
(-0.453524631 0.257303192 4.91361799e-28)
(-0.510556516 0.288789908 3.75111039e-27)
(-0.565665813 0.319171782 5.786919e-27)
(-0.618378071 0.348276272 7.68920955e-27)
(-0.668232584 0.375930799 7.68211952e-27)
(-0.714718582 0.401998591 1.20908145e-26)
(-0.757368558 0.426380118 1.7821372e-26)
(-0.795749008 0.448950943 2.04401362e-27)
(-0.829377827 0.469660126 2.14637654e-27)
(-0.857754376 0.48848934 5.73918369e-26)
(-0.880425023 0.505311781 6.47096375e-26)
(-0.896828728 0.52020828 -4.94853411e-27)
(-0.90642802 0.533142966 -5.23838322e-27)
(-0.908609989 0.544127866 8.66740409e-26)
(-0.902702665 0.553180207 9.66687734e-26)
(-0.887974427 0.560330726 0)
(-0.863595206 0.565613887 6.3210626e-27)
(-0.828672577 0.569079796 0)
(-0.782192703 0.570807674 0)
(-0.723018909 0.570887677 7.21987417e-27)
(-0.64986609 0.569421696 -1.88983444e-25)
(-0.561249743 0.566524395 -1.77124169e-25)
(-0.455551434 0.562314989 1.72388979e-25)
(-0.331166991 0.556749388 2.07512474e-25)
(-0.18583237 0.550030642 1.75002623e-26)
(-0.0174714992 0.543465564 -1.79355613e-26)
(0.171073395 0.537519007 0)
(0.393831836 0.530495481 1.98403487e-26)
(0.649247351 0.522574418 0)
(0.940542907 0.515374572 0)
(1.27195336 0.509404927 2.20899979e-26)
(1.64726701 0.504839813 0)
(2.07082421 0.502179992 0)
(2.54724527 0.501985599 4.45064625e-25)
(3.08104677 0.504887209 5.48144352e-25)
(3.67654123 0.511570411 0)
(4.33766248 0.522749857 0)
(5.06775285 0.539199697 0)
(5.86927628 0.56171925 4.33157601e-26)
(6.74347666 0.591084196 3.62027474e-26)
(7.69001033 0.628009052 1.29481258e-24)
(8.70656579 0.673095906 1.5957022e-24)
(9.78848606 0.72676466 1.92290517e-24)
(10.9284871 0.789195863 2.31592955e-24)
(12.1163768 0.860316011 2.76630553e-24)
(13.3388445 0.939634717 3.11092681e-24)
(14.5796665 1.02638664 0)
(15.8206239 1.11980954 0)
(17.0413897 1.21848374 -3.50788697e-24)
(18.2213015 1.32123306 -7.51536145e-24)
(19.3382167 1.42586746 -4.04764974e-24)
(20.3684744 1.53294576 -4.223947e-24)
(21.2929539 1.63775764 -3.80104898e-24)
(22.1055215 1.72822834 9.66519411e-24)
(22.7857366 1.80688615 2.04684966e-23)
(23.3574399 1.84829994 3.58832059e-25)
(23.7733681 1.88174981 -1.21235449e-23)
(23.8733146 1.89522828 4.57419448e-25)
(23.9015815 1.94866344 -6.80815864e-25)
(23.9240969 1.93772027 8.75934093e-24)
(23.9231066 1.93249711 -1.12590458e-31)
(23.934667 1.89907712 -9.01251815e-24)
(23.9405335 1.85526534 -8.55710005e-25)
(23.9399267 1.8478408 7.4167716e-24)
(23.9450001 1.77946104 1.38072279e-23)
(23.9368959 1.80475079 0)
(23.9934957 1.71466795 7.83897804e-25)
(24.0603833 1.59127738 0)
(24.0789127 1.55272708 1.04598173e-23)
(24.1041149 1.50242209 2.27045662e-23)
(24.1508355 1.40247362 1.31022003e-23)
(24.1721669 1.37542832 1.15728227e-23)
(24.1665651 1.37892049 2.54580721e-23)
(-0.034048959 0.0181672359 1.58071856e-27)
(-0.100067844 0.05309295 4.8667075e-27)
(-0.165331155 0.0872905741 -6.30829695e-28)
(-0.229972207 0.12085685 -3.07082914e-27)
(-0.293901463 0.15380258 -1.78567584e-27)
(-0.356880626 0.186063121 -1.10985384e-27)
(-0.418546249 0.217518182 -1.56086799e-27)
(-0.478436521 0.248010984 -4.78079653e-27)
(-0.536023683 0.277367042 -6.98289838e-27)
(-0.590745544 0.305407957 -9.66410312e-27)
(-0.642014872 0.331990379 0)
(-0.689264402 0.356944842 -4.03162193e-27)
(-0.731890407 0.380173504 2.12287595e-27)
(-0.76931451 0.401550172 0)
(-0.800913119 0.421037628 0)
(-0.826093698 0.43857094 0)
(-0.844228265 0.454131275 0)
(-0.854652278 0.467716436 -2.71492991e-27)
(-0.856652955 0.479344504 0)
(-0.849472434 0.489039509 -5.44614474e-26)
(-0.832262314 0.496865599 -6.05209725e-26)
(-0.804106645 0.50287779 1.1436594e-25)
(-0.763980151 0.507160853 1.33286566e-25)
(-0.710745861 0.509812467 -1.39130414e-25)
(-0.643133844 0.510947508 -1.67174622e-25)
(-0.559699598 0.510699361 -1.71804177e-25)
(-0.458864843 0.509210315 -1.7049125e-25)
(-0.339023013 0.506499039 -2.13707268e-25)
(-0.198057177 0.502790076 -4.85054781e-25)
(-0.0339328359 0.499174338 -2.5223607e-25)
(0.151275305 0.496027989 0)
(0.369577276 0.492219978 -1.98418825e-26)
(0.619961071 0.487951963 -2.08158742e-26)
(0.905419176 0.484645581 0)
(1.22983665 0.482816826 2.17021952e-26)
(1.59676082 0.482714475 0)
(2.01019375 0.484875297 0)
(2.47437042 0.489896976 4.37509124e-25)
(2.99345741 0.498441704 -2.44440197e-26)
(3.57148152 0.51124327 -5.18808608e-25)
(4.21216678 0.529081801 6.15069566e-25)
(4.9187285 0.552768304 6.77655581e-25)
(5.69363854 0.583122508 2.28380761e-26)
(6.53831585 0.620930955 0)
(7.4528061 0.66691702 1.05930094e-24)
(8.43544321 0.721696559 1.33731447e-24)
(9.48250228 0.785720721 0)
(10.5878592 0.859201032 0)
(11.7427147 0.942063285 -2.24477737e-24)
(12.9352394 1.03383495 -2.65498474e-24)
(14.1508304 1.13360153 3.06664656e-24)
(15.3720561 1.23941299 3.31364976e-24)
(16.5806815 1.34923922 -3.40044377e-24)
(17.7566955 1.46028491 1.91905579e-32)
(18.8799358 1.56995182 3.90815465e-24)
(19.9282446 1.6750743 2.02788278e-26)
(20.8838611 1.77261885 0)
(21.7290232 1.8602465 1.9792898e-25)
(22.4480911 1.93577945 -4.67150326e-24)
(23.0297815 2.00736669 2.87354368e-25)
(23.463856 2.05060377 5.02981311e-24)
(23.7943149 2.0865538 0)
(23.8907516 2.11536398 3.30540881e-25)
(23.892076 2.14256093 0)
(23.8796797 2.1439366 2.43343954e-25)
(23.8904997 2.11237691 -2.83323139e-25)
(23.9252375 2.09566126 -7.54363858e-25)
(23.9438702 2.06565743 -1.08701222e-23)
(23.9404207 2.05985378 -8.36927221e-24)
(23.9443436 2.03903768 -1.02377348e-24)
(23.9550677 2.01552854 -9.01331978e-24)
(23.9707506 1.98408236 -7.19105631e-24)
(23.9807809 1.93036379 -1.2851572e-23)
(23.9607253 1.93247107 -9.80150691e-24)
(24.0047247 1.8971889 -1.23671427e-23)
(24.0483555 1.7856277 -1.17100385e-23)
(24.0779196 1.70639928 1.02705601e-23)
(24.1289091 1.59668381 1.22148596e-23)
(24.1779896 1.5233644 -2.15853282e-24)
(24.1838655 1.48531712 2.14503661e-24)
(-0.0365772432 0.0177110215 1.28991176e-27)
(-0.107038889 0.0515788417 -4.53178197e-27)
(-0.176158567 0.0845461419 -7.32040058e-28)
(-0.244002004 0.11669155 -7.52426993e-34)
(-0.310394562 0.148012829 5.41688779e-29)
(-0.374998289 0.17843763 -8.54617083e-28)
(-0.437339855 0.2078437 3.97841536e-27)
(-0.49683836 0.236085644 1.43412533e-33)
(-0.552845353 0.262989723 -1.6975549e-26)
(-0.604657518 0.288402814 -1.24065337e-26)
(-0.651560809 0.312159657 2.20811763e-27)
(-0.692802118 0.334164982 -2.09239284e-26)
(-0.727656478 0.354304008 -2.00008531e-26)
(-0.755375016 0.372518626 -2.66704746e-26)
(-0.775198873 0.388771583 -3.12781607e-26)
(-0.786344725 0.403057015 3.62911494e-26)
(-0.787986187 0.415398914 4.15178056e-26)
(-0.779256283 0.425825555 -3.06238765e-27)
(-0.759187255 0.434422048 0)
(-0.726758505 0.441259527 -5.57851674e-26)
(-0.680833479 0.446451159 -6.57214718e-26)
(-0.620159449 0.450126019 -7.41964953e-27)
(-0.543333461 0.452435305 7.91641383e-26)
(-0.448824402 0.453545558 9.1903817e-26)
(-0.335045551 0.453536308 -1.67003941e-26)
(-0.200017928 0.452653108 0)
(-0.0417446452 0.451807593 9.07216773e-27)
(0.138353596 0.451325141 1.32501127e-28)
(0.350451962 0.450530966 -2.43523506e-25)
(0.593996714 0.449659995 -2.82487191e-25)
(0.871834773 0.44993218 3.07588818e-25)
(1.18749264 0.451873924 2.87560723e-25)
(1.54429542 0.455807493 -4.49900141e-26)
(1.94593833 0.462302888 -3.49719095e-25)
(2.39631447 0.471997558 -1.69206876e-32)
(2.89928014 0.485588354 4.49510508e-25)
(3.45858797 0.503833217 -5.25854896e-25)
(4.07774695 0.527533915 -5.63058269e-25)
(4.75983982 0.55751449 -4.81930773e-26)
(5.50733814 0.594605742 2.37038382e-26)
(6.32182375 0.639607106 2.13972131e-26)
(7.20370349 0.693258888 -9.80179788e-25)
(8.15190025 0.756197067 -2.28769301e-24)
(9.16353799 0.828899655 -1.36091415e-24)
(10.2336382 0.91162867 -1.62746576e-24)
(11.3548423 1.00437232 -1.90614967e-24)
(12.5171644 1.10679756 0)
(13.7077746 1.21818456 2.65794485e-24)
(14.9110015 1.33756281 3.10806476e-24)
(16.1077047 1.46313259 3.32372032e-24)
(17.2784682 1.59256421 6.90025294e-24)
(18.4034269 1.72265462 7.1423092e-24)
(19.4631407 1.84976752 7.45311452e-24)
(20.4376505 1.96962767 7.79222703e-24)
(21.31182 2.0794896 4.03839813e-24)
(22.0672213 2.17378216 -3.55731157e-25)
(22.7010298 2.25204509 0)
(23.2032151 2.30554068 -4.24142782e-24)
(23.5936107 2.35786438 -4.89041767e-24)
(23.8262702 2.37776805 0)
(23.929771 2.40383191 -5.60143268e-24)
(23.9265091 2.38518442 -3.64370272e-24)
(23.9142754 2.37384889 0)
(23.9146962 2.37634547 -3.0135374e-25)
(23.9292778 2.36413851 0)
(23.9643161 2.34540127 -9.81025798e-24)
(23.9881772 2.32420481 -1.28086026e-24)
(23.9980042 2.31314445 1.12085961e-23)
(23.9954891 2.291244 -7.01155335e-25)
(24.0040853 2.26992988 -9.92815503e-25)
(23.9950366 2.26099724 -7.63035054e-24)
(24.0128437 2.21941779 -1.0481084e-23)
(24.0105785 2.19791358 -7.95876853e-25)
(24.0110327 2.16504299 -1.00108626e-24)
(24.0128736 2.10445708 -5.80085088e-26)
(23.9998002 2.07043011 -8.72967082e-25)
(24.019677 2.00084558 1.43461883e-23)
(24.0539845 1.93656876 2.46082305e-23)
(24.1166096 1.80604211 1.08265001e-23)
(24.1624433 1.62913061 -2.85225621e-24)
(-0.0387043639 0.0169063583 0)
(-0.112622815 0.0490582562 -8.09560079e-28)
(-0.184382118 0.0801742144 8.52167179e-28)
(-0.253944055 0.110316434 -2.63600993e-27)
(-0.321015061 0.139466951 9.44890562e-28)
(-0.385121097 0.16754969 9.94268399e-28)
(-0.445639789 0.194445492 -8.68241937e-27)
(-0.501836013 0.220004544 0)
(-0.552888145 0.244086597 2.30446285e-27)
(-0.597936773 0.266548239 -1.80397369e-26)
(-0.636093297 0.287273105 -1.9413119e-26)
(-0.66645389 0.306173058 2.62144888e-26)
(-0.688101912 0.323192368 2.81005201e-27)
(-0.700102423 0.33830955 -6.90437893e-26)
(-0.701485706 0.351542974 -8.26824515e-26)
(-0.691256489 0.36291625 -4.36251045e-26)
(-0.668312691 0.37252997 -3.38407444e-27)
(-0.631523445 0.380466624 -5.96550607e-26)
(-0.579639943 0.386865708 -6.2880875e-26)
(-0.511294572 0.391888034 3.8240802e-27)
(-0.425002243 0.395717266 -4.02984492e-27)
(-0.319206262 0.398483192 -1.67162595e-26)
(-0.192051485 0.400444948 -1.04749697e-25)
(-0.041580248 0.402364387 -2.23832405e-25)
(0.13135138 0.40453548 -1.0673549e-25)
(0.335253929 0.406650624 -9.89831374e-27)
(0.569970601 0.408978321 -1.17275503e-25)
(0.838213544 0.412567379 1.05508898e-26)
(1.14318996 0.417953514 -1.08772809e-26)
(1.4880104 0.425526537 -1.59352577e-25)
(1.87608675 0.435883216 0)
(2.31099807 0.44968471 -4.17881187e-25)
(2.7963129 0.467645913 -2.44197471e-26)
(3.33552726 0.490535213 5.19308222e-25)
(3.93194599 0.519163517 5.78042621e-25)
(4.58851989 0.55436135 6.44586455e-25)
(5.30770437 0.596963424 -2.45178671e-26)