/*--------------------------------*- C++ -*----------------------------------*\
  =========                 |
  \\      /  F ield         | OpenFOAM: The Open Source CFD Toolbox
   \\    /   O peration     | Website:  https://openfoam.org
    \\  /    A nd           | Version:  8
     \\/     M anipulation  |
\*---------------------------------------------------------------------------*/
FoamFile
{
    version     2.0;
    format      ascii;
    class       volScalarField;
    location    "0.014";
    object      p_rgh;
}
// * * * * * * * * * * * * * * * * * * * * * * * * * * * * * * * * * * * * * //

dimensions      [1 -1 -2 0 0 0 0];

internalField   nonuniform List<scalar> 
42400
(
101287.873
101287.863
101287.852
101287.843
101287.835
101287.828
101287.821
101287.815
101287.81
101287.806
101287.803
101287.801
101287.8
101287.8
101287.801
101287.804
101287.807
101287.812
101287.817
101287.824
101287.833
101287.842
101287.853
101287.865
101287.878
101287.893
101287.909
101287.927
101287.946
101287.967
101287.99
101288.014
101288.041
101288.069
101288.1
101288.135
101288.179
101288.232
101288.289
101288.339
101288.379
101288.423
101288.476
101288.543
101288.619
101288.702
101288.792
101288.888
101288.991
101289.108
101289.246
101289.402
101289.554
101289.702
101289.877
101290.076
101290.296
101290.529
101290.777
101291.039
101291.317
101291.611
101291.925
101292.255
101292.587
101292.909
101293.201
101293.542
101293.842
101293.88
101294.255
101294.328
101293.257
101292.056
101294.968
101298.169
101297.34
101296.337
101295.203
101293.591
101287.528
101287.52
101287.512
101287.505
101287.499
101287.494
101287.489
101287.485
101287.482
101287.48
101287.478
101287.478
101287.478
101287.479
101287.482
101287.485
101287.49
101287.495
101287.502
101287.509
101287.518
101287.528
101287.539
101287.552
101287.565
101287.58
101287.596
101287.613
101287.631
101287.651
101287.671
101287.694
101287.721
101287.754
101287.791
101287.83
101287.861
101287.885
101287.91
101287.946
101287.992
101288.043
101288.096
101288.154
101288.216
101288.278
101288.356
101288.449
101288.558
101288.65
101288.735
101288.855
101288.996
101289.147
101289.312
101289.492
101289.689
101289.906
101290.151
101290.43
101290.736
101291.067
101291.421
101291.807
101292.227
101292.684
101293.113
101293.622
101294.256
101294.707
101295.239
101296.213
101296.258
101296.793
101297.952
101298.616
101300.337
101302.422
101305.277
101308.846
101287.054
101287.049
101287.043
101287.038
101287.034
101287.03
101287.027
101287.025
101287.023
101287.022
101287.022
101287.023
101287.025
101287.028
101287.031
101287.036
101287.042
101287.048
101287.056
101287.065
101287.075
101287.086
101287.098
101287.112
101287.126
101287.142
101287.158
101287.176
101287.195
101287.218
101287.243
101287.272
101287.299
101287.322
101287.341
101287.361
101287.389
101287.424
101287.461
101287.499
101287.541
101287.584
101287.625
101287.68
101287.755
101287.819
101287.869
101287.935
101288.02
101288.118
101288.22
101288.332
101288.456
101288.595
101288.754
101288.94
101289.154
101289.396
101289.669
101289.98
101290.337
101290.746
101291.21
101291.735
101292.314
101292.982
101293.652
101294.383
101295.307
101296.247
101297.136
101298.27
101300.505
101302.371
101304.431
101307.254
101308.508
101310.408
101312.718
101314.535
101286.474
101286.47
101286.466
101286.462
101286.459
101286.457
101286.455
101286.454
101286.454
101286.454
101286.455
101286.458
101286.461
101286.465
101286.471
101286.477
101286.484
101286.493
101286.503
101286.514
101286.526
101286.539
101286.554
101286.569
101286.585
101286.603
101286.623
101286.645
101286.668
101286.69
101286.711
101286.732
101286.755
101286.782
101286.813
101286.845
101286.878
101286.913
101286.948
101286.981
101287.025
101287.086
101287.135
101287.168
101287.218
101287.284
101287.352
101287.424
101287.504
101287.593
101287.694
101287.812
101287.951
101288.111
101288.294
101288.505
101288.753
101289.046
101289.388
101289.785
101290.246
101290.783
101291.397
101292.11
101292.9
101293.823
101294.806
101295.866
101297.054
101298.4
101300.558
101302.778
101303.876
101304.945
101306.869
101309.152
101311.279
101312.432
101313.915
101315.62
101285.802
101285.799
101285.795
101285.792
101285.789
101285.788
101285.786
101285.786
101285.786
101285.787
101285.789
101285.793
101285.797
101285.803
101285.81
101285.818
101285.827
101285.838
101285.85
101285.863
101285.876
101285.891
101285.908
101285.927
101285.948
101285.971
101285.994
101286.018
101286.044
101286.072
101286.101
101286.132
101286.164
101286.196
101286.23
101286.264
101286.295
101286.335
101286.391
101286.434
101286.463
101286.507
101286.563
101286.619
101286.677
101286.74
101286.811
101286.893
101286.988
101287.096
101287.22
101287.363
101287.532
101287.733
101287.973
101288.258
101288.592
101288.98
101289.431
101289.953
101290.556
101291.26
101292.067
101293.006
101294.06
101295.272
101296.547
101297.979
101299.976
101301.616
101302.729
101304.017
101305.903
101307.923
101309.737
101311.368
101313.239
101315.181
101317.268
101319.242
101285.031
101285.027
101285.023
101285.02
101285.017
101285.016
101285.015
101285.015
101285.017
101285.019
101285.021
101285.025
101285.031
101285.038
101285.047
101285.057
101285.068
101285.081
101285.096
101285.113
101285.133
101285.155
101285.178
101285.202
101285.228
101285.255
101285.284
101285.314
101285.345
101285.378
101285.412
101285.448
101285.484
101285.517
101285.559
101285.614
101285.657
101285.688
101285.732
101285.786
101285.839
101285.893
101285.952
101286.018
101286.09
101286.171
101286.263
101286.367
101286.489
101286.633
101286.805
101287.009
101287.253
101287.544
101287.886
101288.286
101288.749
101289.282
101289.89
101290.578
101291.359
101292.226
101293.202
101294.186
101295.248
101296.853
101299.307
101300.948
101301.945
101303.566
101305.414
101307.095
101308.766
101310.695
101312.7
101314.465
101316.502
101318.524
101320.68
101323.028
101284.154
101284.15
101284.145
101284.142
101284.14
101284.138
101284.138
101284.139
101284.141
101284.144
101284.149
101284.155
101284.161
101284.17
101284.181
101284.194
101284.21
101284.227
101284.246
101284.266
101284.289
101284.314
101284.34
101284.369
101284.399
101284.431
101284.466
101284.502
101284.54
101284.578
101284.616
101284.66
101284.716
101284.762
101284.797
101284.844
101284.901
101284.956
101285.012
101285.072
101285.136
101285.206
101285.283
101285.368
101285.465
101285.576
101285.706
101285.859
101286.04
101286.256
101286.513
101286.82
101287.181
101287.605
101288.096
101288.663
101289.312
101290.041
101290.856
101291.738
101292.704
101293.69
101294.951
101296.904
101299.083
101300.405
101301.053
101302.142
101304.04
101305.987
101307.871
101309.924
101312.047
101313.766
101315.465
101317.47
101319.406
101321.433
101323.47
101325.373
101283.139
101283.135
101283.131
101283.128
101283.126
101283.125
101283.126
101283.128
101283.131
101283.136
101283.143
101283.152
101283.164
101283.176
101283.191
101283.207
101283.226
101283.246
101283.269
101283.295
101283.322
101283.352
101283.384
101283.418
101283.455
101283.494
101283.534
101283.573
101283.619
101283.676
101283.724
101283.765
101283.816
101283.875
101283.933
101283.993
101284.056
101284.123
101284.194
101284.272
101284.357
101284.452
101284.559
101284.682
101284.824
101284.989
101285.185
101285.416
101285.691
101286.018
101286.403
101286.854
101287.378
101287.984
101288.682
101289.481
101290.388
101291.409
101292.552
101293.83
101295.222
101296.946
101298.526
101299.473
101300.512
101302.1
101303.788
101305.64
101307.95
101309.982
101311.589
101313.146
101314.93
101316.725
101318.418
101320.228
101322.516
101324.566
101326.158
101328.002
101281.974
101281.971
101281.968
101281.966
101281.966
101281.967
101281.969
101281.974
101281.98
101281.988
101281.998
101282.01
101282.024
101282.041
101282.059
101282.08
101282.104
101282.13
101282.158
101282.189
101282.222
101282.259
101282.297
101282.338
101282.379
101282.426
101282.482
101282.533
101282.577
101282.632
101282.694
101282.755
101282.819
101282.886
101282.956
101283.031
101283.112
101283.2
101283.296
101283.403
101283.523
101283.659
101283.815
101283.997
101284.21
101284.46
101284.754
101285.1
101285.507
101285.979
101286.523
101287.147
101287.858
101288.661
101289.562
101290.565
101291.664
101292.866
101294.131
101295.504
101296.972
101298.342
101299.757
101301.439
101302.982
101304.497
101306.175
101308.002
101309.77
101311.416
101313.046
101314.607
101316.403
101318.578
101320.589
101322.311
101324.27
101326.555
101328.589
101330.678
101280.627
101280.626
101280.625
101280.626
101280.629
101280.633
101280.64
101280.648
101280.658
101280.67
101280.685
101280.702
101280.721
101280.743
101280.768
101280.795
101280.825
101280.858
101280.894
101280.933
101280.974
101281.016
101281.064
101281.12
101281.172
101281.221
101281.278
101281.343
101281.407
101281.474
101281.545
101281.62
101281.699
101281.784
101281.875
101281.974
101282.082
101282.202
101282.336
101282.488
101282.662
101282.863
101283.096
101283.367
101283.683
101284.051
101284.479
101284.974
101285.54
101286.181
101286.905
101287.714
101288.61
101289.593
101290.661
101291.806
101293.035
101294.287
101295.557
101297.048
101298.696
101300.122
101301.515
101303.066
101304.735
101306.594
101308.509
101310.495
101312.318
101313.828
101315.59
101317.441
101319.099
101320.831
101322.982
101325.153
101326.864
101328.647
101330.782
101332.686
101279.077
101279.079
101279.082
101279.087
101279.094
101279.103
101279.114
101279.128
101279.143
101279.162
101279.183
101279.207
101279.233
101279.263
101279.296
101279.331
101279.37
101279.412
101279.456
101279.505
101279.561
101279.616
101279.668
101279.729
101279.795
101279.864
101279.935
101280.009
101280.088
101280.172
101280.261
101280.356
101280.458
101280.569
101280.69
101280.825
101280.975
101281.144
101281.337
101281.559
101281.814
101282.11
101282.452
101282.847
101283.304
101283.828
101284.425
101285.1
101285.858
101286.701
101287.631
101288.648
101289.751
101290.934
101292.188
101293.521
101294.949
101296.428
101297.967
101299.464
101300.864
101302.662
101304.862
101306.524
101307.927
101309.324
101310.751
101312.26
101313.8
101315.593
101317.716
101319.726
101321.792
101323.871
101325.418
101327.083
101329.056
101330.768
101332.611
101334.662
101277.288
101277.294
101277.303
101277.314
101277.327
101277.342
101277.36
101277.381
101277.404
101277.431
101277.461
101277.494
101277.53
101277.569
101277.612
101277.658
101277.708
101277.765
101277.822
101277.879
101277.943
101278.013
101278.084
101278.16
101278.239
101278.322
101278.41
101278.503
101278.602
101278.708
101278.822
101278.945
101279.08
101279.229
101279.395
101279.582
101279.794
101280.036
101280.314
101280.633
101281
101281.423
101281.907
101282.46
101283.087
101283.794
101284.584
101285.46
101286.424
101287.476
101288.615
101289.837
101291.139
101292.515
101293.949
101295.452
101297.001
101298.538
101300.095
101301.832
101303.661
101305.07
101306.213
101307.426
101308.886
101310.593
101312.457
101314.413
101316.125
101317.99
101320.358
101322.521
101324.102
101325.216
101326.794
101329.065
101331.316
101333.642
101335.816
101337.798
101275.223
101275.236
101275.252
101275.27
101275.291
101275.315
101275.341
101275.371
101275.405
101275.442
101275.482
101275.526
101275.574
101275.626
101275.684
101275.743
101275.804
101275.871
101275.944
101276.019
101276.099
101276.182
101276.27
101276.363
101276.461
101276.564
101276.674
101276.791
101276.917
101277.054
101277.203
101277.367
101277.549
101277.754
101277.984
101278.246
101278.544
101278.885
101279.275
101279.721
101280.229
101280.805
101281.455
101282.184
101282.995
101283.889
101284.867
101285.926
101287.062
101288.267
101289.535
101290.86
101292.242
101293.685
101295.152
101296.626
101298.19
101299.84
101301.63
101302.851
101303.837
101305.413
101307.384
101309.209
101310.851
101312.509
101314.289
101316.169
101318.045
101319.997
101322.051
101324.293
101326.575
101328.209
101330.025
101332.554
101334.899
101337.058
101338.898
101340.891
101272.839
101272.86
101272.885
101272.913
101272.943
101272.977
101273.015
101273.057
101273.102
101273.151
101273.205
101273.263
101273.324
101273.39
101273.46
101273.536
101273.615
101273.698
101273.786
101273.879
101273.977
101274.08
101274.189
101274.304
101274.426
101274.556
101274.696
101274.847
101275.012
101275.194
101275.395
101275.619
101275.871
101276.155
101276.478
101276.844
101277.261
101277.733
101278.268
101278.871
101279.546
101280.299
101281.132
101282.048
101283.044
101284.117
101285.27
101286.504
101287.802
101289.154
101290.533
101291.897
101293.272
101294.884
101296.548
101298.099
101299.812
101301.656
101303.716
101305.482
101307.021
101308.745
101310.175
101311.529
101313.381
101315.031
101316.42
101318.199
101320.474
101322.389
101323.929
101326.131
101328.926
101331.012
101332.91
101335.265
101337.864
101339.882
101341.757
101344.059
101270.094
101270.125
101270.161
101270.201
101270.243
101270.29
101270.34
101270.396
101270.455
101270.518
101270.586
101270.66
101270.737
101270.82
101270.907
101270.999
101271.096
101271.199
101271.306
101271.42
101271.541
101271.668
101271.803
101271.948
101272.103
101272.272
101272.455
101272.656
101272.879
101273.127
101273.404
101273.717
101274.069
101274.468
101274.919
101275.427
101276
101276.641
101277.355
101278.146
101279.015
101279.961
101280.983
101282.076
101283.226
101284.403
101285.586
101286.902
101288.535
101290.396
101292.446
101294.667
101296.977
101298.685
101300.196
101301.66
101302.889
101304.217
101305.5
101307.065
101308.797
101310.119
101312.153
101314.36
101315.586
101317.298
101319.899
101321.477
101322.773
101324.902
101327.576
101329.772
101331.095
101333.167
101336.289
101338.761
101340.37
101342.307
101344.77
101346.152
101266.949
101266.992
101267.042
101267.095
101267.152
101267.212
101267.278
101267.348
101267.423
101267.502
101267.587
101267.677
101267.772
101267.872
101267.978
101268.089
101268.207
101268.331
101268.463
101268.602
101268.75
101268.909
101269.08
101269.265
101269.466
101269.688
101269.933
101270.205
101270.509
101270.851
101271.236
101271.67
101272.16
101272.71
101273.328
101274.019
101274.788
101275.639
101276.575
101277.597
101278.708
101279.907
101281.198
101282.583
101284.067
101285.651
101287.315
101289.351
101291.358
101292.918
101294.281
101295.624
101296.983
101298.419
101299.962
101301.597
101303.491
101305.273
101307.059
101308.839
101310.367
101311.881
101313.63
101315.728
101317.673
101319.702
101322.321
101325.243
101327.247
101329.165
101331.258
101332.736
101334.976
101337.334
101338.694
101340.27
101342.524
101344.638
101345.887
101347.142
101263.386
101263.442
101263.508
101263.576
101263.648
101263.724
101263.805
101263.892
101263.983
101264.08
101264.181
101264.289
101264.402
101264.522
101264.648
101264.781
101264.921
101265.071
101265.23
101265.401
101265.584
101265.784
101266.001
101266.24
101266.504
101266.797
101267.125
101267.493
101267.906
101268.371
101268.894
101269.482
101270.139
101270.873
101271.687
101272.586
101273.571
101274.645
101275.807
101277.054
101278.384
101279.791
101281.268
101282.806
101284.395
101286.036
101287.669
101289.088
101290.361
101291.876
101293.517
101295.228
101296.99
101298.821
101300.725
101302.654
101304.74
101306.848
101308.748
101310.693
101312.67
101314.382
101316.081
101318.092
101320.127
101322.154
101324.695
101326.949
101328.81
101331.259
101333.683
101335.527
101337.197
101338.942
101341.19
101343.731
101345.364
101346.913
101347.922
101350.169
101259.412
101259.483
101259.566
101259.651
101259.738
101259.831
101259.929
101260.031
101260.139
101260.253
101260.372
101260.498
101260.63
101260.77
101260.918
101261.074
101261.242
101261.421
101261.614
101261.824
101262.052
101262.303
101262.581
101262.889
101263.233
101263.618
101264.049
101264.533
101265.076
101265.683
101266.361
101267.113
101267.943
101268.855
101269.85
101270.929
101272.088
101273.327
101274.641
101276.026
101277.475
101278.981
101280.542
101282.152
101283.821
101285.541
101287.41
101289.151
101291.122
101293.35
101295.28
101297.159
101298.962
101300.879
101303.139
101305.556
101307.771
101309.722
101311.695
101313.277
101314.62
101316.121
101318.083
101320.671
101322.967
101324.736
101326.885
101329.423
101331.089
101332.669
101335.1
101337.627
101340.078
101342.139
101344.327
101346.659
101348.476
101350.425
101352.324
101355.129
101255.086
101255.173
101255.274
101255.375
101255.479
101255.588
101255.703
101255.822
101255.947
101256.079
101256.217
101256.363
101256.517
101256.681
101256.855
101257.043
101257.245
101257.465
101257.705
101257.969
101258.261
101258.586
101258.949
101259.355
101259.81
101260.32
101260.892
101261.532
101262.245
101263.036
101263.909
101264.867
101265.913
101267.046
101268.267
101269.573
101270.963
101272.434
101273.983
101275.609
101277.301
101279.059
101280.869
101282.64
101284.28
101286.079
101288.549
101291.468
101293.813
101295.647
101297.463
101299.334
101301.759
101304.639
101306.522
101307.95
101309.424
101310.775
101312.047
101314.196
101316.594
101318.225
101320.427
101322.996
101325.667
101328.305
101329.994
101331.236
101333.16
101336.289
101338.536
101340.281
101342.222
101344.793
101347.434
101349.511
101351.416
101353.184
101355.597
101358.086
101250.521
101250.623
101250.742
101250.86
101250.981
101251.107
101251.238
101251.376
101251.52
101251.672
101251.832
101252.003
101252.186
101252.382
101252.594
101252.825
101253.078
101253.357
101253.667
101254.012
101254.397
101254.83
101255.314
101255.858
101256.467
101257.148
101257.906
101258.746
101259.671
101260.685
101261.788
101262.979
101264.255
101265.614
101267.047
101268.545
101270.097
101271.686
101273.322
101274.967
101276.912
101279.348
101281.931
101284.587
101287.321
101290.085
101292.35
101293.696
101294.818
101296.596
101298.924
101301.184
101303.161
101304.692
101306.624
101309.27
101311.849
101314.349
101316.449
101317.875
101319.817
101322.63
101324.388
101325.801
101328.061
101330.301
101332.631
101334.998
101336.442
101337.746
101340.623
101343.738
101345.868
101347.496
101348.979
101351.168
101353.751
101356.073
101358.414
101360.443
101297.774
101297.776
101297.776
101297.775
101297.772
101297.768
101297.762
101297.754
101297.745
101297.734
101297.721
101297.706
101297.689
101297.671
101297.65
101297.627
101297.601
101297.574
101297.543
101297.511
101297.475
101297.437
101297.396
101297.352
101297.305
101297.255
101297.201
101297.144
101297.083
101297.018
101296.95
101296.877
101296.801
101296.72
101296.634
101296.543
101296.448
101296.348
101296.243
101296.132
101296.017
101295.895
101295.768
101295.635
101295.496
101295.35
101295.197
101295.038
101294.871
101294.695
101294.511
101294.316
101294.108
101293.884
101293.64
101293.37
101293.068
101292.726
101292.335
101291.879
101291.346
101290.717
101289.977
101289.11
101288.103
101286.947
101285.634
101284.154
101282.493
101280.642
101278.606
101276.411
101274.056
101271.583
101268.267
101264.438
101261.294
101257.171
101251.899
101247.908
101295.108
101295.109
101295.11
101295.109
101295.106
101295.101
101295.094
101295.085
101295.073
101295.06
101295.044
101295.026
101295.006
101294.983
101294.957
101294.929
101294.898
101294.864
101294.827
101294.787
101294.744
101294.697
101294.647
101294.593
101294.535
101294.473
101294.407
101294.336
101294.261
101294.181
101294.096
101294.006
101293.911
101293.81
101293.703
101293.59
101293.471
101293.345
101293.213
101293.073
101292.927
101292.772
101292.609
101292.438
101292.258
101292.069
101291.87
101291.66
101291.439
101291.205
101290.957
101290.693
101290.407
101290.098
101289.76
101289.387
101288.973
101288.508
101287.981
101287.376
101286.679
101285.873
101284.943
101283.876
101282.663
101281.296
101279.762
101278.038
101276.099
101273.921
101271.495
101268.797
101265.783
101262.475
101258.816
101254.781
101250.715
101246.022
101240.038
101234.282
101292.688
101292.691
101292.692
101292.691
101292.688
101292.683
101292.675
101292.664
101292.652
101292.637
101292.619
101292.598
101292.575
101292.548
101292.519
101292.487
101292.451
101292.412
101292.369
101292.323
101292.273
101292.219
101292.161
101292.099
101292.032
101291.96
101291.884
101291.802
101291.715
101291.623
101291.524
101291.42
101291.309
101291.192
101291.067
101290.936
101290.797
101290.65
101290.496
101290.332
101290.16
101289.979
101289.788
101289.586
101289.374
101289.151
101288.915
101288.667
101288.404
101288.126
101287.829
101287.51
101287.166
101286.793
101286.386
101285.938
101285.441
101284.884
101284.256
101283.541
101282.722
101281.78
101280.698
101279.461
101278.061
101276.495
101274.751
101272.804
101270.596
101268.045
101265.063
101261.768
101258.17
101254.252
101250.106
101245.782
101241.06
101235.09
101228.695
101222.778
101290.556
101290.559
101290.562
101290.561
101290.558
101290.553
101290.545
101290.534
101290.52
101290.504
101290.485
101290.463
101290.437
101290.409
101290.377
101290.341
101290.302
101290.26
101290.213
101290.163
101290.108
101290.048
101289.985
101289.916
101289.842
101289.763
101289.679
101289.589
101289.493
101289.391
101289.282
101289.166
101289.043
101288.912
101288.774
101288.628
101288.473
101288.308
101288.134
101287.95
101287.756
101287.55
101287.333
101287.104
101286.861
101286.604
101286.333
101286.045
101285.74
101285.415
101285.066
101284.69
101284.285
101283.845
101283.365
101282.837
101282.253
101281.601
101280.868
101280.038
101279.096
101278.026
101276.811
101275.435
101273.886
101272.148
101270.204
101268.034
101265.835
101263.587
101260.784
101257.13
101252.611
101247.286
101242.421
101237.804
101232.485
101226.999
101220.961
101213.949
101288.747
101288.752
101288.755
101288.755
101288.753
101288.748
101288.74
101288.729
101288.715
101288.699
101288.679
101288.656
101288.63
101288.6
101288.567
101288.53
101288.49
101288.445
101288.397
101288.344
101288.287
101288.225
101288.158
101288.086
101288.009
101287.926
101287.838
101287.744
101287.643
101287.536
101287.422
101287.3
101287.172
101287.035
101286.89
101286.737
101286.574
101286.402
101286.221
101286.029
101285.824
101285.609
101285.382
101285.141
101284.887
101284.617
101284.331
101284.029
101283.707
101283.362
101282.992
101282.592
101282.16
101281.691
101281.179
101280.617
101279.998
101279.312
101278.547
101277.687
101276.713
101275.602
101274.326
101272.857
101271.172
101269.244
101267.036
101264.924
101262.791
101259.615
101256.061
101252.781
101249.514
101246.042
101241.299
101234.151
101226.81
101220.376
101214.348
101207.401
101287.277
101287.282
101287.286
101287.287
101287.286
101287.281
101287.274
101287.264
101287.251
101287.234
101287.215
101287.192
101287.166
101287.137
101287.104
101287.067
101287.026
101286.982
101286.933
101286.88
101286.822
101286.759
101286.692
101286.619
101286.541
101286.458
101286.368
101286.273
101286.171
101286.062
101285.946
101285.823
101285.692
101285.553
101285.406
101285.249
101285.083
101284.908
101284.722
101284.526
101284.318
101284.098
101283.865
101283.618
101283.354
101283.078
101282.788
101282.48
101282.151
101281.8
101281.422
101281.015
101280.575
101280.097
101279.573
101278.994
101278.347
101277.617
101276.784
101275.83
101274.743
101273.592
101272.388
101271.06
101269.599
101268.03
101266.422
101264.349
101261.551
101258.698
101255.246
101250.627
101245.152
101240.026
101235.546
101231.247
101225.975
101217.42
101209.002
101201.004
101286.157
101286.163
101286.168
101286.17
101286.169
101286.165
101286.159
101286.15
101286.138
101286.123
101286.105
101286.083
101286.059
101286.031
101285.999
101285.964
101285.925
101285.882
101285.835
101285.784
101285.728
101285.668
101285.603
101285.533
101285.458
101285.377
101285.291
101285.199
101285.101
101284.996
101284.885
101284.767
101284.641
101284.508
101284.367
101284.217
101284.059
101283.892
101283.715
101283.527
101283.329
101283.12
101282.898
101282.664
101282.414
101282.151
101281.872
101281.574
101281.253
101280.907
101280.534
101280.135
101279.706
101279.247
101278.754
101278.227
101277.667
101277.079
101276.428
101275.679
101274.821
101273.763
101272.456
101270.964
101269.263
101267.288
101264.926
101262.659
101260.326
101257.558
101254.473
101250.841
101246.709
101241.627
101235.353
101227.981
101221.216
101215.4
101208.216
101199.583
101285.373
101285.379
101285.385
101285.387
101285.388
101285.385
101285.38
101285.372
101285.362
101285.348
101285.332
101285.312
101285.289
101285.263
101285.234
101285.202
101285.165
101285.125
101285.081
101285.034
101284.982
101284.925
101284.865
101284.799
101284.729
101284.653
101284.573
101284.487
101284.395
101284.297
101284.193
101284.082
101283.965
101283.841
101283.709
101283.57
101283.423
101283.268
101283.105
101282.933
101282.751
101282.56
101282.36
101282.15
101281.929
101281.698
101281.456
101281.2
101280.929
101280.639
101280.327
101279.994
101279.633
101279.239
101278.804
101278.318
101277.764
101277.122
101276.423
101275.678
101274.854
101273.915
101272.829
101271.586
101270.17
101268.568
101266.773
101264.544
101261.774
101258.728
101255.575
101252.202
101248.281
101243.733
101238.544
101232.843
101226.096
101218.038
101208.749
101200.161
101284.911
101284.917
101284.923
101284.927
101284.927
101284.926
101284.922
101284.916
101284.907
101284.895
101284.881
101284.864
101284.844
101284.821
101284.795
101284.765
101284.733
101284.697
101284.658
101284.615
101284.569
101284.518
101284.464
101284.405
101284.343
101284.275
101284.203
101284.127
101284.045
101283.958
101283.866
101283.768
101283.664
101283.555
101283.439
101283.317
101283.188
101283.053
101282.911
101282.761
101282.604
101282.439
101282.265
101282.083
101281.892
101281.692
101281.481
101281.26
101281.026
101280.778
101280.512
101280.228
101279.921
101279.588
101279.227
101278.831
101278.393
101277.906
101277.36
101276.748
101276.058
101275.268
101274.354
101273.296
101272.076
101270.674
101269.065
101267.23
101265.072
101262.535
101259.684
101256.473
101252.75
101248.447
101243.534
101237.863
101231.642
101224.187
101216.314
101209.077
101284.734
101284.74
101284.746
101284.75
101284.751
101284.75
101284.747
101284.742
101284.735
101284.725
101284.713
101284.698
101284.681
101284.661
101284.639
101284.614
101284.586
101284.555
101284.521
101284.484
101284.443
101284.4
101284.352
101284.302
101284.247
101284.189
101284.127
101284.061
101283.99
101283.916
101283.836
101283.753
101283.664
101283.571
101283.473
101283.37
101283.262
101283.148
101283.03
101282.906
101282.776
101282.641
101282.501
101282.355
101282.203
101282.045
101281.881
101281.71
101281.532
101281.346
101281.151
101280.943
101280.722
101280.484
101280.227
101279.945
101279.633
101279.285
101278.891
101278.441
101277.924
101277.324
101276.621
101275.795
101274.825
101273.688
101272.361
101270.819
101269.033
101266.959
101264.568
101261.797
101258.568
101254.805
101250.42
101245.307
101239.628
101233.555
101226.789
101219.5
101284.808
101284.814
101284.819
101284.822
101284.823
101284.823
101284.821
101284.817
101284.81
101284.802
101284.792
101284.78
101284.766
101284.749
101284.731
101284.71
101284.686
101284.66
101284.632
101284.601
101284.567
101284.531
101284.492
101284.45
101284.405
101284.358
101284.307
101284.253
101284.196
101284.135
101284.071
101284.004
101283.934
101283.86
101283.783
101283.702
101283.619
101283.531
101283.441
101283.348
101283.252
101283.153
101283.051
101282.947
101282.84
101282.731
101282.62
101282.507
101282.392
101282.274
101282.153
101282.028
101281.896
101281.757
101281.607
101281.444
101281.264
101281.059
101280.825
101280.551
101280.227
101279.841
101279.375
101278.813
101278.134
101277.316
101276.336
101275.169
101273.786
101272.153
101270.232
101267.968
101265.283
101262.113
101258.343
101253.942
101248.71
101242.665
101235.077
101228.334
101285.081
101285.085
101285.089
101285.091
101285.092
101285.091
101285.089
101285.086
101285.08
101285.074
101285.065
101285.055
101285.043
101285.03
101285.015
101284.998
101284.979
101284.958
101284.936
101284.911
101284.885
101284.856
101284.826
101284.793
101284.758
101284.721
101284.682
101284.64
101284.597
101284.551
101284.503
101284.453
101284.401
101284.348
101284.292
101284.235
101284.176
101284.115
101284.054
101283.992
101283.929
101283.866
101283.803
101283.742
101283.681
101283.622
101283.566
101283.512
101283.461
101283.414
101283.37
101283.33
101283.292
101283.255
101283.218
101283.179
101283.135
101283.081
101283.012
101282.92
101282.798
101282.634
101282.414
101282.122
101281.742
101281.252
101280.629
101279.85
101278.887
101277.71
101276.286
101274.571
101272.511
101270.062
101267.141
101263.68
101259.585
101254.849
101249.116
101242.268
101285.508
101285.51
101285.512
101285.512
101285.512
101285.51
101285.508
101285.504
101285.5
101285.494
101285.487
101285.478
101285.469
101285.458
101285.446
101285.433
101285.418
101285.402
101285.385
101285.367
101285.347
101285.326
101285.304
101285.28
101285.255
101285.229
101285.202
101285.173
101285.143
101285.112
101285.08
101285.047
101285.013
101284.978
101284.943
101284.907
101284.87
101284.833
101284.799
101284.77
101284.742
101284.716
101284.693
101284.674
101284.658
101284.648
101284.645
101284.648
101284.659
101284.679
101284.708
101284.747
101284.797
101284.856
101284.924
101285
101285.082
101285.167
101285.25
101285.327
101285.389
101285.428
101285.433
101285.39
101285.282
101285.091
101284.796
101284.373
101283.796
101283.036
101282.069
101280.868
101279.396
101277.613
101275.467
101272.912
101269.918
101266.351
101262.393
101257.496
101286.027
101286.026
101286.025
101286.023
101286.021
101286.018
101286.015
101286.011
101286.006
101286
101285.993
101285.986
101285.978
101285.97
101285.96
101285.95
101285.939
101285.928
101285.915
101285.902
101285.889
101285.875
101285.86
101285.845
101285.829
101285.812
101285.796
101285.779
101285.761
101285.745
101285.728
101285.712
101285.697
101285.684
101285.672
101285.663
101285.654
101285.647
101285.639
101285.631
101285.627
101285.625
101285.628
101285.643
101285.673
101285.71
101285.756
101285.811
101285.877
101285.956