/*--------------------------------*- C++ -*----------------------------------*\
  =========                 |
  \\      /  F ield         | OpenFOAM: The Open Source CFD Toolbox
   \\    /   O peration     | Website:  https://openfoam.org
    \\  /    A nd           | Version:  8
     \\/     M anipulation  |
\*---------------------------------------------------------------------------*/
FoamFile
{
    version     2.0;
    format      ascii;
    class       surfaceScalarField;
    location    "0.014";
    object      phi;
}
// * * * * * * * * * * * * * * * * * * * * * * * * * * * * * * * * * * * * * //

dimensions      [1 0 -1 0 0 0 0];

internalField   nonuniform List<scalar> 
84340
(
-5.3607031e-08
3.1620858e-07
-2.62812337e-07
-2.12948418e-07
9.6660786e-07
-8.07607218e-07
-4.81516764e-07
1.65782268e-06
-1.38967495e-06
-8.64584188e-07
2.39295045e-06
-2.01037268e-06
-1.36857149e-06
3.17414925e-06
-2.67071263e-06
-2.00066834e-06
4.00250538e-06
-3.37101599e-06
-2.76836326e-06
4.87842053e-06
-4.11138855e-06
-3.67910361e-06
5.80202752e-06
-4.8920066e-06
-4.74002065e-06
6.77330834e-06
-5.71316967e-06
-5.95771508e-06
7.79208546e-06
-6.57523191e-06
-7.33809647e-06
8.8579918e-06
-7.47851803e-06
-8.88626547e-06
9.97044937e-06
-8.42325959e-06
-1.0606426e-05
1.11286656e-05
-9.40956111e-06
-1.25018142e-05
1.23316419e-05
-1.0437392e-05
-1.4574623e-05
1.35781788e-05
-1.15065965e-05
-1.68259327e-05
1.48668949e-05
-1.2616906e-05
-1.92556107e-05
1.61962261e-05
-1.37679697e-05
-2.18622049e-05
1.75644267e-05
-1.49593614e-05
-2.46428031e-05
1.89695623e-05
-1.6190607e-05
-2.75928702e-05
2.04094889e-05
-1.74611858e-05
-3.07060558e-05
2.18818255e-05
-1.87705321e-05
-3.39739718e-05
2.33839167e-05
-2.01180285e-05
-3.73859323e-05
2.49127788e-05
-2.15029889e-05
-4.09286708e-05
2.64650443e-05
-2.29246273e-05
-4.45860019e-05
2.80368772e-05
-2.43820257e-05
-4.83384479e-05
2.9623879e-05
-2.58740787e-05
-5.21628048e-05
3.12209522e-05
-2.73994146e-05
-5.60316239e-05
3.28221339e-05
-2.89563159e-05
-5.99126537e-05
3.44204318e-05
-3.05425919e-05
-6.37683762e-05
3.60077595e-05
-3.21554229e-05
-6.75557883e-05
3.75749474e-05
-3.37911228e-05
-7.12253091e-05
3.91105595e-05
-3.54448399e-05
-7.47205936e-05
4.06017296e-05
-3.71104749e-05
-7.79732259e-05
4.20291853e-05
-3.87808156e-05
-8.0908226e-05
4.33779948e-05
-4.04474445e-05
-8.34452879e-05
4.46290957e-05
-4.20966647e-05
-8.55037362e-05
4.57689477e-05
-4.37153961e-05
-8.69851783e-05
4.67508303e-05
-4.52745769e-05
-8.77489749e-05
4.75221775e-05
-4.67638275e-05
-8.76043616e-05
4.80182127e-05
-4.81685336e-05
-8.63483798e-05
4.81819936e-05
-4.94439486e-05
-8.37698214e-05
4.79456696e-05
-5.05304918e-05
-7.96410588e-05
4.72204551e-05
-5.13558067e-05
-7.36967437e-05
4.59079515e-05
-5.18591826e-05
-6.56502458e-05
4.39044136e-05
-5.19581462e-05
-5.51703507e-05
4.10708893e-05
-5.15583489e-05
-4.18721623e-05
3.72323767e-05
-5.05384878e-05
-2.53898762e-05
3.22771019e-05
-4.87676807e-05
-5.23290751e-06
2.59500531e-05
-4.61156819e-05
1.88703855e-05
1.83013142e-05
-4.24136872e-05
4.78893508e-05
8.50275013e-06
-3.75311744e-05
8.26805096e-05
-3.6172375e-06
-3.11837168e-05
0.00012419043
-1.81888643e-05
-2.33314287e-05
0.000173519343
-3.60880158e-05
-1.32519163e-05
0.000231910977
-5.76808328e-05
-7.22456444e-07
0.000300625419
-8.342601e-05
1.46992985e-05
0.000381433697
-0.000113983396
3.31620785e-05
0.000475649291
-0.000150105438
5.58760025e-05
0.000585061112
-0.000192588214
8.31615646e-05
0.000711643999
-0.00024221591
0.000115617114
0.000857370539
-0.000299811578
0.000154067896
0.00102420833
-0.000366175883
0.00019931979
0.00121412183
-0.000442198098
0.000252264634
0.00142884435
-0.000528518737
0.000313775118
0.0016700554
-0.00062598669
0.000384754351
0.00193845604
-0.000734024613
0.00046560304
0.00223260072
-0.000851741154
0.0005575755
0.00255859764
-0.000991567589
0.00066554971
0.00292139363
-0.00113946736
0.000776649889
0.00329365594
-0.00127413125
0.000901846883
0.00368563692
-0.00147642561
0.00108442143
0.00418969235
-0.00168763353
0.00118355324
0.00467960026
-0.00175162679
0.001261692
0.00497467629
-0.00195049248
0.00165538747
0.00536452879
-0.0023627169
0.00197283247
0.00602355166
-0.00259350866
0.00193444681
0.00664215749
-0.00263163392
0.00201298962
0.00696521004
-0.00271700169
0.00239391298
0.00709889922
-0.00298213517
0.00284839552
-0.00319098575
0.00302531566
0.00726453156
-4.17528254e-08
3.5760761e-07
-1.6510398e-07
1.08945465e-06
-3.72377212e-07
1.86451335e-06
-6.6750729e-07
2.68742594e-06
-1.05545788e-06
3.56137763e-06
-1.5417078e-06
4.48796728e-06
-2.13203823e-06
5.46789665e-06
-2.83215136e-06
6.50121778e-06
-3.64740611e-06
7.58756823e-06
-4.5826002e-06
8.72620833e-06
-5.64179387e-06
9.91603296e-06
-6.82817048e-06
1.11555867e-05
-8.14391954e-06
1.24430828e-05
-9.59012958e-06
1.37764211e-05
-1.11666889e-05
1.51532021e-05
-1.28721625e-05
1.65707202e-05
-1.47036637e-05
1.80259597e-05
-1.66566978e-05
1.95155663e-05
-1.87249731e-05
2.10358088e-05
-2.09001878e-05
2.2582532e-05
-2.3171778e-05
2.41510934e-05
-2.55266242e-05
2.57362807e-05
-2.79487227e-05
2.73322265e-05
-3.04187908e-05
2.89322832e-05
-3.29138031e-05
3.05288728e-05
-3.54064902e-05
3.21133511e-05
-3.78647967e-05
3.36758356e-05
-4.02512991e-05
3.52049925e-05
-4.25221564e-05
3.66874131e-05
-4.46272133e-05
3.81087128e-05
-4.65096543e-05
3.94530487e-05
-4.81061672e-05
4.07024686e-05
-4.93493668e-05
4.18400524e-05
-5.0170026e-05
4.28446866e-05
-5.04646928e-05
4.36672133e-05
-5.01098602e-05
4.42685002e-05
-4.89390574e-05
4.45920629e-05
-4.67768976e-05
4.45822596e-05
-4.34356695e-05
4.4174165e-05
-3.87141952e-05
4.32895613e-05
-3.23906588e-05
4.18509073e-05
-2.42076323e-05
3.97547058e-05
-1.38793338e-05
3.68838243e-05
-1.05218579e-06
3.30720737e-05
1.46432426e-05
2.81998608e-05
3.34366215e-05
2.22679625e-05
5.59662989e-05
1.46926855e-05
8.28820402e-05
5.35105189e-06
0.000114890819
-6.0692691e-06
0.000152850366
-1.96692995e-05
0.000197843307
-3.65018678e-05
0.000250885496
-5.66715629e-05
0.000313323272
-8.06392701e-05
0.000386255553
-0.000109033399
0.000471081887
-0.000142520812
0.000569446926
-0.000181805228
0.000683079557
-0.000227630881
0.000813724067
-0.000280765322
0.000963192133
-0.000342072249
0.00113319326
-0.000412233613
0.00132545176
-0.000492087635
0.00154156779
-0.000582309657
0.00178271841
-0.000683365887
0.00204978327
-0.000795599891
0.00234355304
-0.000919772463
0.0026648452
-0.00105533254
0.00300889116
-0.00119580324
0.00337191337
-0.0013546063
0.00376983854
-0.00153741
0.00419452085
-0.00169883201
0.00458366315
-0.00186558808
0.00500467865
-0.00210867076
0.00554335132
-0.0022903233
0.005980888
-0.00238805409
0.00621471659
-0.00259657375
0.0064485622
-0.0028273925
0.00678101047
-0.00296411969
0.0071397816
-0.00307580765
0.00732935961
-0.00317175331
-0.00328964681
0.00742798927
-3.080625e-08
3.88086118e-07
-1.21141726e-07
1.17932359e-06
-2.7220281e-07
2.01503639e-06
-4.86485118e-07
2.90110429e-06
-7.67376013e-07
3.84160228e-06
-1.11865581e-06
4.83851983e-06
-1.5440853e-06
5.8925371e-06
-2.04714838e-06
7.00342743e-06
-2.6309915e-06
8.17048987e-06
-3.29808703e-06
9.39230972e-06
-4.05005385e-06
1.06669279e-05
-4.88750189e-06
1.19918793e-05
-5.80989674e-06
1.33642328e-05
-6.81542925e-06
1.47806129e-05
-7.90087778e-06
1.62372075e-05
-9.06146156e-06
1.77297514e-05
-1.02906621e-05
1.92534914e-05
-1.15800279e-05
2.08031391e-05
-1.2918935e-05
2.23727916e-05
-1.42942993e-05
2.39558327e-05
-1.56902076e-05
2.55447911e-05
-1.7087472e-05
2.71311789e-05
-1.84631541e-05
2.87053798e-05
-1.97901178e-05
3.0256547e-05
-2.10367745e-05
3.17726501e-05
-2.21670476e-05
3.32405521e-05
-2.31399038e-05
3.46454207e-05
-2.39097355e-05
3.59713674e-05
-2.44262986e-05
3.72003261e-05
-2.46318239e-05
3.83103564e-05
-2.44500571e-05
3.92671644e-05
-2.37906168e-05
4.00386926e-05
-2.2541621e-05
4.05864785e-05
-2.05674102e-05
4.08656325e-05
-1.77248109e-05
4.08195186e-05
-1.38486775e-05
4.0386984e-05
-8.75737986e-06
3.94950856e-05
-2.25672343e-06
3.80756347e-05
5.87679879e-06
3.60343813e-05
1.5895543e-05
3.32642522e-05
2.81208227e-05
2.96187607e-05
4.28873417e-05
2.49809984e-05
6.03984505e-05
1.93651885e-05
8.1250415e-05
1.22123374e-05
0.000106012311
3.42995675e-06
0.000135347676
-7.07582545e-06
0.000170022111
-1.99906104e-05
0.000210920207
-3.55562728e-05
0.000258995556
-5.41542454e-05
0.000315554116
-7.62378754e-05
0.000381426054
-0.000102384238
0.000457914147
-0.000133170487
0.000546494217
-0.00016923062
0.000648686829
-0.000211237724
0.000766097357
-0.000259943463
0.000900350254
-0.000316070501
0.00105303445
-0.000380327801
0.00122568954
-0.000453433459
0.00141972674
-0.000536123071
0.00163650627
-0.000629026628
0.00187704253
-0.000732636697
0.0021419965
-0.000847275664
0.00243142858
-0.000972809737
0.00274452612
-0.00110870899
0.00307953139
-0.0012547896
0.0034359472
-0.00141176055
0.00381149841
-0.00157136751
0.0041911594
-0.00173428115
0.00457149344
-0.00191775922
0.00498069298
-0.00210804813
0.00537934675
-0.00226425994
0.00570382647
-0.00243316981
0.00602682458
-0.00261334438
0.00637622619
-0.00273748217
0.00660732243
-0.00282770104
0.00672919829
-0.00294929936
0.0068417814
-0.00307673747
0.00696018908
-0.00319425103
0.00710121872
-0.00331282081
-0.00340863345
0.00722016725
-2.40004038e-08
4.11669116e-07
-9.34767924e-08
1.24820554e-06
-2.08550804e-07
2.12942478e-06
-3.70305743e-07
3.06209022e-06
-5.80337799e-07
4.05078737e-06
-8.40510839e-07
5.09777036e-06
-1.15249679e-06
6.20352452e-06
-1.51762516e-06
7.36747887e-06
-1.93638017e-06
8.58808619e-06
-2.40825621e-06
9.86294063e-06
-2.93183084e-06
1.11891657e-05
-3.50449414e-06
1.25631084e-05
-4.12224342e-06
1.39804442e-05
-4.77952476e-06
1.54362462e-05
-5.46906401e-06
1.69249816e-05
-6.18166739e-06
1.84404654e-05
-6.90598687e-06
1.99757898e-05
-7.62821642e-06
2.1523208e-05
-8.33175759e-06
2.30740251e-05
-8.99694675e-06
2.46185586e-05
-9.60107762e-06
2.61462931e-05
-1.01180846e-05
2.76453811e-05
-1.05183619e-05
2.91026742e-05
-1.07683943e-05
3.05034089e-05
-1.08265746e-05
3.18274609e-05
-1.06441609e-05
3.30545582e-05
-1.01641198e-05
3.41615758e-05
-9.31916789e-06
3.51223838e-05
-8.02861353e-06
3.59054938e-05
-6.19729887e-06
3.64744953e-05
-3.72062094e-06
3.67856745e-05
-4.7628858e-07
3.67892681e-05
3.67811224e-06
3.64266713e-05
8.90895658e-06
3.56290483e-05
1.53876798e-05
3.4334726e-05
2.33119829e-05
3.24562664e-05
3.29061662e-05
2.98941314e-05
4.44565359e-05
2.65181284e-05
5.82672612e-05
2.22161299e-05
7.45325322e-05
1.69910372e-05
9.37934584e-05
1.0349583e-05
0.000116559459
2.20644635e-06
0.000143419888
-7.50428525e-06
0.00017504759
-1.94249427e-05
0.000212222658
-3.37551591e-05
0.000255974367
-5.08380501e-05
0.000307083621
-7.1110848e-05
0.000366572808
-9.5056912e-05
0.000435610146
-0.000123203504
0.000515493064
-0.000156133183
0.000607575076
-0.000194479132
0.000713303638
-0.0002389123
0.000834152552
-0.000290093054
0.000971617301
-0.000348716158
0.00112712647
-0.00041546649
0.00130203708
-0.000490995134
0.00149759756
-0.000575902627
0.00171475753
-0.000670607244
0.00195404256
-0.000775420761
0.00221550183
-0.000890497446
0.00249863862
-0.00101578434
0.00280226656
-0.00115091387
0.00312450572
-0.00129505906
0.0034624234
-0.00144663679
0.00381121502
-0.0016035918
0.00416534397
-0.00176590053
0.00452450838
-0.00193054388
0.00488019169
-0.00208997733
0.00520973375
-0.00224731534
0.00550949075
-0.00240782008
0.00579146055
-0.00254624716
0.00601702178
-0.00265875581
0.00617030833
-0.00276665873
0.00631087243
-0.00287806981
0.0064662651
-0.0029831195
0.00660417787
-0.00308723913
0.00671459923
-0.00318719298
0.00680588949
-0.00328558494
0.00688769538
-0.00339466536
-0.00350385807
0.00698289154
-2.20050424e-08
4.33291434e-07
-8.48018287e-08
1.31045696e-06
-1.87452014e-07
2.23144569e-06
-3.29648014e-07
3.20357987e-06
-5.1120779e-07
4.2315685e-06
-7.3174284e-07
5.31745619e-06
-9.90521997e-07
6.46138286e-06
-1.2861511e-06
7.6621128e-06
-1.61616132e-06
8.91702255e-06
-1.97700778e-06
1.02226292e-05
-2.36353754e-06
1.15744481e-05
-2.76886554e-06
1.29670932e-05
-3.18444181e-06
1.43945749e-05
-3.59988379e-06
1.5850133e-05
-4.00262995e-06
1.73260559e-05
-4.37767927e-06
1.88137187e-05
-4.70733139e-06
2.03035131e-05
-4.97122587e-06
2.17850318e-05
-5.14502572e-06
2.3245609e-05
-5.20031558e-06
2.46714794e-05
-5.10413032e-06
2.6047574e-05
-4.81828336e-06
2.73568271e-05
-4.29822016e-06
2.85797231e-05
-3.491977e-06
2.96940875e-05
-2.34181485e-06
3.06740197e-05
-7.79568354e-07
3.14888215e-05
1.27499529e-06
3.21033055e-05
3.91669338e-06
3.24767478e-05
7.25606402e-06
3.25619353e-05
1.14190525e-05
3.23070601e-05
1.65425324e-05
3.16574873e-05
2.27842068e-05
3.05426118e-05
3.03231942e-05
2.88824191e-05
3.93618749e-05
2.65848071e-05
5.01573383e-05
2.35334033e-05
6.29862038e-05
1.96212189e-05
7.80421296e-05
1.48316813e-05
9.58053659e-05
8.74810467e-06
0.000116730961
1.28349611e-06
0.000141340094
-7.62554604e-06
0.000170229528
-1.85477442e-05
0.000204088681
-3.16610006e-05
0.000243851781
-4.72760842e-05
0.000290204693
-6.57869695e-05
0.000344063596
-8.76236031e-05
0.000406477351
-0.000113261782
0.000478587108
-0.000143231034
0.000561617665
-0.000178098372
0.00065686304
-0.000218460197
0.000765669892
-0.000264951671
0.000889399456
-0.000318220613
0.00102939414
-0.000378919118
0.00118696428
-0.00044767553
0.00136328318
-0.000525047614
0.00155931917
-0.000611515334
0.00177568628
-0.000707374689
0.00201250429
-0.000812732059
0.00226931031
-0.000927423691
0.0025449371
-0.00105105726
0.00283738361
-0.00118295302
0.00314402221
-0.00132243173
0.00346112272
-0.00146802294
0.00378460729
-0.00161855234
0.00410902485
-0.00177106325
0.00442859921
-0.00192317565
0.00473541161
-0.00207272291
0.0050238876
-0.00221903054
0.00528896026
-0.00235506166
0.00551668284
-0.00247505182
0.00569184265
-0.0025829972
0.00583205714
-0.00268648038
0.00595964519
-0.00278636388
0.0060779886
-0.00288502479
0.0061818704
-0.00298197321
0.00627543587
-0.00307671279
0.0063722819
-0.00318412156
0.00647911984
-0.00329406812
0.00658875771
-0.00339525076
0.00668570002
-0.00349164106
-0.00359684028
0.00677864688
-2.3469073e-08
4.56276621e-07
-8.98211633e-08
1.37612259e-06
-1.97057313e-07
2.33789224e-06
-3.43333606e-07
3.34897227e-06
-5.26492174e-07
4.41375524e-06
-7.43728364e-07
5.53363545e-06
-9.91304922e-07
6.70781739e-06
-1.26427425e-06
7.93385273e-06
-1.55647488e-06
9.20790212e-06
-1.86014721e-06
1.05248837e-05
-2.16547413e-06
1.18782546e-05
-2.4606456e-06
1.32606346e-05
-2.73147415e-06
1.46636572e-05
-2.96108058e-06
1.60778696e-05
-3.1296315e-06
1.74926065e-05
-3.21404948e-06
1.88960016e-05
-3.18748777e-06
2.02746697e-05
-3.01893542e-06
2.16140395e-05
-2.67326622e-06
2.28973404e-05
-2.11012264e-06
2.41055686e-05
-1.28263874e-06
2.52171435e-05
-1.35852161e-07
2.62069056e-05
1.39449621e-06
2.7046035e-05
3.38389802e-06
2.7701127e-05
5.91651925e-06
2.81376142e-05
9.08785809e-06
2.83134611e-05
1.30069627e-05
2.81799303e-05
1.77983674e-05
2.76808082e-05
2.36041785e-05
2.67513128e-05
3.05886005e-05
2.53175355e-05
3.89462664e-05
2.32944141e-05
4.89061593e-05
2.05769943e-05
6.07192549e-05
1.70632571e-05
7.45778099e-05
1.27198153e-05
9.0903397e-05
7.20107852e-06
0.000110101884
4.15692409e-07
0.000132633434
-7.70735427e-06
0.000159026637
-1.7653072e-05
0.000189890528
-2.95888207e-05
0.000226049973
-4.3793889e-05
0.000268114184
-6.06213377e-05
0.000316898758
-8.04554636e-05
0.000373335294
-0.000103723024
0.000438429233
-0.000130891856
0.000513266876
-0.000162472763
0.000599005133
-0.000199012087
0.000696849632
-0.000241088026
0.000808038232
-0.000289299873
0.000933816994
-0.000344252215
0.00107538238
-0.000406530613
0.00123382762
-0.000476679671
0.00141006349
-0.000555169106
0.00160473851
-0.000642365016
0.00181813036
-0.000738453581
0.00205001466
-0.000843412631
0.00229958922
-0.00095696109
0.00256536659
-0.00107852032
0.00284501102
-0.00120707817
0.00313533341
-0.00134138911
0.00343206793
-0.00147969649
0.00373077831
-0.00162115083
0.00402560035
-0.00176285356
0.00431263705
-0.00190559778
0.00458525129
-0.00204368632
0.00483525554
-0.00217318873
0.00505463743
-0.00229211353
0.00523720756
-0.00240161124
0.00538616396
-0.00250403144
0.00551195702
-0.00260085846
0.00562173862
-0.00269279349
0.00572082451
-0.00278558363
0.00581468729
-0.0028802431
0.00590951105
-0.00297986903
0.00600374426
-0.00307622967
0.00609346252
-0.00316645933
0.00617543885
-0.00326613051
0.0062554881
-0.00337414542
0.0063439309
-0.00348372142
0.00643920341
-0.00358695252
-0.00369135891
0.00653368779
-2.63595243e-08
4.82188087e-07
-9.99304402e-08
1.44905659e-06
-2.1718487e-07
2.454413e-06
-3.74344493e-07
3.50530943e-06
-5.66795891e-07
4.60530093e-06
-7.88758339e-07
5.75461107e-06
-1.03299555e-06
6.95098597e-06
-1.29053044e-06
8.19023422e-06
-1.55036236e-06
9.4664916e-06
-1.79918686e-06
1.07723713e-05
-2.02144715e-06
1.20990771e-05
-2.19877929e-06
1.34364206e-05
-2.30939539e-06
1.47726102e-05
-2.32783006e-06
1.6094516e-05
-2.224616e-06
1.7387473e-05
-1.96574561e-06
1.86350753e-05
-1.51231482e-06
1.98190354e-05
-8.19168006e-07
2.09185302e-05
1.65371445e-07
2.19102733e-05
1.5003288e-06
2.27679093e-05
3.2533753e-06
2.3461212e-05
5.50152155e-06
2.39556791e-05
8.33239375e-06
2.42118765e-05
1.18455193e-05
2.41844988e-05
1.61576727e-05
2.38217323e-05
2.14032538e-05
2.30639138e-05
2.77361683e-05
2.18428017e-05
3.53325138e-05
2.00799875e-05
4.43980815e-05
1.7681001e-05
5.51614816e-05
1.45491006e-05
6.78114215e-05
1.06391294e-05
8.27166228e-05
5.6661833e-06
0.000100237534
-4.635265e-07
0.000120781246
-7.83014083e-06
0.000144814768
-1.68390873e-05
0.000172874034
-2.76505996e-05
0.000205675166
-4.05159063e-05
0.000243764213
-5.57499523e-05
0.000287861132
-7.36940008e-05
0.000338785462
-9.47269287e-05
0.000397423754
-0.000119268807
0.000464735343
-0.000147776736
0.000541744474
-0.000180742327
0.000629531639
-0.000218689647
0.000729208076
-0.000262160253
0.000841888731
-0.000311704209
0.000968652734
-0.000367863881
0.00111049251
-0.000431151868
0.00126825123
-0.000502023487
0.00144255277
-0.000580845084
0.00163371807
-0.000667858351
0.00184167061
-0.000763134986
0.00206581585
-0.000866522864
0.0023049771
-0.000977626524
0.00255733567
-0.0010957821
0.00282038387
-0.00122001948
0.00309089654
-0.00134904263
0.00336494209
-0.00148113286
0.00363781842
-0.00161427428
0.00390413786
-0.00174602454
0.00415890895
-0.00187593052
0.00439745062
-0.00200140352
0.00461095233
-0.00211910724
0.00479391766
-0.00222665977
0.004945709
-0.00232498999
0.00507198164
-0.00241839739
0.00518153492
-0.00251117509
0.00527739919
-0.00259990598
0.00536760736
-0.00269107786
0.00545723606
-0.00278243349
0.0055447118
-0.00287307322
0.00562780905
-0.0029633565
0.00570654599
-0.00305862739
0.00579137557
-0.0031610816
0.00588491555
-0.00326002266
0.00597454771
-0.00335578672
0.00605550346
-0.00345512421
0.00613737765
-0.00356562678
0.00622554214
-0.00367515
-0.00378532091
0.00631948025
-2.68649785e-08
5.08524879e-07
-1.00553591e-07
1.52199881e-06
-2.15677886e-07
2.56868096e-06
-3.65940988e-07
3.6546155e-06
-5.43600785e-07
4.78190961e-06
-7.39133694e-07
5.94900171e-06
-9.40934012e-07
7.15155257e-06
-1.13500595e-06
8.3829786e-06
-1.30457778e-06
9.63463798e-06
-1.42975734e-06
1.08960209e-05
-1.48713368e-06
1.21548127e-05
-1.4492581e-06
1.33967876e-05
-1.28439371e-06
1.46058625e-05
-9.55846545e-07
1.57639516e-05
-4.21336649e-07
1.68508059e-05
3.67489832e-07
1.78439425e-05
1.46602487e-06
1.87180361e-05
2.93732605e-06
1.94445986e-05
4.85366939e-06
1.99911242e-05
7.29768477e-06
2.03209009e-05
1.03637638e-05
2.03919422e-05
1.41597287e-05
2.01563153e-05
1.88088944e-05
1.95590925e-05
2.44519789e-05
1.85375643e-05
3.12496731e-05
1.7019944e-05
3.93880261e-05
1.49212113e-05
4.9075554e-05
1.21506488e-05
6.04948304e-05
8.65578887e-06
7.3968407e-05
4.202238e-06
8.981578e-05
-1.30372886e-06
0.000108397502
-7.9484082e-06
0.000130125577
-1.60680962e-05
0.000155470314
-2.58148479e-05
0.000185048965
-3.74157772e-05
0.000219351936
-5.11494634e-05
0.000259012624
-6.73191359e-05
0.000304750276
-8.62618705e-05
0.00035734306
-0.000108351542
0.000417635986
-0.000133996258
0.000486534322
-0.000163635132
0.000564990775
-0.000197735637
0.000653988921
-0.000236785759
0.000754519421
-0.000281284189
0.000867545116
-0.000331727188
0.000993963035
-0.000388590474
0.00113455253
-0.00045230645
0.00128991208
-0.000523236583
0.00146038552
-0.000601638917
0.00164597918
-0.000687631279
0.001846288
-0.000781168286
0.0020603833
-0.000881967544
0.00228674422
-0.000989508911
0.00252321401
-0.00110300484
0.00276697245
-0.00122139645
0.00301457308
-0.0013433936
0.0032620808
-0.00146753756
0.00350506894
-0.00159204072
0.00373899017
-0.0017150637
0.00395895221
-0.00183424564
0.00416121857
-0.0019482999
0.00434079546
-0.00205551615
0.00449436248
-0.00215497932
0.00462100323
-0.00224575746
0.00472779833
-0.00233346512
0.00482358621
-0.00242078731
0.004909356
-0.00250417575
0.0049869095
-0.00258873694
0.00505951672
-0.00267252179
0.00512685742
-0.00275843035
0.00519238347
-0.00284797372
0.00525975317
-0.00294045935
0.00532838486
-0.00303200684
0.00539457446
-0.00312483776
0.00545849477
-0.00322502885
0.00553225818
-0.00333381458
0.00561578832
-0.00343933959
0.00570020619
-0.00353956774
0.00578152136
-0.00364698001
0.00586454525
-0.00375821422
-0.00386933768
0.00594853108
-2.34385507e-08
5.31462474e-07
-8.46176489e-08
1.58246873e-06
-1.75283042e-07
2.6585316e-06
-2.8566764e-07
3.76408839e-06
-4.03836827e-07
4.89907625e-06
-5.15301104e-07
6.05937511e-06
-6.02636892e-07
7.23770789e-06
-6.45083897e-07
8.42415265e-06
-6.18097279e-07
9.60628174e-06
-4.92856146e-07
1.07693067e-05
-2.35712257e-07
1.18960856e-05
1.92286007e-07
1.29670893e-05
8.35870555e-07
1.39604537e-05
1.74622903e-06
1.48516365e-05
2.9818077e-06
1.56131299e-05
4.60927907e-06
1.62142257e-05
6.70494273e-06
1.66199704e-05
9.3557274e-06
1.67912438e-05
1.26607267e-05
1.66833769e-05
1.67329154e-05
1.62457774e-05
2.17008694e-05
1.54208563e-05
2.7710849e-05
1.41429958e-05
3.49307652e-05
1.23356193e-05
4.35500392e-05
9.91449967e-06
5.37428635e-05
6.82307902e-06
6.57908882e-05
2.86891591e-06
7.9976839e-05
-2.03980722e-06
9.66197251e-05
-7.99190194e-06
0.000116082627
-1.52657895e-05
0.000138777247
-2.40037933e-05
0.000165234223
-3.44111611e-05
0.000195893305
-4.67333077e-05
0.000231311086
-6.12391267e-05
0.000272116005
-7.82275844e-05
0.000318989011
-9.80297691e-05
0.000372669502
-0.000121007368
0.000433950221
-0.000147550788
0.000503666808
-0.000178076779
0.000582684178
-0.000213022721
0.000671877792
-0.00025283829
0.000772107089
-0.000297974928
0.000884182059
-0.00034887118
0.00100882103
-0.000405934056
0.00114659884
-0.000469516356
0.00129788646
-0.000539889878
0.00146278251
-0.000617214721
0.0016410385
-0.000701505327
0.00183198442
-0.0007925982
0.00203445347
-0.000890113674
0.00224670694
-0.000993434468
0.00246642788
-0.0011017006
0.0026906977
-0.00121379032
0.00291603971
-0.00132835801
0.00313853054
-0.00144389809
0.00335395142
-0.001558825
0.0035581516
-0.00167174804
0.00374730418
-0.00178120338
0.00391820523
-0.0018859747
0.00406903439
-0.00198508452
0.0041986473
-0.00207792228
0.00430799588
-0.00216487486
0.00440012378
-0.00224711651
0.00448132364
-0.00232696447
0.00455536237
-0.0024075115
0.00462413821
-0.00248957188
0.00469042008
-0.00257046617
0.00475280008
-0.0026511257
0.00481371808
-0.0027334502
0.00487281975
-0.00281754357
0.00492790007
-0.00290306606
0.00498157897
-0.00299415316
0.00503957716
-0.00309002121
0.00510054731
-0.00318582286
0.00515789045
-0.00328238944
0.00521208543
-0.00338803293
0.00527775175
-0.00350502914
0.00535538946
-0.0036172295
0.00543356318
-0.00372518537
0.00551264897
-0.00383732972
-0.0039461078
0.00558939758
-1.44791298e-08
5.45401139e-07
-4.59739518e-08
1.61320248e-06
-8.22046959e-08
2.693891e-06
-1.08508964e-07
3.78942001e-06
-1.07171254e-07
4.89667101e-06
-5.6973185e-08
6.00801724e-06
6.72702598e-08
7.11221131e-06
2.95238633e-07
8.19483476e-06
6.61586305e-07
9.23848393e-06
1.20647595e-06
1.02228606e-05
1.97617991e-06
1.11247123e-05
3.02374465e-06
1.19177352e-05
4.40991681e-06
1.25723644e-05
6.20386145e-06
1.30556403e-05
8.48467506e-06
1.33301222e-05
1.13423099e-05
1.3354243e-05
1.48791138e-05
1.30806554e-05
1.92114052e-05
1.24562695e-05
2.44710519e-05
1.14208654e-05
3.08086234e-05
9.90514989e-06
3.83948812e-05
7.83133683e-06
4.73937176e-05
5.14067683e-06
5.80498091e-05
1.67583619e-06
7.06124722e-05
-2.65207108e-06
8.53631223e-05
-7.93174468e-06
0.000102620791
-1.43932119e-05
0.00012274488
-2.21686432e-05
0.000146190477
-3.14425504e-05
0.000173350045
-4.24307298e-05
0.00020471125
-5.53707112e-05
0.000240820561
-7.0526546e-05
0.000282271185
-8.81903876e-05
0.000329706954
-0.000108681762
0.000383818452
-0.000132346384
0.000445335212
-0.000159554265
0.000515015298
-0.000190695629
0.000593630138
-0.000226174248
0.000681943276
-0.000266398994
0.00078068309
-0.000311772075
0.000890508617
-0.00036267383
0.00101196729
-0.000419444086
0.00114544532
-0.000482360181
0.00129111151
-0.000551611681
0.00144885596
-0.00062727272
0.00161822642
-0.000709272778
0.00179836596
-0.00079736734
0.00198796099
-0.000891113817
0.00218518821
-0.000989838675
0.00238770659
-0.00109264481
0.00259268626
-0.00119842645
0.00279686685
-0.00130589312
0.0029966866
-0.00141362173
0.00318844062
-0.00152012345
0.00336852968
-0.00162399842
0.00353376358
-0.00172407002
0.00368175299
-0.00181974842
0.00381146263
-0.00191092392
0.00392314089
-0.00199766406
0.00401841745
-0.00208037138
0.00409970503
-0.00215921838
0.00417133518
-0.00223651383
0.00423808938
-0.00231387908
0.00430264482
-0.00239152699
0.00436610177
-0.00247097612
0.00442527498
-0.0025487528
0.00448304249
-0.00262824051
0.00453917661
-0.00270726626
0.00459370137
-0.00278798235
0.00464625864
-0.0028701102
0.00469288836
-0.00294970578
0.0047346507
-0.00303592618
0.00477478154
-0.00313016692
0.0048175401
-0.00322859715
0.00486481341
-0.00332967748
0.00490951757
-0.00343275455
0.00494821926
-0.00354375492
0.00499729371
-0.00366632917
0.00505738308
-0.00378529674
0.00512217571
-0.00390215283
-0.00401881316
0.00519484912
5.16857595e-10
5.44355972e-07
1.79897251e-08
1.5949836e-06
7.03349579e-08
2.64068999e-06
1.78779643e-07
3.6800187e-06
3.68631277e-07
4.70576813e-06
6.69781534e-07
5.70572362e-06
1.1172311e-06
6.66352568e-06
1.75166022e-06
7.55907401e-06
2.62006398e-06
8.36864845e-06
3.77650874e-06
9.06487826e-06
5.28294496e-06
9.61662618e-06
7.20992958e-06
9.98898252e-06
9.63817588e-06
1.01422248e-05
1.26593527e-05
1.00324349e-05
1.63775544e-05
9.60974806e-06
2.09108599e-05
8.8186138e-06
2.63932527e-05
7.59577936e-06
3.29769682e-05
5.86989986e-06
4.08142091e-05
3.58078724e-06
5.01161609e-05
6.0018379e-07
6.11016402e-05
-3.15734012e-06
7.40177718e-05
-7.77887144e-06
8.91436369e-05
-1.34536791e-05
0.000106791772
-2.03040928e-05
0.000127351041
-2.84951507e-05
0.000151169746
-3.82163192e-05
0.000178673224
-4.96768015e-05
0.000210334736
-6.3109039e-05
0.000246668682
-7.87699649e-05
0.000288233181
-9.69408329e-05
0.000335627211
-0.000117926556
0.000389484831
-0.000142054351
0.000450467201
-0.000169670839
0.000519250561
-0.000201136826
0.000596509582
-0.000236820756
0.000682895403
-0.000277089319
0.000779008192
-0.000322295313
0.000885362944
-0.000372762443
0.00100234901
-0.000428767265
0.00113018379
-0.000490518176
0.00126886187
-0.000558132165
0.00141810128
-0.000631610057
0.00157729031
-0.000710811624
0.00174543871
-0.000795432588
0.00192113989
-0.000884986065
0.00210255636
-0.000978796203
0.00228740827
-0.0010759779
0.00247302447
-0.00117546678
0.00265642963
-0.00127606163
0.00283448284
-0.00137649117
0.00300406869
-0.00147549039
0.00316234267
-0.00157190711
0.00330695748
-0.00166474966
0.0034362887
-0.00175334106
0.00354966551
-0.00183745825
0.00364745452
-0.0019175488
0.00373117584
-0.00199465636
0.00380305729
-0.00206955604
0.00386525722
-0.00214258227
0.00392152807
-0.00221550097
0.00397562563
-0.00229062074
0.00402897648
-0.00236723772
0.00407976249
-0.00244232223
0.00412831216
-0.00251953468
0.00417662054
-0.00259706829
0.00422539343
-0.00267702034
0.00427679855
-0.00275867837
0.00433106068
-0.00284225105
0.00438937869
-0.00292843547
0.00444442142
-0.00300475787
0.00449481211
-0.00308632875
0.00454325318
-0.00317861939
0.00458954488
-0.00327490092
0.00463026779
-0.00337041628
0.00466826344
-0.00347076634
0.00470350191
-0.00357901242
0.00473198695
-0.00369483751
0.00476407996
-0.00381741721
0.00480175695
-0.00393986465
-0.0040636426
0.00484654919
2.21905903e-08
5.21640506e-07
1.09639918e-07
1.50679597e-06
2.87530081e-07
2.46195505e-06
5.8546353e-07
3.38114235e-06
1.03827928e-06
4.25191717e-06
1.68663695e-06
5.05624072e-06
2.57764871e-06
5.77129792e-06
3.76560732e-06
6.36980549e-06
5.3128094e-06
6.82003786e-06
7.29027634e-06
7.08589944e-06
9.77923131e-06
7.12604975e-06
1.2871826e-05
6.89464792e-06
1.66726781e-05
6.33950615e-06
2.13004324e-05
5.40268073e-06
2.68891353e-05
4.01890199e-06
3.35782353e-05
2.12721688e-06
4.15488846e-05
-3.77319686e-07
5.099254e-05
-3.57636503e-06
6.21250868e-05
-7.55455473e-06
7.51893978e-05
-1.24671204e-05
9.04560349e-05
-1.8427174e-05
0.00010825556
-2.55818088e-05
0.000128895494
-3.40972545e-05
0.000152744885
-4.41573667e-05
0.000180211815
-5.59662203e-05
0.000211740257
-6.97491726e-05
0.00024781177
-8.57530146e-05
0.000288943504
-0.000104245785
0.000335684022
-0.000125515815
0.000388607257
-0.000149869723
0.000448303283
-0.000177628573
0.000515365361
-0.000209122767
0.000590372646
-0.00024468482
0.000673868459
-0.000284639704
0.000766332991
-0.000329292734
0.000868150694
-0.000378914861
0.000979572565
-0.000433725423
0.00110067419
-0.00049387272
0.0012313106
-0.000559412748
0.00137107058
-0.00063028767
0.00151923319
-0.000706304726
0.0016747311
-0.000787118376
0.00183612629
-0.000872217766
0.00200160523
-0.000960923126
0.0021690071
-0.00105239982
0.00233586799
-0.00114566887
0.0024995224
-0.00123964394
0.00265723446
-0.00133319038
0.00280637813
-0.00142521682
0.00294466574
-0.00151479034
0.00307038398
-0.00160122025
0.00318259945
-0.0016841343
0.00328127166
-0.00176343366
0.00336715394
-0.00183923523
0.00344163419
-0.00191195013
0.00350657983
-0.00198250615
0.00356405771
-0.00205214613
0.00361616843