/*--------------------------------*- C++ -*----------------------------------*\
  =========                 |
  \\      /  F ield         | OpenFOAM: The Open Source CFD Toolbox
   \\    /   O peration     | Website:  https://openfoam.org
    \\  /    A nd           | Version:  8
     \\/     M anipulation  |
\*---------------------------------------------------------------------------*/
FoamFile
{
    version     2.0;
    format      ascii;
    class       volVectorField;
    location    "0.014";
    object      U;
}
// * * * * * * * * * * * * * * * * * * * * * * * * * * * * * * * * * * * * * //

dimensions      [0 1 -1 0 0 0 0];

internalField   nonuniform List<vector> 
42400
(
(-0.0178265623 0.017063665 -7.5838461e-27)
(-0.0532399517 0.0501412634 2.45760288e-26)
(-0.0890931055 0.082656162 2.44832803e-26)
(-0.125422527 0.114595278 0)
(-0.162199498 0.145924864 0)
(-0.199354298 0.176547303 -5.01230417e-28)
(-0.236805016 0.20634398 0)
(-0.274470954 0.235200041 5.51976948e-28)
(-0.312275681 0.263010521 0)
(-0.350144639 0.289679545 6.08194648e-28)
(-0.388002103 0.315118762 6.38539794e-28)
(-0.425769509 0.339246717 -6.70486404e-28)
(-0.463365193 0.361989172 -1.50343836e-27)
(-0.500705058 0.383280009 2.1203216e-27)
(-0.537703616 0.403062366 -7.76878612e-28)
(-0.57427507 0.42128974 0)
(-0.610334212 0.437926935 0)
(-0.645796998 0.452950753 0)
(-0.680580757 0.466350426 0)
(-0.714604043 0.478127788 0)
(-0.747786132 0.488297221 0)
(-0.780046247 0.496885426 -2.20595931e-27)
(-0.811302496 0.503931046 4.80745262e-26)
(-0.841470572 0.50948416 1.13287599e-25)
(-0.870462189 0.51360566 6.58961875e-26)
(-0.898183233 0.516366509 -2.71796338e-27)
(-0.924531519 0.517846902 -2.86841801e-27)
(-0.949394061 0.518135346 6.0597395e-27)
(-0.972643887 0.517327675 0)
(-0.994136823 0.515525507 0)
(-1.01370666 0.512832449 -1.30893466e-25)
(-1.03115309 0.509347244 -1.45554875e-25)
(-1.04624217 0.50515983 8.08040002e-27)
(-1.05875324 0.500368014 1.77894562e-25)
(-1.06840223 0.495179903 1.94071116e-25)
(-1.07498226 0.48942892 0)
(-1.07762436 0.484048223 0)
(-1.07650767 0.477849432 0)
(-1.07058907 0.471836666 0)
(-1.06026702 0.465157109 3.16972996e-25)
(-1.04307876 0.459379449 3.05404092e-25)
(-1.01854271 0.453327441 3.59285419e-25)
(-0.984900745 0.446937399 9.49780312e-25)
(-0.940700681 0.440165373 -3.84499337e-26)
(-0.885281657 0.432908142 -6.08676758e-25)
(-0.816701109 0.425485354 -7.68076085e-25)
(-0.733002402 0.417688441 4.87086884e-26)
(-0.632375904 0.409389192 8.2677387e-25)
(-0.512603032 0.400361464 5.64398981e-26)
(-0.370812892 0.390859569 1.18133006e-24)
(-0.207489832 0.381118865 3.68401827e-33)
(-0.0140189572 0.372524746 -2.81247274e-24)
(0.205447174 0.365094078 -1.65072357e-24)
(0.469441018 0.355359053 1.84205944e-25)
(0.778828441 0.343282509 0)
(1.13644419 0.330683608 0)
(1.54959504 0.318398141 0)
(2.02558273 0.30617562 -2.61588016e-25)
(2.56968027 0.294003336 -2.79424143e-25)
(3.18751187 0.282082658 0)
(3.88428811 0.270580432 7.06431029e-24)
(4.66421108 0.259863279 7.83088837e-24)
(5.53004126 0.250679838 -7.93316734e-24)
(6.48344248 0.2443379 -8.07634204e-24)
(7.52414859 0.242598018 0)
(8.64279821 0.252197367 0)
(9.82762529 0.260644912 -5.37736131e-24)
(11.1262562 0.229822613 -4.78161738e-24)
(12.4015469 0.298066806 3.56545593e-27)
(13.6581369 0.413954574 0)
(15.327662 0.0752370983 0)
(16.5009026 0.220629466 4.57771213e-25)
(17.1463557 1.48472564 5.92718153e-25)
(18.8830873 0.574423653 0)
(21.1108516 -1.12300773 3.00212497e-25)
(22.0512563 -0.774551567 8.19582739e-24)
(22.3734497 1.00255607 -6.72246945e-24)
(22.5671196 1.61457069 -3.12000821e-24)
(23.6765966 0.205582735 8.50384066e-24)
(23.8635422 -0.466987972 -1.0242979e-23)
(-0.0214759661 0.0190251443 0)
(-0.0637002359 0.0558187349 1.90755053e-26)
(-0.106054483 0.0919963138 1.83939955e-26)
(-0.148666769 0.127635629 0)
(-0.191548255 0.162745722 0)
(-0.234652715 0.197258729 1.31030508e-26)
(-0.277886758 0.231063023 1.21889675e-26)
(-0.321142638 0.264034445 8.63363035e-28)
(-0.364306166 0.296047915 0)
(-0.407258691 0.326980892 9.5288945e-28)
(-0.449877707 0.356715263 1.0011496e-27)
(-0.492037806 0.385139254 -1.83204277e-28)
(-0.533612066 0.412149403 7.11185776e-27)
(-0.574473521 0.437652356 6.47590853e-27)
(-0.614496393 0.461566329 -1.14638888e-26)
(-0.653556926 0.483822175 -1.17391493e-26)
(-0.691533768 0.504364071 0)
(-0.728307905 0.523149881 2.84577898e-27)
(-0.763762168 0.540151237 0)
(-0.797780377 0.555353416 0)
(-0.830246174 0.568755058 0)
(-0.861041591 0.580367793 4.19203841e-26)
(-0.890045373 0.590215814 9.98745097e-26)
(-0.917131034 0.598335429 5.85659966e-26)
(-0.942164533 0.60477459 0)
(-0.965001486 0.609592175 -8.4755711e-27)
(-0.985483516 0.612856611 -4.43418837e-27)
(-1.00343249 0.614643967 9.33400078e-27)
(-1.01864226 0.615036578 9.98188049e-26)
(-1.03089163 0.614125502 1.08275614e-25)
(-1.0399701 0.611988843 -1.08505659e-26)
(-1.04558147 0.60877159 -1.13647814e-26)
(-1.04740003 0.604746061 1.99823505e-25)
(-1.04519274 0.599620487 2.08702863e-25)
(-1.03847773 0.593722079 -2.45710167e-25)
(-1.02670138 0.587579998 -2.36536165e-25)
(-1.01021084 0.580341703 0)
(-0.986429276 0.573345905 1.66278564e-26)
(-0.954926225 0.565416177 0)
(-0.913716592 0.557032387 3.85174786e-26)
(-0.862778405 0.547650576 3.93031304e-25)
(-0.800468854 0.537962371 3.89090393e-25)
(-0.725423578 0.527989023 4.41581687e-26)
(-0.635809245 0.517652006 -4.69174059e-26)
(-0.529586827 0.506832039 9.98332036e-26)
(-0.404992215 0.495088509 -5.27555913e-26)
(-0.258990946 0.482704026 5.74996971e-26)
(-0.0908684898 0.470414899 8.28159212e-25)
(0.106524045 0.459920073 9.53111994e-25)
(0.324941266 0.450599358 0)
(0.593289282 0.437809988 -7.93483769e-26)
(0.903675133 0.422220126 1.67778266e-25)
(1.26112777 0.406826472 1.29327841e-24)
(1.67267695 0.391844425 1.81753019e-24)
(2.14360992 0.376973121 2.09519301e-25)
(2.67976465 0.362276424 4.32288172e-24)
(3.28692092 0.347924476 4.85013542e-24)
(3.97015917 0.333807514 -2.28451485e-25)
(4.73383674 0.320234008 -2.2728671e-25)
(5.58141724 0.308491217 6.68602432e-24)
(6.5147959 0.300030398 7.24583792e-24)
(7.5328801 0.295996089 1.80520502e-25)
(8.63124878 0.297264995 -1.52704404e-25)
(9.80205271 0.304202831 0)
(11.0362313 0.314437243 -6.93986013e-24)
(12.3126615 0.343822872 -1.22325468e-23)
(13.5835624 0.403773906 -5.66465484e-24)
(14.9527039 0.384872379 0)
(16.3239727 0.343258808 2.65571874e-26)
(17.4340038 0.613848806 4.65610018e-25)
(18.7411227 0.632342871 6.23197176e-24)
(20.2807405 0.0808152756 4.61554634e-24)
(20.9781736 0.594600692 -8.35859956e-25)
(21.5502105 1.66218117 -3.82483632e-24)
(22.7861103 0.704515528 2.75000165e-26)
(23.6361879 -0.0947323196 6.40426026e-24)
(23.7463181 0.0897282957 2.15605165e-23)
(23.8907187 0.598713662 -2.67710313e-24)
(23.8124017 0.922235765 -2.90681226e-23)
(23.7797091 0.628566137 -1.74442361e-23)
(-0.0244983846 0.0200620238 2.13276932e-27)
(-0.072343727 0.058809722 4.12032612e-28)
(-0.120052801 0.0969317088 -4.3570674e-28)
(-0.167834281 0.134577605 4.56546705e-28)
(-0.215757576 0.171801715 0)
(-0.263767915 0.208549185 -9.12738498e-27)
(-0.311772636 0.244718441 9.94720617e-34)
(-0.359633634 0.280182865 5.55345829e-27)
(-0.407196947 0.314804379 3.48660155e-27)
(-0.454297699 0.348441513 2.33530243e-27)
(-0.50076325 0.380954142 -1.10610318e-28)
(-0.546416713 0.412207429 1.37803565e-27)
(-0.591080104 0.442075145 1.44923652e-27)
(-0.634576738 0.470442239 -1.0914298e-26)
(-0.676732749 0.49720661 -1.46836086e-26)
(-0.717377744 0.522280177 5.05758033e-27)
(-0.75634471 0.545589385 1.96088175e-26)
(-0.793469322 0.567075301 5.57349045e-26)
(-0.828588757 0.586693446 3.2909399e-26)
(-0.861540107 0.604413477 4.12509222e-27)
(-0.892158357 0.6202189 -4.33313352e-27)
(-0.920273844 0.634106839 -4.55056254e-27)
(-0.945709519 0.646087915 0)
(-0.968277608 0.656185609 9.99838306e-27)
(-0.987773435 0.664432735 -7.01720993e-26)
(-1.00397522 0.670868392 4.72527377e-29)
(-1.01664809 0.675534361 8.39057118e-26)
(-1.02554454 0.678471498 9.45180138e-26)
(-1.03032343 0.67980654 1.09889513e-25)
(-1.03083217 0.679516072 -1.14692407e-25)
(-1.02669472 0.677799022 -1.37946044e-26)
(-1.01749656 0.674857372 2.86480505e-25)
(-1.0029751 0.670728048 1.75567812e-25)
(-0.982706162 0.665847095 0)
(-0.954935667 0.65987819 0)
(-0.918903845 0.652520936 -1.81568803e-26)
(-0.872983811 0.644148009 0)
(-0.817154031 0.63456361 4.00345152e-26)
(-0.749965694 0.624302125 2.61261709e-25)
(-0.670125269 0.613427058 8.76575242e-26)
(-0.575885056 0.60191306 -2.62240726e-25)
(-0.465249598 0.589725284 0)
(-0.336630706 0.5764914 0)
(-0.18674564 0.562313631 5.11701033e-25)
(-0.0135969605 0.549072545 6.07783028e-25)
(0.178581307 0.53780317 5.93849233e-26)
(0.408910678 0.524590683 0)
(0.676349491 0.509294529 0)
(0.985031524 0.493473694 8.27444415e-25)
(1.34001854 0.478045063 9.31641663e-25)
(1.74767321 0.462980717 -7.81291661e-26)
(2.21231028 0.448125463 0)
(2.73958353 0.433774083 -1.14439085e-24)
(3.33515938 0.420075232 -1.53373501e-24)
(4.00407714 0.407239413 -3.44967834e-24)
(4.75091597 0.39596356 -3.87547599e-24)
(5.57915222 0.387430372 -4.68317621e-24)
(6.49038467 0.38267791 -2.00522006e-32)
(7.48375656 0.382288932 2.24777458e-32)
(8.55570986 0.386824893 -1.39558297e-23)
(9.70069376 0.396167519 -7.10401902e-24)
(10.9093804 0.411554663 7.13761151e-24)
(12.1664304 0.434640569 7.16087497e-24)
(13.4556539 0.468720794 0)
(14.7609739 0.504287211 7.39700218e-24)
(16.0710113 0.546486906 1.39976753e-23)
(17.2912475 0.641701629 6.69586914e-24)
(18.4932586 0.737998999 0)
(19.7506807 0.650643544 -3.66139343e-26)
(20.8221435 0.669225405 7.42385644e-24)
(21.5981221 1.01770293 7.82383588e-24)
(22.5286839 0.902903533 0)
(23.4614746 0.548124516 0)
(23.7642352 0.761185133 1.22729433e-24)
(23.7982997 1.32250654 -1.28124524e-24)
(23.808195 1.05361376 9.8517273e-24)
(23.850805 0.812712971 1.03427448e-23)
(23.8741517 0.658603669 0)
(23.8956873 0.584317083 -1.84703601e-24)
(23.8610934 0.701711765 1.60163128e-23)
(-0.0269977789 0.0204028076 3.13049591e-28)
(-0.0794838835 0.0597443716 4.9252746e-28)
(-0.131615519 0.0984400238 4.93118715e-27)
(-0.18367478 0.136693454 -3.11530167e-27)
(-0.235768629 0.174592846 -3.58112397e-27)
(-0.287866269 0.212107369 0)
(-0.339832601 0.249131966 -4.36412547e-27)
(-0.391491159 0.285535369 -3.44706204e-27)
(-0.442665204 0.321174787 4.07621821e-28)
(-0.493134189 0.355901104 2.98055604e-27)
(-0.542669969 0.389560332 8.95250184e-27)
(-0.591039407 0.422002877 4.02962427e-34)
(-0.638008033 0.453088221 1.75299643e-27)
(-0.683342907 0.482687969 2.36304737e-33)
(-0.726814353 0.51068769 -1.94136749e-27)
(-0.768196381 0.536987896 2.9126022e-26)
(-0.807265965 0.5615044 -3.42835632e-26)
(-0.843801471 0.584168345 -4.49080359e-27)
(-0.877580507 0.604926102 4.10752984e-26)
(-0.908377687 0.623738687 4.95221151e-27)
(-0.935956784 0.640576414 -1.04374734e-26)
(-0.960066847 0.655415863 -5.98805998e-26)
(-0.980444431 0.66824054 -6.56667073e-26)
(-0.996826419 0.679019867 5.97933502e-27)
(-1.00891625 0.687813389 0)
(-1.01646379 0.694671547 6.53304879e-27)
(-1.01917114 0.699686598 0)
(-1.01673069 0.703029238 1.20625597e-25)
(-1.00884754 0.704754918 2.29679508e-25)
(-0.994903874 0.705020646 1.30400429e-25)
(-0.973854221 0.703609431 -1.17648204e-25)
(-0.944988169 0.700498178 -1.40923827e-25)
(-0.907386059 0.695660036 3.62847457e-26)
(-0.85966385 0.689315356 1.91436106e-26)
(-0.801723283 0.6816039 -1.964229e-25)
(-0.73222072 0.67282139 -2.28768386e-25)
(-0.649851353 0.663019214 0)
(-0.552940656 0.652224372 2.58294518e-25)
(-0.439584538 0.64046666 2.34901028e-25)
(-0.308181027 0.627448798 4.80419729e-26)
(-0.155714378 0.613269475 5.17504455e-26)
(0.02007548 0.599871523 0)
(0.214058442 0.588315446 0)
(0.446103809 0.574870756 0)
(0.713925466 0.559571224 6.27287418e-26)
(1.02178583 0.544280502 6.23006197e-25)
(1.37474541 0.529612781 6.02919488e-25)
(1.77749833 0.515543669 0)
(2.2351906 0.502223336 0)
(2.75327124 0.489941109 8.79882531e-25)
(3.33720997 0.478894371 9.67168817e-25)
(3.99204356 0.46965041 1.25545771e-24)
(4.72236835 0.463140214 1.4625952e-24)
(5.53149303 0.46037313 -1.4834947e-25)
(6.42092575 0.462120285 -2.08930549e-24)
(7.38999256 0.469029374 -2.16056296e-24)
(8.43573413 0.481731066 -5.32496248e-24)
(9.55263212 0.501141512 -6.09666827e-24)
(10.7326856 0.526875511 0)
(11.9644305 0.559278969 1.19766133e-26)
(13.2326888 0.597849319 -6.79388202e-24)
(14.521154 0.643540688 -1.40173448e-23)
(15.8065405 0.694641078 8.47191329e-26)
(17.0680524 0.75790546 1.1907577e-25)
(18.2769873 0.82257349 -8.14157809e-24)
(19.4412489 0.880789972 8.0286169e-24)
(20.4894186 0.936699656 7.93926339e-24)
(21.4000264 1.0699248 -5.43883166e-25)
(22.2201134 1.12974254 -7.28670279e-24)
(23.0365581 1.01360222 -1.10827114e-23)
(23.5894572 1.0222052 6.54347517e-26)
(23.8159357 1.18212311 -1.09913111e-23)
(23.8319691 1.15410557 -9.19500073e-24)
(23.84474 1.10007303 0)
(23.82961 1.08350674 -1.06660694e-23)
(23.8171925 1.15786505 -2.32271517e-23)
(23.8217302 1.13780255 1.05359478e-24)
(23.8360212 1.0919433 8.55848201e-24)
(23.9181149 0.981445681 1.12290711e-23)
(23.9065187 0.867909973 1.13035916e-23)
(-0.0292740392 0.0203715035 1.82367267e-27)
(-0.0859721151 0.0595427055 0)
(-0.142104363 0.0979939661 0)
(-0.198013912 0.135964242 1.08392618e-30)
(-0.25383257 0.173562781 0)
(-0.30952315 0.210774877 0)
(-0.364944271 0.247513687 0)
(-0.419898918 0.283648541 -3.13433781e-27)
(-0.474114702 0.319020738 0)
(-0.527308524 0.353469918 1.74385012e-27)
(-0.579218545 0.386836671 1.26575575e-26)
(-0.629547029 0.418973211 2.42331961e-33)
(-0.677991659 0.449735064 -1.48380082e-26)
(-0.724254012 0.478988598 0)
(-0.768038762 0.506615442 -2.2543694e-27)
(-0.809052508 0.532513039 4.74993863e-27)
(-0.847002112 0.556594749 0)
(-0.881586811 0.578787323 4.39447925e-26)
(-0.912496955 0.599031568 5.52989751e-27)
(-0.939443065 0.617243685 -9.95862696e-26)
(-0.962089532 0.633481249 -6.46666353e-26)
(-0.980171771 0.647720037 6.30438962e-27)
(-0.993385309 0.660005096 0)
(-1.00138499 0.670447918 -9.90129544e-26)
(-1.00362015 0.678878891 -1.09323795e-25)
(-0.999523803 0.685330936 -1.09482132e-25)
(-0.988507402 0.689811228 -1.24896557e-25)
(-0.969888405 0.69231338 1.3413073e-25)
(-0.942839501 0.692855059 1.39013955e-25)
(-0.906551639 0.691568225 0)
(-0.860491239 0.688679682 -1.67064819e-25)
(-0.803581829 0.684283174 -1.77004565e-25)
(-0.734664597 0.678437771 2.0330581e-26)
(-0.652428348 0.671215002 -1.78038869e-25)
(-0.555255394 0.662692402 -2.09681723e-25)
(-0.441329462 0.652953392 -4.59573739e-26)
(-0.309025853 0.641789582 2.40869562e-26)
(-0.155575712 0.629332234 -3.22033714e-25)
(0.0213014325 0.617432862 -3.34039814e-25)
(0.216604834 0.607011567 2.75339782e-25)
(0.449372296 0.594879389 5.82977925e-25)
(0.716993362 0.581136599 4.34203767e-25)
(1.02344983 0.567728766 0)
(1.37358094 0.555198901 -6.38006948e-26)
(1.77169047 0.543533273 -4.94744412e-25)
(2.22269871 0.533021588 -6.78805837e-26)
(2.73189999 0.524027027 1.33687643e-32)
(3.30450779 0.517137521 -7.03938693e-25)
(3.94545973 0.513126757 0)
(4.65907223 0.512744617 -6.98935265e-26)
(5.44848587 0.516759266 -1.35826007e-24)
(6.3153849 0.525871918 -1.44263431e-24)
(7.25971126 0.540785807 -2.14851152e-25)
(8.27936885 0.56230379 -2.21720102e-24)
(9.36974783 0.591212151 -2.40052811e-24)
(10.523321 0.628420777 -2.81565283e-24)
(11.7294581 0.673800866 -8.77107288e-24)
(12.9738942 0.7277243 -6.09597398e-24)
(14.2394571 0.789504112 -6.29519739e-24)
(15.5075887 0.858085568 -6.66659918e-24)
(16.7579734 0.929562835 0)
(17.9710349 1.00398611 1.45191824e-25)
(19.1220882 1.0742647 -7.44956566e-24)
(20.1913233 1.14904519 -8.19208678e-24)
(21.1438085 1.21893246 -4.27837873e-26)
(21.9848849 1.29099597 0)
(22.7056855 1.31350132 1.05707029e-23)
(23.2913378 1.34987468 9.99032117e-24)
(23.6916655 1.40381584 7.01341828e-25)
(23.8714701 1.42368915 -6.99581774e-25)
(23.8996347 1.4056563 -4.44942569e-26)
(23.8752102 1.39647194 -8.77536371e-25)
(23.8427379 1.3986938 -1.48524065e-23)
(23.8386727 1.37905858 -8.37932461e-24)
(23.8490882 1.32534208 -7.77576457e-25)
(23.9302992 1.2538645 0)
(23.9759903 1.24104018 -1.16467096e-23)
(23.9698956 1.26088242 -1.01698235e-23)
(23.9688063 1.29340479 0)
(23.95946 1.21768529 -1.16357073e-23)
(-0.0315901008 0.0201893832 -3.07437963e-27)
(-0.0925478186 0.0588531171 -4.14113933e-27)
(-0.152687618 0.0966630975 -5.10505834e-27)
(-0.212396469 0.133876005 -7.23994855e-28)
(-0.271813191 0.170612013 2.56318818e-27)
(-0.330881879 0.206862631 -1.61152198e-27)
(-0.389423832 0.242544213 1.35752174e-27)
(-0.447185078 0.277533806 -7.72227938e-28)
(-0.503863674 0.311687722 1.89064372e-27)
(-0.55913516 0.344842521 3.98563119e-27)
(-0.61260794 0.376830929 -3.11581692e-27)
(-0.663899681 0.40749765 -2.33876879e-26)
(-0.71265791 0.436702173 -2.16979645e-26)
(-0.758522642 0.464320667 -2.52060213e-26)
(-0.801111317 0.490251746 2.5887694e-27)
(-0.840046374 0.514402113 4.3962866e-26)
(-0.874968486 0.536654098 0)
(-0.905468848 0.557063871 0)
(-0.931175595 0.575464711 6.39758961e-26)
(-0.951618785 0.591903034 1.58188802e-25)
(-0.966394595 0.606290266 8.66001784e-26)
(-0.974962483 0.618642753 9.59386317e-26)
(-0.976747611 0.628941619 2.30091847e-33)
(-0.971113473 0.637153688 -1.21053993e-25)
(-0.957546712 0.643460059 1.14514583e-25)
(-0.935341968 0.647888968 2.68095457e-25)
(-0.903684114 0.650477017 1.36385705e-25)
(-0.861658574 0.651281006 -9.52274871e-27)
(-0.808246023 0.650362529 9.93948009e-27)
(-0.742299567 0.64779818 -2.0764321e-26)
(-0.662490567 0.643687716 0)
(-0.567225637 0.638144596 2.2673409e-25)
(-0.454770066 0.631277786 -2.34078905e-26)
(-0.323482737 0.622958021 -2.26615597e-25)
(-0.170815323 0.613351759 0)
(0.00545392538 0.604108494 -3.32534989e-25)
(0.201064961 0.595939817 -2.09114407e-25)
(0.433201451 0.586361558 0)
(0.699508765 0.575468945 0)
(1.00360735 0.565142473 -3.48663236e-25)
(1.35006708 0.555922642 -3.90086823e-25)
(1.74291759 0.547866618 1.29927269e-25)
(2.1868254 0.5414139 0)
(2.68681433 0.537129567 4.76032722e-25)
(3.24773901 0.535667329 1.17503341e-24)
(3.87413913 0.537717434 6.48244998e-25)
(4.57003925 0.543955011 7.00289618e-26)
(5.33852256 0.555114243 -2.37314802e-27)
(6.18152929 0.571947609 0)
(7.09954236 0.59523986 -1.42098146e-24)
(8.09116679 0.625753798 -9.8096383e-26)
(9.15272147 0.664179355 1.94174088e-24)
(10.2778615 0.711064286 -4.45247576e-26)
(11.457351 0.766922859 -2.71447344e-24)
(12.6789503 0.831468157 -5.74201975e-24)
(13.927012 0.904634429 6.11419802e-33)
(15.1830598 0.986052659 3.08060823e-24)
(16.4259088 1.07508915 0)
(17.6339858 1.16965538 0)
(18.7845322 1.26654222 1.50309044e-25)
(19.8605283 1.35974764 1.70959812e-25)
(20.8385779 1.44780948 0)
(21.7115797 1.52352411 7.70542713e-24)
(22.4581261 1.58920212 7.08036195e-24)
(23.0730585 1.64139113 -8.14052067e-24)
(23.533626 1.68614453 -2.43708289e-23)
(23.8384596 1.72244772 -1.07515772e-23)
(23.9442797 1.68242899 -8.65629324e-24)
(23.9607321 1.71320174 -9.56519029e-24)
(23.9160125 1.72620343 -8.82328276e-25)
(23.8961497 1.70159799 1.36338403e-23)
(23.8984672 1.66093487 6.89103203e-24)
(23.9437743 1.62061355 -1.105012e-23)
(23.9808758 1.6265548 -9.40518201e-24)
(23.9704306 1.62659385 -1.18170699e-23)
(24.0239065 1.56906313 -1.10197326e-23)
(24.1221091 1.48392249 -1.30957812e-23)
(24.141131 1.40308402 9.68819071e-32)
(24.1236219 1.42168158 2.5779945e-23)
(24.0860977 1.40457689 3.56080382e-23)
(-0.0341529214 0.019980644 1.69805549e-27)
(-0.0997600067 0.0580430814 7.45041063e-28)
(-0.164185437 0.0950622407 3.97146097e-27)
(-0.227838907 0.13129903 -1.30140285e-33)
(-0.290846023 0.166876019 -2.46793329e-27)
(-0.353114082 0.201786545 -3.04845353e-27)
(-0.414411421 0.235948829 5.27949095e-28)
(-0.474418927 0.269240989 -9.97782602e-29)
(-0.532758771 0.301519898 3.90057842e-27)
(-0.589013213 0.332634324 6.08728408e-27)
(-0.642741315 0.362435423 8.27567954e-27)
(-0.693502486 0.390772973 7.76975379e-27)
(-0.74081846 0.417514076 1.30120995e-26)
(-0.784199468 0.442571098 1.97210152e-26)
(-0.823197829 0.465804775 2.93876967e-27)
(-0.857316596 0.487161655 3.08756472e-27)
(-0.886037809 0.506623454 6.11608383e-26)
(-0.908890803 0.524047363 6.91652679e-26)
(-0.925292218 0.539522639 -7.13531228e-27)
(-0.934685622 0.553003105 -7.53940949e-27)
(-0.936437956 0.564500497 9.09613987e-26)
(-0.929861723 0.574028646 1.01664481e-25)
(-0.914198937 0.581624705 0)
(-0.88860908 0.587320506 9.11592199e-27)
(-0.852171919 0.591174535 0)
(-0.803847908 0.593271142 0)
(-0.74246841 0.59370729 1.04393058e-26)
(-0.666708846 0.592592463 -2.09934844e-25)
(-0.575031003 0.590049166 -1.89134948e-25)
(-0.465751217 0.586204701 1.81101781e-25)
(-0.337211116 0.580999383 2.2514899e-25)
(-0.187043138 0.574622898 2.5541398e-26)
(-0.0130743697 0.568476217 -2.61862854e-26)
(0.181297653 0.563100161 0)
(0.411098471 0.556695642 2.89922778e-26)
(0.674503575 0.549368061 0)
(0.97477337 0.542846823 0)
(1.31621323 0.537676007 3.24342519e-26)
(1.70261732 0.534030269 0)
(2.13832135 0.532428408 0)
(2.62792432 0.533451477 4.88165862e-25)
(3.17588153 0.537751513 6.17744076e-25)
(3.78639913 0.546022978 0)
(4.46327352 0.558966955 0)
(5.20957964 0.577373069 0)
(6.02740651 0.602061011 6.98061013e-26)
(6.91753978 0.633818072 6.29888782e-26)
(7.87910323 0.673357019 1.29828136e-24)
(8.90919458 0.721271175 1.61322121e-24)
(10.0025562 0.777984502 1.92128958e-24)
(11.1512875 0.843696905 2.28661229e-24)
(12.3446956 0.918401544 2.66842082e-24)
(13.5692735 1.00140432 2.91408697e-24)
(14.8084805 1.09183289 0)
(16.0433993 1.18859904 0)
(17.2532687 1.29016899 -3.23574807e-24)
(18.416767 1.39476015 -6.78825239e-24)
(19.5105561 1.50036821 -3.59381986e-24)
(20.5145681 1.6061041 -3.66820067e-24)
(21.4045856 1.70682885 -3.24118333e-24)
(22.1824311 1.79750769 7.73983519e-24)
(22.8189992 1.86953245 1.62603981e-23)
(23.3597875 1.92502094 3.33781174e-25)
(23.7219631 1.96018043 -1.21282295e-23)
(23.8993413 1.98849641 3.42835214e-25)
(23.9465445 1.98833319 -8.10544162e-25)
(23.9577417 1.99528409 6.13822377e-24)
(23.9553607 1.99185806 -7.27703231e-32)
(23.9622798 1.96074332 -1.16274459e-23)
(23.973624 1.93588973 -5.98923659e-25)
(23.9998521 1.92569813 1.01367907e-23)
(24.0361238 1.91086559 9.9877994e-24)
(24.094994 1.8720237 0)
(24.1358988 1.80492655 1.00478198e-24)
(24.1575593 1.83982271 0)
(24.1474427 1.84214162 1.15348987e-23)
(24.1470247 1.82976474 1.64016405e-23)
(24.1696795 1.76718148 1.03655179e-23)
(24.1808023 1.73884562 9.86304165e-24)
(24.1727484 1.7073468 2.03551402e-23)
(-0.0369248512 0.0196993433 1.67673878e-27)
(-0.107454305 0.0570105293 5.1223734e-27)
(-0.176274666 0.0930746027 -9.03877311e-28)
(-0.243790917 0.128143587 -3.05950353e-27)
(-0.310090463 0.162333242 -1.62194808e-27)
(-0.375021788 0.195634246 -1.10177481e-27)
(-0.438281057 0.227965978 -2.23663807e-27)
(-0.499467119 0.259210548 -6.18504958e-27)
(-0.558113893 0.289231229 -8.66357569e-27)
(-0.613711682 0.317885786 -1.17551182e-26)
(-0.66571479 0.345051845 0)
(-0.713565444 0.370582235 -5.78992542e-27)
(-0.756668893 0.394378016 3.04939276e-27)
(-0.794436798 0.416320316 0)
(-0.826231716 0.43637082 0)
(-0.851440213 0.454460735 0)
(-0.869409819 0.470567416 0)
(-0.879449983 0.484684896 -3.91288973e-27)
(-0.880820576 0.496829116 0)
(-0.87274065 0.507021065 -6.20869496e-26)
(-0.854329443 0.515327558 -6.88362632e-26)
(-0.824642092 0.521800835 1.23731175e-25)
(-0.782622615 0.526529296 1.4682668e-25)
(-0.727100909 0.529614798 -1.50797453e-25)
(-0.656768096 0.531177439 -1.86922031e-25)
(-0.570129856 0.531356483 -1.8970239e-25)
(-0.465547138 0.53030142 -1.85624097e-25)
(-0.341358704 0.528018931 -2.42001941e-25)
(-0.195356993 0.52472106 -5.35197324e-25)
(-0.0253899323 0.521571572 -2.7900134e-25)
(0.16595111 0.519004386 0)
(0.391573719 0.515813014 -2.92519701e-26)
(0.650189792 0.512140614 -3.06939616e-26)
(0.944850095 0.509502483 0)
(1.27949829 0.508443361 3.24524242e-26)
(1.6576767 0.50921236 0)
(2.08338406 0.512360387 0)
(2.56083724 0.51849801 4.99452728e-25)
(3.09414665 0.528298149 -3.7355601e-26)
(3.68724473 0.542498793 -5.76636402e-25)
(4.343731 0.561867553 6.89847638e-25)
(5.06659714 0.587217202 7.41770267e-25)
(5.85797755 0.619370066 3.77401954e-26)
(6.71887401 0.659103909 0)
(7.64883859 0.707113959 1.09696336e-24)
(8.64564875 0.763970905 1.4373323e-24)
(9.7049841 0.830063087 0)
(10.8201289 0.905527012 0)
(11.9817509 0.990193955 -2.32460744e-24)
(13.1778004 1.08354173 -2.71218905e-24)
(14.393554 1.18453359 3.00671615e-24)
(15.6117264 1.2915025 3.19881994e-24)
(16.8128068 1.40264955 -3.31480659e-24)
(17.9759786 1.51550791 1.31447149e-32)
(19.0805992 1.62711768 3.74375367e-24)
(20.1065647 1.73424299 1.94168102e-26)
(21.0348698 1.83415525 0)
(21.848183 1.92449296 1.98681724e-25)
(22.5321076 2.00488359 -4.4542433e-24)
(23.0750593 2.07451573 2.73735302e-25)
(23.4916039 2.11927741 5.50762816e-24)
(23.7894254 2.15554266 0)
(23.9034607 2.17567393 3.48899933e-25)
(23.9285171 2.17290857 0)
(23.9385 2.18646502 3.12028052e-25)
(23.9337147 2.18180746 -2.17526404e-25)
(23.9403749 2.13435038 -6.32239805e-25)
(23.9474823 2.12475633 -9.93053117e-24)
(23.9757837 2.08773131 -1.39732142e-23)
(24.0104749 2.02234306 -8.48532965e-25)
(24.0410503 1.98672672 -1.15791337e-23)
(24.0521195 1.9637142 -1.22455337e-23)
(24.070766 1.94031537 -1.30270287e-23)
(24.113819 1.86098993 -1.26703696e-23)
(24.1462021 1.79384575 -1.68093253e-23)
(24.1500006 1.79325432 -1.33894982e-23)
(24.1436255 1.81477925 1.1472484e-23)
(24.1586416 1.76606028 1.3096157e-23)
(24.1672558 1.72833018 -2.41708232e-24)
(24.1796955 1.73119809 1.76995021e-24)
(-0.0396282847 0.0191860142 1.33631126e-27)
(-0.114783058 0.0553128369 -4.90325145e-27)
(-0.187508212 0.0900119881 -1.04096734e-27)
(-0.258170845 0.123519288 -1.07059752e-33)
(-0.32679089 0.15593744 4.99312678e-28)
(-0.393131649 0.187252419 -1.21724184e-27)
(-0.456793284 0.217385826 4.86121718e-27)
(-0.517266775 0.246235342 2.04528325e-33)
(-0.573968091 0.273665658 -1.90091305e-26)
(-0.626250304 0.299555682 -1.40310192e-26)
(-0.673434411 0.323770398 3.15551645e-27)
(-0.714791413 0.346222147 -2.41769219e-26)
(-0.749593664 0.36681471 -2.16972267e-26)
(-0.777084121 0.385487909 -2.98402258e-26)
(-0.79648165 0.402206426 -3.48678659e-26)
(-0.806975108 0.416960495 4.03673768e-26)
(-0.807704879 0.4297711 4.60972955e-26)
(-0.797775241 0.440661887 -4.42082868e-27)
(-0.776175966 0.449719203 0)
(-0.741849822 0.45700941 -6.05996077e-26)
(-0.693621527 0.462648349 -7.2708812e-26)
(-0.630197791 0.466768292 -1.07602066e-26)
(-0.550127226 0.469524633 8.76275978e-26)
(-0.451820651 0.471089954 1.04595876e-25)
(-0.333635627 0.471534983 -2.44495386e-26)
(-0.193511491 0.471093735 0)
(-0.0293207328 0.470730027 1.33070277e-26)
(0.157064909 0.470811791 1.46860107e-28)
(0.376589238 0.470615934 -2.73825899e-25)
(0.628428997 0.47033684 -3.12871194e-25)
(0.915503293 0.471269623 3.40746223e-25)
(1.24138078 0.473962039 3.05999789e-25)
(1.60938267 0.478735924 -6.80238156e-26)
(2.02320177 0.486171924 -3.77539703e-25)
(2.4867136 0.496916502 -2.59837044e-32)
(3.00372423 0.511675679 4.95190215e-25)
(3.57789972 0.531212078 -5.88408662e-25)
(4.21262944 0.556316225 -6.13098248e-25)
(4.91080396 0.587804285 -7.90861966e-26)
(5.67458372 0.626500902 3.98752893e-26)
(6.50516143 0.673187764 3.82188691e-26)
(7.40247566 0.728567666 -1.03521599e-24)
(8.36490538 0.793220051 -2.3796549e-24)
(9.3889645 0.86754616 -1.41564156e-24)
(10.4690153 0.95170694 -1.72117582e-24)
(11.5970258 1.04555711 -1.95865473e-24)
(12.7623998 1.14859144 0)
(13.9518985 1.2598747 2.66223425e-24)
(15.1497908 1.37815939 3.10849369e-24)
(16.3382129 1.50112799 3.28360047e-24)
(17.4974089 1.62656467 6.89902375e-24)
(18.6066233 1.75167936 7.22016805e-24)
(19.6454519 1.87326565 7.58247061e-24)
(20.594725 1.98760571 7.95112956e-24)
(21.438048 2.09104966 4.1693793e-24)
(22.163803 2.17974568 -2.58762374e-25)
(22.7623363 2.25113387 0)
(23.232897 2.30555807 -4.45279768e-24)
(23.569443 2.34129654 -4.59827586e-24)
(23.8001759 2.36405843 0)
(23.9085338 2.3792774 -5.15850837e-24)
(23.922718 2.38503787 -5.42330003e-24)
(23.9124831 2.37871894 0)
(23.912499 2.37116668 -1.72438892e-25)
(23.930879 2.3286403 0)
(23.9386205 2.31614931 -1.07463334e-23)
(23.944045 2.2925636 -9.8577974e-25)
(23.9573591 2.27211862 1.15909806e-23)
(23.9665392 2.23536488 -7.57626075e-25)
(23.9890235 2.20599369 -5.69533742e-25)
(24.0176745 2.13965726 -1.01270845e-23)
(24.0267462 2.08014871 -1.15647415e-23)
(24.0233938 2.05565071 -4.98561677e-25)
(24.02653 2.0274377 -4.40791249e-25)
(24.0855616 1.92538795 -5.7142329e-26)
(24.1283026 1.83828313 -9.04208744e-25)
(24.1300676 1.83838355 1.06097414e-23)
(24.1200641 1.82948438 2.65151232e-23)
(24.1097511 1.79313621 1.41988051e-23)
(24.0976362 1.80224677 -1.04939566e-24)
(-0.0418883835 0.0182950338 0)
(-0.120588832 0.05253222 -1.13757763e-27)
(-0.195898449 0.0852079777 1.19871522e-27)
(-0.268111253 0.116539052 -3.6303292e-27)
(-0.337144811 0.14661332 1.33064235e-27)
(-0.402640482 0.175414543 1.40125855e-27)
(-0.464061457 0.202870219 -1.00972738e-26)
(-0.520753666 0.22887421 0)
(-0.571969716 0.253327892 3.25926417e-27)
(-0.616908687 0.276121115 -2.04330861e-26)
(-0.654719636 0.29716251 -2.11251492e-26)
(-0.684515752 0.31638076 2.93922202e-26)
(-0.705378624 0.333729394 3.99074509e-27)
(-0.716355559 0.349190364 -7.59682833e-26)
(-0.716447254 0.362783024 -9.18087428e-26)
(-0.704630701 0.374528152 -4.728103e-26)
(-0.679754374 0.384527493 -4.83892624e-27)
(-0.64064464 0.392857783 -6.58438698e-26)
(-0.586005545 0.399659796 -6.80764627e-26)
(-0.514418057 0.40509565 5.51863411e-27)
(-0.424338608 0.409352616 -5.8178729e-27)
(-0.314153515 0.412554055 -2.42345576e-26)
(-0.18193392 0.414949672 -1.14670836e-25)
(-0.025588657 0.417336868 -2.44957491e-25)
(0.153653372 0.420040601 -1.16839996e-25)
(0.364933131 0.422727139 -1.45152141e-26)
(0.607853014 0.425637848 -1.20192783e-25)
(0.885209432 0.429877555 1.56535941e-26)
(1.20024241 0.435997446 -1.62430125e-26)
(1.55606169 0.444388722 -1.68325377e-25)
(1.95607796 0.455659323 0)
(2.40385344 0.470479362 -4.55895897e-25)
(2.90291106 0.489572937 -3.76206446e-26)
(3.45666793 0.513714737 5.66277712e-25)
(4.06831643 0.543709191 6.24736881e-25)
(4.74064538 0.580376813 6.90660878e-25)
(5.47583116 0.624547043 -4.0561011e-26)