/*--------------------------------*- C++ -*----------------------------------*\
  =========                 |
  \\      /  F ield         | OpenFOAM: The Open Source CFD Toolbox
   \\    /   O peration     | Website:  https://openfoam.org
    \\  /    A nd           | Version:  8
     \\/     M anipulation  |
\*---------------------------------------------------------------------------*/
FoamFile
{
    version     2.0;
    format      ascii;
    class       volScalarField;
    location    "0.038";
    object      p;
}
// * * * * * * * * * * * * * * * * * * * * * * * * * * * * * * * * * * * * * //

dimensions      [1 -1 -2 0 0 0 0];

internalField   nonuniform List<scalar> 
42400
(
101424.077
101424.065
101424.053
101424.042
101424.032
101424.024
101424.017
101424.01
101424.005
101424.002
101423.999
101423.998
101423.998
101423.999
101424.002
101424.007
101424.012
101424.019
101424.028
101424.038
101424.05
101424.063
101424.077
101424.093
101424.111
101424.13
101424.15
101424.172
101424.196
101424.221
101424.247
101424.276
101424.306
101424.338
101424.371
101424.406
101424.444
101424.489
101424.545
101424.607
101424.668
101424.717
101424.759
101424.803
101424.852
101424.915
101424.994
101425.079
101425.17
101425.266
101425.366
101425.486
101425.623
101425.781
101425.941
101426.099
101426.292
101426.515
101426.766
101427.036
101427.334
101427.662
101428.031
101428.443
101428.897
101429.385
101429.931
101430.561
101431.107
101431.786
101433.193
101433.796
101433.629
101435.627
101438.032
101437.631
101437.487
101438.275
101440.115
101442.432
101423.792
101423.782
101423.772
101423.763
101423.755
101423.748
101423.742
101423.738
101423.734
101423.731
101423.729
101423.729
101423.73
101423.731
101423.735
101423.739
101423.745
101423.751
101423.76
101423.769
101423.78
101423.792
101423.805
101423.82
101423.835
101423.852
101423.871
101423.89
101423.911
101423.933
101423.956
101423.98
101424.005
101424.032
101424.065
101424.106
101424.15
101424.188
101424.216
101424.239
101424.264
101424.3
101424.349
101424.4
101424.455
101424.511
101424.568
101424.636
101424.723
101424.825
101424.917
101424.998
101425.107
101425.24
101425.394
101425.559
101425.741
101425.948
101426.184
101426.456
101426.767
101427.116
101427.501
101427.928
101428.414
101428.956
101429.565
101430.332
101431.092
101431.687
101433.105
101434.719
101435.307
101437.004
101439.087
101440.135
101441.79
101445.894
101449.295
101449.426
101423.366
101423.358
101423.351
101423.344
101423.338
101423.333
101423.329
101423.325
101423.323
101423.321
101423.321
101423.322
101423.323
101423.326
101423.33
101423.335
101423.342
101423.349
101423.358
101423.368
101423.379
101423.391
101423.405
101423.419
101423.435
101423.453
101423.471
101423.49
101423.51
101423.531
101423.556
101423.584
101423.616
101423.65
101423.679
101423.699
101423.718
101423.742
101423.774
101423.811
101423.85
101423.891
101423.932
101423.971
101424.024
101424.1
101424.181
101424.227
101424.271
101424.351
101424.451
101424.555
101424.668
101424.797
101424.943
101425.114
101425.316
101425.547
101425.809
101426.109
101426.451
101426.845
101427.299
101427.809
101428.384
101429.026
101429.732
101430.552
101431.56
101432.26
101433.33
101434.734
101435.652
101437.64
101441.327
101443.576
101444.535
101446.678
101449.97
101451.723
101422.826
101422.82
101422.814
101422.809
101422.805
101422.801
101422.798
101422.797
101422.796
101422.796
101422.797
101422.799
101422.802
101422.807
101422.812
101422.819
101422.828
101422.837
101422.848
101422.86
101422.873
101422.888
101422.904
101422.921
101422.94
101422.959
101422.981
101423.004
101423.03
101423.059
101423.086
101423.11
101423.133
101423.157
101423.185
101423.219
101423.255
101423.291
101423.329
101423.367
101423.402
101423.449
101423.516
101423.569
101423.603
101423.655
101423.724
101423.802
101423.878
101423.962
101424.058
101424.169
101424.299
101424.449
101424.62
101424.818
101425.05
101425.323
101425.644
101426.02
101426.459
101426.967
101427.556
101428.224
101428.977
101429.807
101430.751
101431.761
101432.994
101434.099
101435.36
101438.594
101440.785
101441.339
101442.424
101444.89
101447.719
101449.668
101451.612
101453.304
101422.191
101422.186
101422.181
101422.176
101422.173
101422.17
101422.169
101422.168
101422.168
101422.17
101422.172
101422.176
101422.181
101422.187
101422.195
101422.204
101422.215
101422.227
101422.241
101422.257
101422.273
101422.291
101422.31
101422.331
101422.354
101422.38
101422.406
101422.434
101422.462
101422.491
101422.522
101422.557
101422.594
101422.632
101422.67
101422.711
101422.751
101422.789
101422.836
101422.902
101422.953
101422.987
101423.038
101423.102
101423.167
101423.235
101423.309
101423.392
101423.485
101423.59
101423.709
101423.845
101424.003
101424.188
101424.408
101424.669
101424.974
101425.336
101425.761
101426.259
101426.838
101427.503
101428.265
101429.134
101430.096
101431.152
101432.265
101433.498
101435.061
101437.939
101439.902
101440.439
101442.163
101444.595
101446.212
101447.906
101450.093
101452.002
101453.551
101454.671
101421.447
101421.442
101421.438
101421.434
101421.431
101421.429
101421.429
101421.429
101421.43
101421.433
101421.437
101421.443
101421.45
101421.459
101421.47
101421.482
101421.496
101421.512
101421.528
101421.546
101421.568
101421.592
101421.619
101421.647
101421.678
101421.71
101421.744
101421.78
101421.818
101421.857
101421.898
101421.94
101421.984
101422.029
101422.072
101422.123
101422.191
101422.245
101422.284
101422.339
101422.406
101422.471
101422.539
101422.611
101422.69
101422.776
101422.87
101422.976
101423.095
101423.233
101423.394
101423.582
101423.804
101424.066
101424.373
101424.736
101425.161
101425.657
101426.232
101426.902
101427.66
101428.53
101429.484
101430.577
101431.589
101432.808
101434.785
101437.157
101439.084
101440.012
101441.192
101442.826
101444.613
101446.458
101448.469
101450.533
101452.655
101454.321
101455.632
101457.147
101420.589
101420.584
101420.579
101420.575
101420.573
101420.572
101420.572
101420.573
101420.576
101420.58
101420.586
101420.594
101420.604
101420.615
101420.628
101420.644
101420.662
101420.683
101420.707
101420.733
101420.761
101420.79
101420.822
101420.857
101420.894
101420.932
101420.974
101421.017
101421.063
101421.111
101421.16
101421.208
101421.264
101421.335
101421.394
101421.44
101421.501
101421.572
101421.642
101421.713
101421.788
101421.868
101421.954
101422.046
101422.149
101422.263
101422.392
101422.539
101422.71
101422.909
101423.143
101423.418
101423.741
101424.12
101424.563
101425.078
101425.671
101426.35
101427.114
101427.988
101428.92
101429.952
101430.993
101432.6
101435.258
101437.495
101438.492
101439.356
101440.656
101442.01
101444.077
101446.061
101447.929
101449.677
101451.385
101453.257
101455.044
101456.362
101457.867
101459.971
101419.575
101419.57
101419.566
101419.563
101419.561
101419.561
101419.563
101419.566
101419.571
101419.578
101419.587
101419.598
101419.611
101419.627
101419.646
101419.666
101419.689
101419.715
101419.743
101419.774
101419.808
101419.844
101419.883
101419.925
101419.97
101420.017
101420.067
101420.119
101420.171
101420.23
101420.302
101420.364
101420.417
101420.484
101420.559
101420.633
101420.708
101420.788
101420.872
101420.96
101421.055
101421.158
101421.271
101421.396
101421.536
101421.696
101421.881
101422.095
101422.345
101422.638
101422.982
101423.385
101423.854
101424.4
101425.031
101425.757
101426.585
101427.521
101428.571
101429.782
101431.071
101432.584
101434.514
101436.162
101437.196
101438.101
101439.435
101441.052
101442.74
101444.516
101446.055
101447.78
101449.272
101450.642
101452.653
101454.558
101456.147
101457.697
101459.848
101462.021
101418.382
101418.378
101418.375
101418.374
101418.374
101418.376
101418.38
101418.386
101418.394
101418.405
101418.418
101418.434
101418.451
101418.471
101418.495
101418.52
101418.549
101418.581
101418.616
101418.654
101418.695
101418.739
101418.786
101418.836
101418.889
101418.943
101419.003
101419.074
101419.14
101419.197
101419.267
101419.345
101419.423
101419.503
101419.586
101419.674
101419.767
101419.865
101419.97
101420.083
101420.207
101420.344
101420.497
101420.671
101420.87
101421.099
101421.365
101421.676
101422.039
101422.459
101422.947
101423.509
101424.154
101424.889
101425.722
101426.656
101427.694
101428.815
101430.047
101431.36
101432.712
101434.009
101435.561
101437.102
101438.209
101439.457
101440.88
101442.683
101444.454
101446.048
101447.797
101449.446
101451.203
101453.186
101454.901
101456.176
101457.988
101460.627
101462.677
101464.754
101416.976
101416.975
101416.974
101416.975
101416.979
101416.984
101416.992
101417.002
101417.014
101417.029
101417.047
101417.068
101417.091
101417.118
101417.148
101417.181
101417.217
101417.256
101417.299
101417.346
101417.395
101417.448
101417.503
101417.563
101417.634
101417.7
101417.762
101417.835
101417.915
101417.995
101418.079
101418.166
101418.257
101418.354
101418.455
101418.563
101418.679
101418.804
101418.94
101419.09
101419.258
101419.447
101419.662
101419.908
101420.192
101420.519
101420.898
101421.335
101421.836
101422.407
101423.054
101423.785
101424.604
101425.514
101426.515
101427.617
101428.779
101430.029
101431.394
101432.821
101434.271
101435.849
101437.031
101438.221
101439.752
101441.461
101443.377
101444.738
101446.179
101448.069
101450.089
101452.025
101453.583
101455.61
101457.786
101459.668
101461.676
101463.544
101465.215
101467.047
101415.327
101415.329
101415.332
101415.337
101415.345
101415.355
101415.368
101415.383
101415.402
101415.423
101415.447
101415.475
101415.507
101415.541
101415.579
101415.621
101415.666
101415.715
101415.767
101415.823
101415.883
101415.953
101416.021
101416.087
101416.162
101416.243
101416.327
101416.413
101416.504
101416.599
101416.7
101416.805
101416.917
101417.036
101417.164
101417.303
101417.454
101417.62
101417.806
101418.014
101418.25
101418.519
101418.826
101419.178
101419.581
101420.042
101420.567
101421.158
101421.822
101422.561
101423.379
101424.278
101425.259
101426.317
101427.435
101428.635
101429.768
101431.211
101433.049
101434.739
101436.339
101438.066
101439.641
101441.048
101442.639
101444.533
101446.182
101447.794
101449.659
101451.692
101453.222
101454.334
101456.179
101458.245
101459.743
101461.299
101462.906
101464.744
101466.581
101468.053
101413.393
101413.399
101413.408
101413.419
101413.433
101413.449
101413.469
101413.492
101413.518
101413.547
101413.581
101413.617
101413.658
101413.703
101413.751
101413.803
101413.86
101413.924
101413.989
101414.055
101414.127
101414.205
101414.288
101414.374
101414.464
101414.558
101414.657
101414.761
101414.871
101414.987
101415.11
101415.241
101415.383
101415.536
101415.703
101415.888
101416.094
101416.325
101416.585
101416.881
101417.217
101417.601
101418.038
101418.534
101419.096
101419.728
101420.433
101421.213
101422.068
101422.998
101423.99
101425.041
101426.139
101427.408
101429.159
101431.189
101433.236
101434.838
101435.875
101436.968
101438.157
101439.386
101440.924
101442.93
101444.976
101446.559
101448.001
101449.628
101450.962
101452.24
101453.798
101455.263
101456.535
101458.303
101460.703
101462.938
101465.161
101467.517
101469.972
101472.386
101411.141
101411.153
101411.169
101411.187
101411.209
101411.233
101411.261
101411.293
101411.329
101411.369
101411.413
101411.46
101411.512
101411.569
101411.632
101411.697
101411.764
101411.838
101411.918
101412.002
101412.089
101412.182
101412.279
101412.381
101412.488
101412.601
101412.721
101412.847
101412.981
101413.125
101413.279
101413.447
101413.631
101413.834
101414.06
101414.312
101414.597
101414.919
101415.284
101415.698
101416.167
101416.698
101417.295
101417.965
101418.711
101419.536
101420.439
101421.426
101422.495
101423.62
101424.822
101426.217
101428.078
101430.04
101431.373
101432.212
101433.122
101434.206
101435.686
101437.375
101439.075
101440.855
101442.819
101444.421
101445.498
101446.779
101448.768
101450.711
101452.467
101454.32
101456.306
101458.8
101461.193
101462.929
101464.751
101466.674
101468.378
101470.159
101471.771
101473.408
101408.52
101408.54
101408.565
101408.593
101408.624
101408.659
101408.698
101408.741
101408.788
101408.839
101408.895
101408.958
101409.023
101409.092
101409.166
101409.247
101409.331
101409.421
101409.515
101409.614
101409.718
101409.828
101409.944
101410.065
101410.194
101410.331
101410.476
101410.632
101410.8
101410.982
101411.182
101411.403
101411.648
101411.923
101412.231
101412.579
101412.973
101413.417
101413.919
101414.485
101415.118
101415.825
101416.608
101417.471
101418.413
101419.437
101420.537
101421.716
101422.977
101424.235
101425.891
101427.863
101429.182
101430.056
101431.084
101432.535
101434.165
101435.896
101437.66
101439.346
101441.115
101442.763
101444.134
101445.899
101448.35
101450.496
101452.031
101453.395
101454.898
101456.932
101459.269
101461.069
101462.766
101464.596
101466.508
101468.453
101470.339
101472.642
101475.344
101476.98
101405.495
101405.525
101405.561
101405.6
101405.643
101405.689
101405.741
101405.797
101405.857
101405.922
101405.992
101406.067
101406.147
101406.232
101406.323
101406.418
101406.518
101406.624
101406.736
101406.853
101406.977
101407.107
101407.245
101407.392
101407.548
101407.716
101407.897
101408.094
101408.31
101408.549
101408.814
101409.109
101409.441
101409.815
101410.235
101410.709
101411.242
101411.838
101412.505
101413.244
101414.059
101414.953
101415.924
101416.971
101418.089
101419.278
101420.511
101421.809
101423.339
101425.347
101426.998
101427.887
101428.983
101430.596
101432.308
101434.045
101435.614
101437.171
101439.081
101440.895
101442.435
101444.498
101446.835
101448.48
101449.724
101451.4
101453.447
101455.84
101458.073
101459.756
101461.484
101463.18
101464.84
101466.471
101468.415
101470.76
101472.847
101475.003
101476.758
101478.477
101402.037
101402.078
101402.128
101402.18
101402.236
101402.297
101402.362
101402.433
101402.508
101402.588
101402.674
101402.764
101402.86
101402.962
101403.069
101403.181
101403.3
101403.425
101403.557
101403.696
101403.844
101404
101404.168
101404.348
101404.543
101404.755
101404.988
101405.245
101405.531
101405.85
101406.207
101406.607
101407.057
101407.563
101408.129
101408.761
101409.463
101410.239
101411.091
101412.02
101413.027
101414.108
101415.261
101416.484
101417.758
101419.107
101420.516
101422.274
101424.281
101425.844
101427.28
101428.855
101430.426
101432.016
101433.859
101435.965
101437.858
101439.449
101440.944
101442.69
101444.769
101446.237
101447.766
101450.126
101452.067
101453.788
101455.315
101456.439
101458.19
101460.954
101463.345
101465.329
101467.229
101469.804
101471.7
101473.056
101474.697
101476.82
101479.644
101481.916
101398.128
101398.183
101398.249
101398.316
101398.387
101398.463
101398.544
101398.631
101398.722
101398.819
101398.921
101399.028
101399.142
101399.262
101399.388
101399.521
101399.661
101399.81
101399.968
101400.136
101400.316
101400.51
101400.721
101400.951
101401.203
101401.483
101401.793
101402.14
101402.529
101402.965
101403.454
101404.004
101404.619
101405.305
101406.067
101406.91
101407.835
101408.845
101409.939
101411.116
101412.368
101413.69
101415.074
101416.515
101417.973
101419.701
101422.056
101423.93
101425.059
101426.128
101427.568
101429.483
101431.436
101433.399
101435.08
101436.219
101437.754
101440.489
101442.061
101443.708
101445.991
101447.929
101449.414
101451.157
101453.364
101454.991
101456.754
101459.368
101461.178
101462.439
101464.414
101467.122
101469.411
101470.891
101472.87
101475.387
101477.785
101480.011
101481.953
101483.761
101393.802
101393.872
101393.954
101394.037
101394.125
101394.217
101394.314
101394.416
101394.524
101394.637
101394.757
101394.882
101395.014
101395.153
101395.3
101395.456
101395.621
101395.798
101395.988
101396.193
101396.415
101396.658
101396.925
101397.221
101397.549
101397.915
101398.325
101398.783
101399.297
101399.871
101400.513
101401.226
101402.017
101402.889
101403.847
101404.893
101406.031
101407.263
101408.597
101410.028
101411.548
101413.147
101414.78
101416.466
101418.202
101420.169
101421.468
101422.73
101424.605
101426.503
101428.346
101430.171
101431.88
101433.744
101436.136
101438.653
101440.628
101441.564
101443.093
101445.496
101447.111
101448.876
101450.806
101452.313
101454.101
101456.854
101459.509
101461.269
101462.755
101465.062
101467.517
101470.024
101472.625
101474.922
101476.047
101477.601
101480.365
101482.514
101483.943
101485.382
101389.095
101389.181
101389.281
101389.381
101389.486
101389.595
101389.709
101389.829
101389.955
101390.088
101390.227
101390.374
101390.529
101390.694
101390.87
101391.058
101391.26
101391.479
101391.717
101391.979
101392.266
101392.585
101392.939
101393.334
101393.775
101394.267
101394.818
101395.431
101396.112
101396.865
101397.693
101398.598
101399.579
101400.634
101401.758
101402.943
101404.179
101405.429
101406.708
101408.317
101410.405
101412.734
101415.094
101417.32
101419.697
101421.238
101422.367
101423.989
101425.863
101427.836
101429.824
101431.877
101434.247
101436.44
101438
101439.367
101440.791
101442.769
101444.815
101446.238
101448.32
101451.222
101454.205
101457.021
101459.425
101460.953
101462.359
101464.498
101466.694
101468.499
101470.333
101472.177
101474.056
101476.154
101478.746
101481.16
101482.549
101483.481
101485.061
101487.886
101384.1
101384.202
101384.319
101384.436
101384.556
101384.681
101384.811
101384.948
101385.091
101385.241
101385.4
101385.569
101385.75
101385.943
101386.152
101386.379
101386.628
101386.901
101387.203
101387.539
101387.915
101388.335
101388.806
101389.335
101389.928
101390.592
101391.334
101392.158
101393.072
101394.079
101395.183
101396.387
101397.694
101399.105
101400.623
101402.248
101403.97
101405.755
101407.995
101410.514
101412.631
101414.046
101415.227
101416.485
101417.707
101419.372
101421.686
101423.967
101426.116
101428.246
101430.369
101432.376
101434.33
101436.635
101439.356
101441.775
101443.823
101445.663
101447.398
101449.118
101451.103
101453.37
101455.387
101457.416
101459.16
101461.376
101464.204
101466.484
101468.904
101471.316
101473.553
101475.726
101478.115
101479.88
101481.475
101483.101
101484.747
101486.757
101489.16
101490.414
101407.588
101407.594
101407.599
101407.602
101407.603
101407.602
101407.6
101407.595
101407.588
101407.578
101407.567
101407.553
101407.536
101407.517
101407.496
101407.472
101407.444
101407.414
101407.381
101407.345
101407.305
101407.262
101407.215
101407.164
101407.109
101407.049
101406.986
101406.917
101406.844
101406.765
101406.681
101406.591
101406.495
101406.392
101406.283
101406.167
101406.043
101405.911
101405.771
101405.622
101405.464
101405.296
101405.118
101404.929
101404.729
101404.518
101404.295
101404.06
101403.805
101403.535
101403.257
101402.961
101402.647
101402.313
101401.959
101401.581
101401.179
101400.751
101400.292
101399.801
101399.273
101398.704
101398.089
101397.421
101396.691
101395.891
101395.014
101394.056
101392.987
101391.829
101390.421
101389.018
101387.642
101385.674
101383.326
101381.129
101379.052
101375.734
101371.293
101368.653
101407.433
101407.44
101407.446
101407.449
101407.451
101407.45
101407.448
101407.443
101407.436
101407.426
101407.415
101407.4
101407.384
101407.364
101407.342
101407.317
101407.289
101407.258
101407.224
101407.186
101407.145
101407.1
101407.052
101406.999
101406.942
101406.881
101406.815
101406.744
101406.668
101406.586
101406.499
101406.406
101406.306
101406.2
101406.087
101405.967
101405.838
101405.702
101405.557
101405.404
101405.24
101405.067
101404.884
101404.69
101404.484
101404.268
101404.04
101403.798
101403.544
101403.266
101402.971
101402.669
101402.351
101402.013
101401.653
101401.27
101400.863
101400.428
101399.963
101399.464
101398.927
101398.345
101397.712
101397.01
101396.218
101395.317
101394.285
101393.133
101391.909
101390.719
101389.517
101387.912
101386.193
101384.543
101382.354
101379.503
101376.826
101374.557
101371.345
101366.068
101407.573
101407.58
101407.586
101407.59
101407.592
101407.592
101407.59
101407.586
101407.58
101407.571
101407.56
101407.547
101407.531
101407.512
101407.491
101407.467
101407.44
101407.41
101407.377
101407.341
101407.301
101407.257
101407.21
101407.159
101407.104
101407.044
101406.98
101406.91
101406.836
101406.757
101406.672
101406.581
101406.484
101406.38
101406.27
101406.152
101406.027
101405.893
101405.752
101405.602
101405.442
101405.273
101405.094
101404.904
101404.704
101404.492
101404.268
101404.033
101403.784
101403.524
101403.248
101402.954
101402.642
101402.311
101401.959
101401.583
101401.181
101400.745
101400.272
101399.754
101399.184
101398.548
101397.883
101397.198
101396.459
101395.662
101394.797
101393.734
101392.428
101390.924
101389.149
101387.543
101385.758
101383.584
101381.549
101379.294
101376.299
101372.535
101369.58
101366.936
101407.984
101407.991
101407.998
101408.003
101408.006
101408.006
101408.005
101408.002
101407.997
101407.99
101407.98
101407.968
101407.954
101407.937
101407.917
101407.895
101407.871
101407.843
101407.813
101407.779
101407.742
101407.701
101407.658
101407.61
101407.558
101407.503
101407.443
101407.378
101407.309
101407.235
101407.156
101407.071
101406.98
101406.884
101406.781
101406.671
101406.555
101406.431
101406.299
101406.16
101406.013
101405.857
101405.691
101405.517
101405.332
101405.138
101404.933
101404.717
101404.489
101404.25
101403.998
101403.73
101403.447
101403.145
101402.823
101402.48
101402.12
101401.741
101401.336
101400.901
101400.43
101399.919
101399.309
101398.573
101397.745
101396.812
101395.757
101394.695
101393.607
101392.323
101390.769
101388.868
101386.683
101384.495
101382.266
101379.658
101376.597
101373.152
101368.88
101365.349
101408.668
101408.676
101408.683
101408.688
101408.692
101408.694
101408.694
101408.692
101408.688
101408.683
101408.675
101408.666
101408.654
101408.64
101408.623
101408.605
101408.584
101408.56
101408.534
101408.505
101408.473
101408.437
101408.399
101408.358
101408.313
101408.264
101408.211
101408.155
101408.094
101408.029
101407.959
101407.884
101407.804
101407.719
101407.628
101407.531
101407.429
101407.319
101407.203
101407.08
101406.95
101406.812
101406.666
101406.513
101406.351
101406.18
101406.001
101405.812
101405.614
101405.407
101405.189
101404.958
101404.715
101404.455
101404.178
101403.881
101403.558
101403.212
101402.839
101402.438
101402.003
101401.523
101400.989
101400.376
101399.67
101398.864
101397.941
101396.889
101395.706
101394.411
101392.942
101391.257
101389.313
101387.052
101384.498
101381.849
101379.066
101375.978
101372.393
101367.673
101409.58
101409.587
101409.595
101409.601
101409.605
101409.608
101409.609
101409.609
101409.607
101409.604
101409.599
101409.592
101409.583
101409.573
101409.56
101409.545
101409.529
101409.51
101409.489
101409.465
101409.439
101409.411
101409.379
101409.345
101409.308
101409.268
101409.225
101409.178
101409.128
101409.074
101409.017
101408.955
101408.889
101408.819
101408.744
101408.664
101408.58
101408.49
101408.395
101408.294
101408.188
101408.075
101407.957
101407.833
101407.702
101407.564
101407.42
101407.27
101407.112
101406.947
101406.774
101406.592
101406.399
101406.195
101405.978
101405.745
101405.493
101405.217
101404.913
101404.579
101404.208
101403.793
101403.323
101402.788
101402.174
101401.47
101400.662
101399.744
101398.679
101397.435
101396.043
101394.507
101392.753
101390.689
101388.312
101385.734
101382.906
101379.707
101376.276
101372.322
101410.699
101410.706
101410.714
101410.72
101410.725
101410.729
101410.731
101410.733
101410.733
101410.732
101410.73
101410.726
101410.72
101410.714
101410.705
101410.695
101410.684
101410.67
101410.655
101410.638
101410.619
101410.598
101410.575
101410.549
101410.522
101410.492
101410.459
101410.424
101410.386
101410.345
101410.301
101410.254
101410.204
101410.15
101410.093
101410.032
101409.967
101409.899
101409.826
101409.75
101409.669
101409.584
101409.495
101409.402
101409.304
101409.202
101409.096
101408.986
101408.871
101408.753
101408.629
101408.501
101408.367
101408.224
101408.072
101407.91
101407.733
101407.54
101407.327
101407.087
101406.815
101406.504
101406.145
101405.726
101405.238
101404.665
101403.994
101403.214
101402.312
101401.245
101400.004
101398.6
101396.986
101395.135
101393.066
101390.604
101387.844
101384.885
101381.672
101377.843
101411.969
101411.976
101411.983
101411.99
101411.995
101412
101412.004
101412.007
101412.009
101412.011
101412.011
101412.01
101412.008
101412.005
101412.001
101411.996
101411.99
101411.982
101411.973
101411.963
101411.951
101411.938
101411.923
101411.907
101411.889
101411.869
101411.848
101411.825
101411.8
101411.773
101411.744
101411.713
101411.679
101411.644
101411.606
101411.565
101411.523
101411.478
101411.43
101411.381
101411.329
101411.274
101411.218
101411.159
101411.099
101411.037
101410.973
101410.908
101410.842
101410.774
101410.706
101410.637
101410.566
101410.492
101410.414
101410.33
101410.239
101410.139
101410.024
101409.892
101409.736
101409.549
101409.323
101409.047
101408.711
101408.301
101407.805
101407.207
101406.485
101405.621
101404.59
101403.36
101401.917
101400.256
101398.342
101396.07
101393.562
101390.908
101387.574
101384.202
101413.355
101413.362
101413.369
101413.375
101413.381
101413.387
101413.392
101413.396
101413.4
101413.403
101413.406
101413.408
101413.409
101413.41
101413.41
101413.41
101413.408
101413.406
101413.403
101413.4
101413.395
101413.39
101413.383
101413.376
101413.368
101413.359
101413.349
101413.338
101413.325
101413.312
101413.298
101413.282
101413.266
101413.248
101413.23
101413.21
101413.19
101413.168
101413.146
101413.123
101413.1
101413.076
101413.053
101413.03
101413.007
101412.985
101412.965
101412.947
101412.931
101412.917
101412.906
101412.899
101412.895
101412.894
101412.895
101412.897
101412.898
101412.897
101412.892
101412.877
101412.85
101412.802
101412.728
101412.617
101412.46
101412.244
101411.954
101411.575
101411.087
101410.467
101409.691
101408.726
101407.543
101406.121
101404.415
101402.472
101400.193
101397.528
101394.319
101391.279
101414.804
101414.809
101414.815
101414.821
101414.827
101414.833
101414.839
101414.844
101414.849
101414.854
101414.859
101414.864
101414.868
101414.872
101414.876
101414.879
101414.883
101414.886
101414.888
101414.891
101414.893
101414.895
101414.897
101414.898
101414.899
101414.9
101414.9
101414.9
101414.9
101414.9
101414.9
101414.9
101414.899
101414.899
101414.899
101414.899
101414.899
101414.901
101414.903
101414.906
101414.911
101414.917
101414.925
101414.937
101414.951
101414.969
101414.991
101415.019
101415.052
101415.091
101415.138
101415.192
101415.255
101415.327
101415.407
101415.496
101415.592
101415.693
101415.799
101415.907
101416.012
101416.111
101416.195
101416.258
101416.289
101416.278
101416.211
101416.072
101415.842
101415.501
101415.023
101414.376
101413.53
101412.469
101411.168
101409.61
101407.706
101405.404
101402.602
101399.62
101416.274
101416.278
101416.283
101416.288
101416.294
101416.299
101416.305
101416.311
101416.317
101416.323
101416.329
101416.336
101416.342
101416.349
101416.356
101416.363
101416.37
101416.377
101416.384
101416.392
101416.4
101416.408
101416.417
101416.425
101416.434
101416.444
101416.454
101416.464
101416.475
101416.486
101416.499
101416.512
101416.526
101416.541
101416.558
101416.576
101416.596
101416.618
101416.642
101416.669
101416.699
101416.733
101416.771
101416.813
101416.862
101416.916
101416.978
101417.048
101417.127
101417.216
101417.317
101417.429
101417.554
101417.694
101417.848
101418.017
101418.201
101418.4
101418.612
101418.835
101419.068
101419.305
101419.542
101419.772
101419.987
101420.177
101420.329
101420.43
101420.462
101420.406
101420.237
101419.924
101419.453
101418.815
101417.98
101416.917
101415.555
101413.905
101411.782
101409.245
101417.716
101417.718
101417.722
101417.726
101417.73
101417.734
101417.74
101417.745
101417.751
101417.758
101417.765
101417.772
101417.78
101417.788
101417.797
101417.807
101417.817
101417.827
101417.839
101417.851
101417.863
101417.877
101417.891
101417.906
101417.922
101417.939
101417.958
101417.977
101417.998
101418.019
101418.043
101418.068
101418.095
101418.124
101418.155
101418.189
101418.225
101418.265
101418.309
101418.356
101418.409
101418.467
101418.53
101418.6
101418.678
101418.764
101418.86
101418.967
101419.086
101419.218
101419.365
101419.527
101419.708
101419.906
101420.125
101420.364
101420.625
101420.907
101421.211
101421.535
101421.878
101422.237
101422.608
101422.985
101423.363
101423.731
101424.079
101424.396
101424.666
101424.871
101424.991
101424.996
101424.879
101424.635
101424.241
101423.665
101422.847
101421.752
101420.283
101418.258
101419.096
101419.096
101419.097
101419.099
101419.102
101419.105
101419.109
101419.114
101419.119
101419.125
101419.132
101419.14
101419.148
101419.158
101419.168
101419.179
101419.191
101419.204
101419.218
101419.233
101419.249
101419.266
101419.285
101419.305
101419.327
101419.349
101419.373
101419.399
101419.427
101419.457
101419.489
101419.524
101419.562
101419.602
101419.645
101419.692
101419.743
101419.798
101419.857
101419.921
101419.99
101420.066
101420.148
101420.238
101420.336
101420.448
101420.576
101420.715
101420.868
101421.035
101421.219
101421.423
101421.646
101421.892
101422.162
101422.456
101422.778
101423.126
101423.502
101423.905
101424.334
101424.788
101425.263
101425.756
101426.26
101426.769
101427.273
101427.761
101428.221
101428.638
101428.994
101429.265
101429.426
101429.482
101429.436
101429.253
101428.913
101428.311
101427.548
101426.057
101420.37
101420.368
101420.366
101420.365
101420.366
101420.367
101420.369
101420.372
101420.376
101420.381
101420.387
101420.394
101420.403
101420.412
101420.422
101420.434
101420.447
101420.461
101420.477
101420.494
101420.512
101420.532
101420.553
101420.576
101420.601
101420.628
101420.657
101420.689
101420.722
101420.758
101420.796
101420.838
101420.883
101420.931
101420.982
101421.038
101421.098
101421.164
101421.236
101421.314
101421.4
101421.495
101421.6
101421.716
101421.841
101421.969
101422.106
101422.256
101422.421
101422.601
101422.81
101423.049