/*--------------------------------*- C++ -*----------------------------------*\
  =========                 |
  \\      /  F ield         | OpenFOAM: The Open Source CFD Toolbox
   \\    /   O peration     | Website:  https://openfoam.org
    \\  /    A nd           | Version:  8
     \\/     M anipulation  |
\*---------------------------------------------------------------------------*/
FoamFile
{
    version     2.0;
    format      ascii;
    class       volScalarField;
    location    "0.038";
    object      p_rgh;
}
// * * * * * * * * * * * * * * * * * * * * * * * * * * * * * * * * * * * * * //

dimensions      [1 -1 -2 0 0 0 0];

internalField   nonuniform List<scalar> 
42400
(
101424.031
101424.019
101424.007
101423.996
101423.986
101423.978
101423.971
101423.965
101423.96
101423.956
101423.954
101423.953
101423.954
101423.956
101423.959
101423.963
101423.97
101423.977
101423.986
101423.997
101424.009
101424.023
101424.038
101424.055
101424.073
101424.092
101424.114
101424.137
101424.161
101424.187
101424.215
101424.245
101424.276
101424.309
101424.344
101424.381
101424.419
101424.466
101424.524
101424.588
101424.65
101424.701
101424.745
101424.791
101424.843
101424.909
101424.99
101425.078
101425.171
101425.27
101425.373
101425.496
101425.636
101425.798
101425.96
101426.122
101426.318
101426.545
101426.799
101427.072
101427.372
101427.703
101428.073
101428.488
101428.943
101429.433
101429.98
101430.594
101431.14
101431.876
101433.191
101433.626
101433.703
101435.746
101437.629
101437.012
101436.944
101438.073
101440.531
101443.004
101423.72
101423.711
101423.701
101423.692
101423.684
101423.678
101423.672
101423.667
101423.663
101423.661
101423.66
101423.659
101423.66
101423.662
101423.666
101423.671
101423.677
101423.684
101423.692
101423.702
101423.714
101423.726
101423.74
101423.755
101423.771
101423.789
101423.808
101423.828
101423.85
101423.873
101423.897
101423.922
101423.948
101423.976
101424.01
101424.051
101424.097
101424.136
101424.165
101424.19
101424.216
101424.254
101424.304
101424.357
101424.414
101424.472
101424.53
101424.6
101424.689
101424.793
101424.887
101424.971
101425.081
101425.217
101425.373
101425.54
101425.725
101425.934
101426.171
101426.445
101426.758
101427.107
101427.493
101427.92
101428.405
101428.944
101429.554
101430.303
101431.021
101431.67
101433.097
101434.494
101435.114
101436.804
101438.522
101439.506
101441.55
101445.312
101448.011
101448.599
101423.268
101423.26
101423.253
101423.246
101423.24
101423.235
101423.231
101423.228
101423.225
101423.224
101423.224
101423.225
101423.227
101423.23
101423.234
101423.239
101423.246
101423.254
101423.263
101423.273
101423.285
101423.298
101423.312
101423.327
101423.343
101423.361
101423.38
101423.4
101423.42
101423.442
101423.467
101423.496
101423.529
101423.564
101423.593
101423.614
101423.634
101423.659
101423.692
101423.73
101423.77
101423.812
101423.854
101423.894
101423.949
101424.026
101424.106
101424.153
101424.2
101424.282
101424.383
101424.489
101424.603
101424.733
101424.881
101425.054
101425.257
101425.489
101425.753
101426.053
101426.396
101426.79
101427.243
101427.75
101428.321
101428.957
101429.661
101430.479
101431.436
101432.126
101433.238
101434.51
101435.346
101437.6
101441.042
101442.816
101443.784
101446.039
101449.298
101451.077
101422.701
101422.695
101422.689
101422.684
101422.68
101422.676
101422.674
101422.672
101422.671
101422.671
101422.673
101422.675
101422.678
101422.683
101422.689
101422.696
101422.704
101422.714
101422.725
101422.737
101422.751
101422.766
101422.782
101422.8
101422.819
101422.839
101422.861
101422.884
101422.911
101422.94
101422.967
101422.992
101423.015
101423.039
101423.068
101423.103
101423.139
101423.176
101423.215
101423.253
101423.289
101423.337
101423.404
101423.457
101423.492
101423.544
101423.615
101423.693
101423.77
101423.854
101423.951
101424.063
101424.194
101424.344
101424.517
101424.716
101424.948
101425.223
101425.544
101425.92
101426.359
101426.864
101427.45
101428.113
101428.862
101429.689
101430.632
101431.648
101432.882
101433.972
101435.299
101438.442
101440.392
101440.81
101441.982
101444.586
101447.293
101449.135
101451.069
101452.807
101422.038
101422.033
101422.028
101422.024
101422.02
101422.018
101422.016
101422.015
101422.016
101422.017
101422.02
101422.024
101422.029
101422.036
101422.044
101422.053
101422.064
101422.076
101422.09
101422.106
101422.123
101422.141
101422.16
101422.181
101422.204
101422.23
101422.257
101422.284
101422.312
101422.342
101422.374
101422.409
101422.446
101422.484
101422.522
101422.563
101422.604
101422.641
101422.689
101422.755
101422.806
101422.84
101422.891
101422.956
101423.021
101423.088
101423.162
101423.245
101423.339
101423.444
101423.562
101423.698
101423.856
101424.042
101424.262
101424.522
101424.828
101425.189
101425.613
101426.109
101426.686
101427.348
101428.108
101428.972
101429.932
101430.988
101432.123
101433.35
101434.931
101437.743
101439.537
101440.123
101441.918
101444.165
101445.768
101447.572
101449.641
101451.452
101453.088
101454.378
101421.269
101421.265
101421.26
101421.256
101421.253
101421.251
101421.251
101421.251
101421.252
101421.255
101421.259
101421.265
101421.273
101421.282
101421.292
101421.305
101421.319
101421.334
101421.351
101421.369
101421.39
101421.415
101421.442
101421.47
101421.501
101421.533
101421.567
101421.603
101421.64
101421.68
101421.72
101421.763
101421.807
101421.852
101421.894
101421.946
101422.013
101422.067
101422.106
101422.161
101422.227
101422.293
101422.36
101422.432
101422.51
101422.596
101422.689
101422.794
101422.913
101423.05
101423.21
101423.397
101423.618
101423.878
101424.184
101424.544
101424.965
101425.457
101426.028
101426.692
101427.445
101428.308
101429.257
101430.337
101431.354
101432.558
101434.44
101436.827
101438.718
101439.621
101440.841
101442.448
101444.15
101445.965
101447.963
101450.018
101452.167
101453.892
101455.253
101456.735
101420.387
101420.382
101420.377
101420.373
101420.371
101420.37
101420.37
101420.372
101420.374
101420.379
101420.384
101420.392
101420.402
101420.413
101420.426
101420.442
101420.46
101420.48
101420.504
101420.531
101420.558
101420.588
101420.62
101420.654
101420.691
101420.73
101420.771
101420.814
101420.86
101420.908
101420.957
101421.005
101421.06
101421.13
101421.189
101421.235
101421.296
101421.367
101421.436
101421.507
101421.581
101421.661
101421.746
101421.838
101421.939
101422.052
101422.18
101422.327
101422.496
101422.694
101422.926
101423.199
101423.519
101423.895
101424.333
101424.842
101425.427
101426.097
101426.85
101427.709
101428.624
101429.638
101430.672
101432.233
101434.753
101436.947
101438.102
101438.967
101440.185
101441.641
101443.705
101445.706
101447.612
101449.394
101451.047
101452.807
101454.54
101455.959
101457.546
101459.503
101419.353
101419.348
101419.343
101419.341
101419.339
101419.339
101419.341
101419.344
101419.349
101419.356
101419.365
101419.376
101419.389
101419.405
101419.423
101419.444
101419.466
101419.492
101419.52
101419.551
101419.584
101419.62
101419.659
101419.701
101419.746
101419.793
101419.843
101419.894
101419.946
101420.004
101420.076
101420.138
101420.19
101420.256
101420.331
101420.405
101420.48
101420.559
101420.642
101420.73
101420.824
101420.927
101421.039
101421.163
101421.303
101421.462
101421.645
101421.858
101422.107
101422.399
101422.742
101423.141
101423.607
101424.148
101424.772
101425.489
101426.304
101427.224
101428.254
101429.435
101430.686
101432.201
101434.183
101435.862
101436.904
101437.843
101439.187
101440.824
101442.563
101444.286
101445.808
101447.453
101448.93
101450.312
101452.32
101454.201
101455.729
101457.251
101459.305
101461.379
101418.143
101418.139
101418.136
101418.134
101418.135
101418.137
101418.14
101418.146
101418.155
101418.166
101418.179
101418.194
101418.211
101418.232
101418.255
101418.28
101418.309
101418.341
101418.375
101418.413
101418.454
101418.497
101418.544
101418.594
101418.647
101418.7
101418.76
101418.831
101418.896
101418.953
101419.022
101419.1
101419.177
101419.256
101419.339
101419.427
101419.518
101419.616
101419.72
101419.833
101419.956
101420.093
101420.245
101420.418
101420.617
101420.845
101421.111
101421.421
101421.783
101422.203
101422.69
101423.252
101423.895
101424.63
101425.462
101426.397
101427.435
101428.56
101429.802
101431.12
101432.485
101433.861
101435.417
101436.851
101437.908
101439.155
101440.639
101442.401
101444.119
101445.712
101447.431
101449.078
101450.806
101452.745
101454.405
101455.752
101457.665
101460.09
101462.1
101464.215
101416.725
101416.723
101416.722
101416.724
101416.727
101416.732
101416.74
101416.75
101416.763
101416.777
101416.795
101416.816
101416.839
101416.865
101416.895
101416.928
101416.964
101417.003
101417.045
101417.092
101417.141
101417.194
101417.248
101417.307
101417.378
101417.444
101417.505
101417.577
101417.657
101417.737
101417.82
101417.906
101417.997
101418.093
101418.194
101418.301
101418.416
101418.54
101418.675
101418.825
101418.992
101419.18
101419.394
101419.639
101419.922
101420.249
101420.627
101421.064
101421.564
101422.134
101422.78
101423.51
101424.329
101425.238
101426.24
101427.34
101428.506
101429.763
101431.129
101432.554
101434.021
101435.533
101436.658
101437.881
101439.447
101441.144
101442.941
101444.351
101445.891
101447.752
101449.739
101451.565
101453.203
101455.328
101457.4
101459.271
101461.282
101463.148
101464.902
101466.789
101415.067
101415.068
101415.072
101415.077
101415.085
101415.095
101415.107
101415.123
101415.141
101415.162
101415.187
101415.214
101415.245
101415.28
101415.317
101415.359
101415.404
101415.453
101415.504
101415.56
101415.62
101415.69
101415.757
101415.822
101415.897
101415.978
101416.06
101416.147
101416.237
101416.332
101416.431
101416.536
101416.647
101416.766
101416.893
101417.03
101417.18
101417.346
101417.53
101417.738
101417.972
101418.24
101418.546
101418.897
101419.299
101419.759
101420.282
101420.872
101421.534
101422.27
101423.085
101423.981
101424.957
101426.009
101427.123
101428.316
101429.449
101430.875
101432.697
101434.38
101435.99
101437.703
101439.234
101440.625
101442.177
101443.979
101445.638
101447.232
101449.062
101451.071
101452.713
101454.132
101456.041
101457.936
101459.431
101461.026
101462.702
101464.572
101466.387
101467.948
101413.129
101413.135
101413.144
101413.155
101413.169
101413.185
101413.205
101413.227
101413.253
101413.283
101413.316
101413.353
101413.393
101413.437
101413.486
101413.537
101413.594
101413.658
101413.723
101413.788
101413.86
101413.937
101414.02
101414.105
101414.194
101414.288
101414.387
101414.49
101414.6
101414.715
101414.837
101414.968
101415.109
101415.261
101415.428
101415.612
101415.816
101416.046
101416.306
101416.6
101416.936
101417.318
101417.753
101418.248
101418.809
101419.44
101420.143
101420.921
101421.775
101422.702
101423.694
101424.746
101425.846
101427.094
101428.788
101430.797
101432.832
101434.513
101435.584
101436.627
101437.739
101438.939
101440.482
101442.427
101444.42
101446.152
101447.663
101449.259
101450.766
101452.153
101453.647
101455.064
101456.396
101458.141
101460.356
101462.465
101464.706
101467.158
101469.617
101471.78
101410.877
101410.889
101410.905
101410.923
101410.944
101410.969
101410.997
101411.029
101411.065
101411.104
101411.148
101411.196
101411.247
101411.304
101411.367
101411.432
101411.499
101411.572
101411.652
101411.735
101411.822
101411.915
101412.011
101412.113
101412.22
101412.333
101412.451
101412.577
101412.711
101412.854
101413.008
101413.176
101413.359
101413.561
101413.786
101414.038
101414.322
101414.644
101415.008
101415.422
101415.89
101416.42
101417.017
101417.686
101418.43
101419.252
101420.153
101421.135
101422.195
101423.312
101424.502
101425.888
101427.742
101429.721
101431.146
101432.052
101432.973
101433.987
101435.377
101437.081
101438.827
101440.649
101442.528
101444.089
101445.341
101446.794
101448.641
101450.416
101451.98
101453.69
101455.588
101457.93
101460.342
101462.332
101464.456
101466.501
101468.176
101469.786
101471.235
101472.85
101408.26
101408.28
101408.305
101408.333
101408.364
101408.399
101408.437
101408.48
101408.527
101408.579
101408.635
101408.697
101408.762
101408.831
101408.905
101408.985
101409.07
101409.159
101409.253
101409.352
101409.456
101409.565
101409.681
101409.802
101409.931
101410.067
101410.212
101410.367
101410.535
101410.717
101410.917
101411.137
101411.382
101411.657
101411.965
101412.313
101412.706
101413.151
101413.654
101414.219
101414.853
101415.561
101416.345
101417.209
101418.152
101419.177
101420.279
101421.461
101422.718
101423.98
101425.658
101427.639
101428.957
101429.83
101430.802
101432.168
101433.804
101435.547
101437.335
101439.059
101440.81
101442.403
101443.87
101445.78
101448.036
101449.911
101451.4
101452.826
101454.474
101456.645
101458.983
101460.857
101462.579
101464.402
101466.285
101468.126
101469.9
101472.2
101474.712
101476.357
101405.242
101405.272
101405.308
101405.347
101405.389
101405.436
101405.487
101405.543
101405.604
101405.668
101405.738
101405.813
101405.893
101405.978
101406.068
101406.164
101406.264
101406.37
101406.481
101406.598
101406.722
101406.852
101406.99
101407.136
101407.292
101407.46
101407.641
101407.838
101408.053
101408.292
101408.556
101408.852
101409.184
101409.558
101409.978
101410.452
101410.985
101411.583
101412.25
101412.99
101413.808
101414.703
101415.678
101416.73
101417.854
101419.052
101420.299
101421.613
101423.107
101425.046
101426.686
101427.576
101428.679
101430.3
101432.005
101433.723
101435.291
101436.936
101438.907
101440.662
101442.272
101444.357
101446.453
101447.94
101449.259
101451.096
101453.153
101455.415
101457.504
101459.216
101461.024
101462.737
101464.446
101466.122
101468.099
101470.37
101472.436
101474.544
101476.378
101478.177
101401.792
101401.834
101401.884
101401.936
101401.992
101402.053
101402.118
101402.188
101402.263
101402.344
101402.429
101402.519
101402.615
101402.717
101402.824
101402.936
101403.055
101403.18
101403.311
101403.45
101403.598
101403.754
101403.922
101404.101
101404.296
101404.508
101404.741
101404.998
101405.283
101405.601
101405.958
101406.358
101406.808
101407.313
101407.879
101408.511
101409.212
101409.988
101410.839
101411.768
101412.773
101413.852
101415.002
101416.221
101417.492
101418.832
101420.223
101421.957
101424.027
101425.634
101427.044
101428.599
101430.158
101431.735
101433.565
101435.631
101437.447
101439.022
101440.577
101442.415
101444.336
101445.699
101447.379
101449.821
101451.723
101453.355
101454.842
101456.202
101458.186
101460.775
101463.008
101464.981
101466.982
101469.385
101471.222
101472.714
101474.471
101476.631
101479.262
101481.328
101397.894
101397.95
101398.015
101398.082
101398.153
101398.229
101398.31
101398.396
101398.488
101398.584
101398.686
101398.794
101398.907
101399.027
101399.153
101399.286
101399.426
101399.574
101399.732
101399.9
101400.079
101400.273
101400.484
101400.713
101400.965
101401.244
101401.554
101401.9
101402.288
101402.723
101403.212
101403.76
101404.373
101405.058
101405.819
101406.659
101407.583
101408.591
101409.684
101410.859
101412.111
101413.434
101414.82
101416.264
101417.73
101419.46
101421.79
101423.655
101424.781
101425.85
101427.297
101429.189
101431.156
101433.191
101434.926
101436.19
101437.86
101440.325
101441.807
101443.475
101445.695
101447.634
101449.211
101450.922
101453
101454.784
101456.639
101458.956
101460.76
101462.276
101464.308
101466.837
101468.93
101470.686
101472.789
101475.13
101477.523
101479.704
101481.648
101483.578
101393.581
101393.651
101393.733
101393.817
101393.904
101393.996
101394.093
101394.195
101394.303
101394.417
101394.536
101394.661
101394.793
101394.933
101395.08
101395.235
101395.401
101395.578
101395.768
101395.972
101396.195
101396.438
101396.705
101397.001
101397.329
101397.695
101398.105
101398.564
101399.077
101399.652
101400.293
101401.005
101401.795
101402.665
101403.619
101404.661
101405.792
101407.014
101408.334
101409.749
101411.252
101412.834
101414.464
101416.145
101417.873
101419.82
101421.287
101422.695
101424.556
101426.442
101428.29
101430.128
101431.857
101433.744
101436.038
101438.314
101440.1
101441.278
101443.001
101445.044
101446.602
101448.444
101450.351
101452.078
101454.117
101456.646
101459.025
101460.887
101462.547
101464.789
101467.274
101469.786
101472.285
101474.372
101475.733
101477.548
101480.183
101482.25
101483.774
101485.322
101388.885
101388.971
101389.071
101389.172
101389.276
101389.385
101389.5
101389.62
101389.746
101389.879
101390.018
101390.165
101390.321
101390.486
101390.661
101390.85
101391.052
101391.271
101391.51
101391.772
101392.06
101392.379
101392.734
101393.129
101393.571
101394.066
101394.618
101395.233
101395.917
101396.674
101397.507
101398.418
101399.407
101400.472
101401.609
101402.811
101404.066
101405.345
101406.658
101408.204
101410.173
101412.456
101414.806
101417.067
101419.489
101421.087
101422.16
101423.68
101425.575
101427.56
101429.561
101431.671
101433.981
101435.984
101437.515
101439.022
101440.619
101442.555
101444.438
101446.052
101448.271
101451.088
101453.946
101456.54
101458.645
101460.159
101461.992
101464.301
101466.333
101468.126
101470.108
101472.085
101474.01
101476.082
101478.532
101480.796
101482.282
101483.483
101485.331
101487.892
101383.906
101384.007
101384.125
101384.242
101384.362
101384.487
101384.617
101384.754
101384.897
101385.048
101385.207
101385.377
101385.557
101385.751
101385.96
101386.187
101386.436
101386.709
101387.011
101387.347
101387.722
101388.142
101388.613
101389.141
101389.733
101390.395
101391.133
101391.955
101392.863
101393.864
101394.961
101396.155
101397.45
101398.847
101400.348
101401.951
101403.648
101405.415
101407.652
101410.271
101412.448
101413.927
101415.142
101416.356
101417.531
101419.167
101421.498
101423.804
101425.979
101428.135
101430.279
101432.317
101434.366
101436.691
101439.232
101441.525
101443.506
101445.292
101447.023
101448.825
101450.857
101453.044
101455.097
101457.187
101459.158
101461.527
101464.092
101466.244
101468.699
101471.122
101473.318
101475.399
101477.625
101479.494
101481.262
101482.993
101484.704
101486.701
101488.894
101490.165
101407.434
101407.44
101407.445
101407.448
101407.449
101407.448
101407.445
101407.439
101407.432
101407.422
101407.41
101407.395
101407.378
101407.359
101407.336
101407.311
101407.283
101407.252
101407.218
101407.181
101407.14
101407.095
101407.047
101406.994
101406.938
101406.877
101406.812
101406.742
101406.666
101406.586
101406.5
101406.407
101406.309
101406.204
101406.093
101405.974
101405.847
101405.713
101405.57
101405.418
101405.256
101405.085
101404.904
101404.712
101404.509
101404.295
101404.068
101403.827
101403.57
101403.297
101403.015
101402.714
101402.396
101402.057
101401.697
101401.314
101400.906
101400.471
101400.005
101399.505
101398.968
101398.388
101397.761
101397.079
101396.334
101395.516
101394.618
101393.636
101392.549
101391.368
101389.978
101388.499
101387.029
101385.127
101382.763
101380.478
101378.272
101375.128
101370.749
101367.706
101407.278
101407.285
101407.29
101407.294
101407.295
101407.294
101407.291
101407.286
101407.279
101407.269
101407.257
101407.242
101407.225
101407.205
101407.182
101407.156
101407.127
101407.095
101407.06
101407.021
101406.979
101406.933
101406.883
101406.829
101406.771
101406.708
101406.64
101406.568
101406.49
101406.407
101406.318
101406.223
101406.121
101406.013
101405.897
101405.774
101405.644
101405.505
101405.357
101405.201
101405.035
101404.859
101404.673
101404.475
101404.267
101404.047
101403.816
101403.57
101403.309
101403.027
101402.73
101402.425
101402.103
101401.76
101401.395
101401.007
101400.593
101400.152
101399.68
101399.172
101398.625
101398.031
101397.385
101396.671
101395.868
101394.955
101393.907
101392.724
101391.49
101390.263
101388.986
101387.397
101385.6
101383.835
101381.764
101379.056
101376.224
101373.753
101370.748
101365.881
101407.422
101407.429
101407.435
101407.439
101407.441
101407.441
101407.439
101407.434
101407.428
101407.419
101407.407
101407.393
101407.377
101407.358
101407.336
101407.311
101407.283
101407.252
101407.218
101407.181
101407.14
101407.096
101407.047
101406.995
101406.938
101406.877
101406.811
101406.741
101406.665
101406.584
101406.497
101406.404
101406.305
101406.2
101406.087
101405.968
101405.84
101405.705
101405.561
101405.408
101405.246
101405.074
101404.893
101404.7
101404.497
101404.282
101404.056
101403.817
101403.566
101403.301
101403.021
101402.723
101402.407
101402.071
101401.714
101401.334
101400.926
101400.486
101400.008
101399.485
101398.909
101398.267
101397.579
101396.865
101396.105
101395.29
101394.409
101393.337
101391.983
101390.484
101388.792
101387.061
101385.199
101383.061
101380.936
101378.647
101375.724
101372.034
101368.859
101365.998
101407.843
101407.85
101407.857
101407.861
101407.864
101407.864
101407.863
101407.86
101407.854
101407.846
101407.836
101407.824
101407.809
101407.792
101407.772
101407.749
101407.724
101407.695
101407.664
101407.629
101407.591
101407.55
101407.505
101407.456
101407.403
101407.347
101407.285
101407.219
101407.149
101407.073
101406.992
101406.906
101406.813
101406.715
101406.61
101406.499
101406.38
101406.254
101406.121
101405.979
101405.829
101405.671
101405.503
101405.326
101405.139
101404.942
101404.734
101404.516
101404.286
101404.044
101403.788
101403.517
101403.229
101402.922
101402.594
101402.244
101401.876
101401.486
101401.071
101400.627
101400.148
101399.625
101399.017
101398.286
101397.444
101396.486
101395.398
101394.298
101393.216
101391.94
101390.285
101388.397
101386.302
101384.088
101381.827
101379.227
101376.14
101372.709
101368.47
101364.533
101408.541
101408.548
101408.555
101408.56
101408.564
101408.565
101408.565
101408.563
101408.559
101408.554
101408.546
101408.536
101408.523
101408.509
101408.492
101408.473
101408.451
101408.427
101408.4
101408.37
101408.337
101408.301
101408.262
101408.22
101408.173
101408.124
101408.07
101408.012
101407.95
101407.884
101407.813
101407.736
101407.655
101407.568
101407.476
101407.378
101407.273
101407.162
101407.044
101406.919
101406.787
101406.647
101406.499
101406.344
101406.179
101406.006
101405.824
101405.633
101405.433
101405.223
101405.002
101404.768
101404.521
101404.258
101403.977
101403.675
101403.348
101402.995
101402.612
101402.198
101401.75
101401.258
101400.713
101400.091
101399.377
101398.559
101397.624
101396.561
101395.321
101393.968
101392.52
101390.854
101388.864
101386.539
101383.887
101381.225
101378.498
101375.406
101371.832
101367.288
101409.469
101409.477
101409.484
101409.49
101409.494
101409.497
101409.498
101409.497
101409.495
101409.492
101409.486
101409.479
101409.47
101409.459
101409.446
101409.431
101409.414
101409.394
101409.373
101409.348
101409.322
101409.293
101409.261
101409.226
101409.188
101409.147
101409.103
101409.055
101409.004
101408.949
101408.89
101408.827
101408.76
101408.689
101408.612
101408.531
101408.445
101408.354
101408.258
101408.155
101408.048
101407.934
101407.814
101407.688
101407.555
101407.417
101407.271
101407.118
101406.959
101406.792
101406.618
101406.433
101406.238
101406.032
101405.812
101405.575
101405.319
101405.038
101404.729
101404.386
101404.005
101403.58
101403.1
101402.554
101401.929
101401.212
101400.389
101399.455
101398.374
101397.077
101395.616
101394.068
101392.311
101390.232
101387.866
101385.197
101382.295
101379.092
101375.657
101371.707
101410.607
101410.614
101410.622
101410.628
101410.633
101410.637
101410.639
101410.641
101410.641
101410.64
101410.637
101410.633
101410.627
101410.62
101410.611
101410.601
101410.589
101410.575
101410.56
101410.542
101410.523
101410.501
101410.477
101410.451
101410.423
101410.392
101410.359
101410.323
101410.284
101410.243
101410.198
101410.15
101410.099
101410.044
101409.986
101409.924
101409.859
101409.789
101409.716
101409.638
101409.557
101409.471
101409.381
101409.286
101409.187
101409.084
101408.977
101408.865
101408.75
101408.629
101408.505
101408.375
101408.239
101408.094
101407.94
101407.775
101407.596
101407.4
101407.182
101406.937
101406.659
101406.34
101405.971
101405.543
101405.043
101404.457
101403.77
101402.972
101402.047
101400.96
101399.686
101398.21
101396.537
101394.636
101392.503
101389.993
101387.275
101384.359
101381.026
101377.22
101411.897
101411.904
101411.912
101411.918
101411.924
101411.928
101411.932
101411.935
101411.937
101411.939
101411.939
101411.938
101411.936
101411.933
101411.928
101411.923
101411.916
101411.908
101411.899
101411.888
101411.876
101411.863
101411.848
101411.831
101411.813
101411.793
101411.771
101411.748
101411.722
101411.695
101411.665
101411.633
101411.599
101411.563
101411.525
101411.484
101411.441
101411.395
101411.347
101411.297
101411.244
101411.19
101411.133
101411.074
101411.013
101410.95
101410.886
101410.821
101410.754
101410.686
101410.617
101410.548
101410.476
101410.401
101410.322
101410.237
101410.144
101410.042
101409.925
101409.789
101409.629
101409.436
101409.203
101408.919
101408.573
101408.152
101407.643
101407.028
101406.287
101405.4
101404.342
101403.077
101401.587
101399.864
101397.839
101395.483
101392.903
101390.134
101386.688
101383.421
101413.304
101413.311
101413.318
101413.324
101413.33
101413.336
101413.341
101413.345
101413.349
101413.352
101413.355
101413.357
101413.358
101413.359
101413.359
101413.358
101413.357
101413.354
101413.351
101413.348
101413.343
101413.337
101413.331
101413.324
101413.316
101413.306
101413.296
101413.285
101413.272
101413.259
101413.244
101413.229
101413.212
101413.194
101413.176
101413.156
101413.135
101413.114
101413.092
101413.069
101413.046
101413.022
101412.999
101412.976
101412.954
101412.933
101412.913
101412.895
101412.879
101412.866
101412.856
101412.85
101412.847
101412.846
101412.847
101412.849
101412.85
101412.849
101412.843
101412.827
101412.797
101412.747
101412.668
101412.551
101412.387
101412.162
101411.861
101411.468
101410.964
101410.324
101409.524
101408.534
101407.319
101405.859
101404.111
101402.095
101399.678
101396.882
101393.636
101390.476
101414.772
101414.777
101414.784
101414.79
101414.795
101414.801
101414.807
101414.812
101414.818
101414.823
101414.828
101414.832
101414.837
101414.841
101414.845
101414.848
101414.851
101414.855
101414.857
101414.86
101414.862
101414.864
101414.866
101414.867
101414.868
101414.869
101414.87
101414.87
101414.87
101414.87
101414.87
101414.87
101414.87
101414.87
101414.87
101414.871
101414.872
101414.873
101414.876
101414.88
101414.885
101414.892
101414.902
101414.914
101414.929
101414.949
101414.972
101415.001
101415.036
101415.077
101415.126
101415.182
101415.247
101415.321
101415.404
101415.494
101415.591
101415.695
101415.802
101415.911
101416.016
101416.114
101416.197
101416.257
101416.284
101416.266
101416.191
101416.041
101415.798
101415.44
101414.941
101414.269
101413.394
101412.303
101410.97
101409.372
101407.414
101405.056
101402.207
101399.086
101416.26
101416.264
101416.269
101416.274
101416.28
101416.285
101416.291
101416.297
101416.303
101416.31
101416.316
101416.322
101416.329
101416.336
101416.343
101416.35
101416.357
101416.365
101416.373
101416.38
101416.389
101416.397
101416.406
101416.415
101416.424
101416.434
101416.444
101416.455
101416.466
101416.478
101416.491
101416.505
101416.52
101416.536
101416.553
101416.572
101416.593
101416.616
101416.641
101416.669
101416.701
101416.736
101416.775
101416.82
101416.87
101416.927
101416.991
101417.063
101417.145
101417.237
101417.34
101417.456
101417.585
101417.728
101417.886
101418.059
101418.247
101418.449
101418.665
101418.891
101419.126
101419.366
101419.605
101419.835
101420.049
101420.236
101420.383
101420.476
101420.498
101420.429
101420.242
101419.907
101419.41
101418.742
101417.87
101416.761
101415.342
101413.618
101411.394
101408.778
101417.717
101417.719
101417.723
101417.727
101417.731
101417.736
101417.741
101417.747
101417.753
101417.76
101417.767
101417.774
101417.783
101417.791
101417.8
101417.81
101417.82
101417.831
101417.843
101417.855
101417.868
101417.882
101417.897
101417.913
101417.93
101417.947
101417.966
101417.986
101418.007
101418.03
101418.054
101418.08
101418.108
101418.138
101418.17
101418.205
101418.243
101418.285
101418.33
101418.379
101418.434
101418.494
101418.56
101418.632
101418.713
101418.802
101418.901
101419.011
101419.133
101419.269
101419.42
101419.588
101419.773
101419.977
101420.201
101420.445
101420.712
101421
101421.31
101421.64
101421.989
101422.353
101422.728
101423.11
101423.49
101423.859
101424.208
101424.522
101424.786
101424.983
101425.089
101425.077
101424.939
101424.67
101424.242
101423.622
101422.748
101421.581
101420.016
101417.881
101419.108
101419.109
101419.11
101419.112
101419.115
101419.118
101419.122
101419.127
101419.133
101419.139
101419.146
101419.154
101419.163
101419.173
101419.184
101419.195
101419.207
101419.221
101419.235
101419.251
101419.267
101419.285
101419.305
101419.325
101419.348
101419.371
101419.396
101419.422
101419.452
101419.483
101419.516
101419.552
101419.591
101419.633
101419.678
101419.726
101419.779
101419.835
101419.896
101419.962
101420.034
101420.112
101420.197
101420.29
101420.392
101420.509
101420.64
101420.783
101420.94
101421.112
101421.302
101421.511
101421.74
101421.992
101422.269
101422.571
101422.9
101423.256
101423.64
101424.051
101424.489
101424.951
101425.435
101425.936
101426.447
101426.962
101427.471
101427.963
101428.424
101428.839
101429.189
101429.449
101429.597
101429.638
101429.567
101429.348
101428.96
101428.293
101427.44
101425.838
101420.39
101420.388
101420.387
101420.386
101420.387
101420.388
101420.39
101420.394
101420.398
101420.403
101420.41
101420.417
101420.426
101420.436
101420.446
101420.459
101420.472
101420.487
101420.503
101420.52
101420.539
101420.56
101420.582
101420.606
101420.631
101420.659
101420.69
101420.722
101420.757
101420.794
101420.834
101420.877
101420.923
101420.973
101421.026
101421.084
101421.146
101421.214
101421.289
101421.37
101421.459
101421.557
101421.666
101421.785
101421.911
101422.043
101422.184
101422.339
101422.509
101422.696
101422.913
101423.159
101423.427
101423.717
101424.032