/*--------------------------------*- C++ -*----------------------------------*\
  =========                 |
  \\      /  F ield         | OpenFOAM: The Open Source CFD Toolbox
   \\    /   O peration     | Website:  https://openfoam.org
    \\  /    A nd           | Version:  8
     \\/     M anipulation  |
\*---------------------------------------------------------------------------*/
FoamFile
{
    version     2.0;
    format      ascii;
    class       volVectorField;
    location    "0.038";
    object      U;
}
// * * * * * * * * * * * * * * * * * * * * * * * * * * * * * * * * * * * * * //

dimensions      [0 1 -1 0 0 0 0];

internalField   nonuniform List<vector> 
42400
(
(-0.0164781102 0.015753475 -9.00926325e-27)
(-0.0493301576 0.0461838893 2.90630158e-26)
(-0.0826662353 0.0759242845 2.88156096e-26)
(-0.116481504 0.104936544 0)
(-0.150740035 0.133212951 0)
(-0.185405983 0.160713632 -4.17223081e-28)
(-0.220439965 0.187381289 0)
(-0.255796824 0.213150547 4.61525018e-28)
(-0.291427284 0.237952382 0)
(-0.327279166 0.261716849 5.11809543e-28)
(-0.363297883 0.284375456 5.3947947e-28)
(-0.399426693 0.305863174 -5.69008277e-28)
(-0.435606859 0.326120027 3.84836754e-27)
(-0.471777764 0.345092303 8.76081392e-27)
(-0.507877015 0.362733486 -6.70275575e-28)
(-0.543840586 0.379005013 0)
(-0.579602985 0.393876908 0)
(-0.61509742 0.407328316 0)
(-0.650255919 0.419347949 0)
(-0.685009359 0.429934431 0)
(-0.719287344 0.43909653 0)
(-0.753017898 0.446853254 -2.01444797e-27)
(-0.786126944 0.453233813 6.82750202e-26)
(-0.818537527 0.458277431 1.56528283e-25)
(-0.850168747 0.462032979 8.88852177e-26)
(-0.88093437 0.464558426 -2.59038804e-27)
(-0.910741055 0.465920046 -2.76544074e-27)
(-0.939486128 0.466191347 5.91121412e-27)
(-0.967054769 0.465451782 0)
(-0.993316573 0.463785396 0)
(-1.0181218 0.461279652 -1.5884325e-25)
(-1.04129852 0.458023691 -1.73227381e-25)
(-1.06264871 0.45410345 8.41122233e-27)
(-1.08193549 0.449592203 2.04795747e-25)
(-1.09888669 0.444549538 2.11622322e-25)
(-1.1132533 0.439058481 0)
(-1.12481867 0.433241477 0)
(-1.13298462 0.427661031 0)
(-1.13745497 0.421515361 0)
(-1.13754366 0.415001657 4.42986841e-25)
(-1.1326061 0.408147009 4.04774223e-25)
(-1.12285391 0.401635616 3.53117422e-25)
(-1.10561246 0.395788262 7.30185736e-25)
(-1.08018548 0.389711268 -4.32192241e-26)
(-1.04477758 0.383193397 -4.25376812e-25)
(-0.996645607 0.376726368 -6.69053509e-25)
(-0.935637539 0.369312259 5.75286182e-26)
(-0.858906236 0.36189012 7.37525238e-25)
(-0.764261475 0.354408989 6.6122153e-26)
(-0.649325056 0.346934609 9.41891408e-25)
(-0.511979829 0.33928902 3.93992748e-33)
(-0.347622166 0.331862033 -2.40012126e-24)
(-0.15549716 0.324554036 -1.70713803e-24)
(0.0761452015 0.319167392 1.9951199e-25)
(0.337813335 0.315647087 0)
(0.656379328 0.31046139 0)
(1.02782914 0.303752969 0)
(1.45778988 0.297717404 -2.87298829e-25)
(1.95409058 0.293037964 -3.08871787e-25)
(2.52344249 0.289479005 0)
(3.17005677 0.286965933 7.81118089e-24)
(3.89862862 0.285641665 9.25764402e-24)
(4.71327473 0.285890926 -9.93299765e-24)
(5.61717827 0.288122624 -1.09447623e-23)
(6.61234122 0.293494858 0)
(7.69594139 0.300938037 0)
(8.87873607 0.298611907 -1.0887817e-23)
(10.1280578 0.323054767 -9.46995556e-24)
(11.3440002 0.429713544 -2.76315361e-25)
(12.8511764 0.238162386 0)
(14.4625587 -0.0104980397 0)
(15.2421078 0.839706011 3.09486595e-25)
(16.5340287 1.11219913 2.42361152e-25)
(18.964546 -0.732832267 0)
(20.0112792 -0.539501094 7.11318329e-25)
(19.858947 2.10271594 -2.38658451e-24)
(21.0289789 2.20149197 3.41887593e-24)
(22.7960123 0.0817692503 -2.89442578e-24)
(23.4057586 -0.416232616 -2.22435084e-23)
(23.7567753 -0.085793393 -3.85910971e-24)
(-0.0207517155 0.0183691601 0)
(-0.0615348282 0.0536971819 2.39460859e-26)
(-0.102339282 0.088132543 2.32474023e-26)
(-0.143212191 0.121693186 0)
(-0.184182469 0.154425602 0)
(-0.225257077 0.186334008 1.63084176e-26)
(-0.266422647 0.217392684 1.47181259e-26)
(-0.307644378 0.24755515 8.05527889e-28)
(-0.34886978 0.276759959 0)
(-0.390032381 0.3049354 8.90193308e-28)
(-0.431054839 0.332003984 9.36152619e-28)
(-0.471851634 0.357886517 1.18373132e-27)
(-0.512331367 0.382505561 1.15574888e-26)
(-0.552398567 0.405788218 9.6544796e-27)
(-0.59195504 0.42766828 -1.55205824e-26)
(-0.630900786 0.448087864 -1.69907757e-26)
(-0.669134575 0.466998605 0)
(-0.706554182 0.484362508 2.69945432e-27)
(-0.743056345 0.500152528 0)
(-0.778536425 0.51435292 0)
(-0.812887802 0.5269594 0)
(-0.846000972 0.537979148 5.33470829e-26)
(-0.877762351 0.547430648 1.24557595e-25)
(-0.908052747 0.555343422 7.17775583e-26)
(-0.936745476 0.56175767 0)
(-0.963704118 0.566723907 -8.25304864e-27)
(-0.988779976 0.57030252 -4.32870775e-27)
(-1.01180905 0.57256281 9.14622399e-27)
(-1.03260778 0.573580627 1.15963192e-25)
(-1.0509654 0.573434912 1.26263847e-25)
(-1.06663337 0.57220555 -1.0971929e-26)
(-1.07935089 0.569983139 -1.15452506e-26)
(-1.0888875 0.566844857 1.78974889e-25)
(-1.09490766 0.562969365 1.83907298e-25)
(-1.09704875 0.558683335 -2.45301174e-25)
(-1.09499062 0.553562289 -2.88862208e-25)
(-1.08794306 0.548091004 0)
(-1.07583847 0.541864349 1.65618235e-26)
(-1.05746194 0.536049263 0)
(-1.03126127 0.530045748 3.88233485e-26)
(-0.996102577 0.523332609 2.75138104e-25)
(-0.949523368 0.516546494 3.29934803e-25)
(-0.89157901 0.508844029 4.62831769e-26)
(-0.820030299 0.501061076 -4.88816024e-26)
(-0.732860886 0.493112011 1.03279124e-25)
(-0.627950655 0.485007054 -5.28610882e-26)
(-0.503358455 0.476424987 5.54085856e-26)
(-0.355644061 0.467510229 6.35297835e-25)
(-0.184858829 0.45860381 9.37230335e-25)
(0.0177799655 0.451511817 0)
(0.246240238 0.446362006 -7.48419923e-26)
(0.522790476 0.439267482 1.581762e-25)
(0.846477691 0.430423688 1.06779958e-24)
(1.22025194 0.421709852 1.68606851e-24)
(1.65156081 0.414221025 2.0142876e-25)
(2.14724931 0.407732062 4.04012389e-24)
(2.71190836 0.402109009 4.61251101e-24)
(3.35064388 0.397700361 -2.13544249e-25)
(4.06824777 0.394906275 -2.18914328e-25)
(4.86902404 0.394246361 6.86179729e-24)
(5.75592021 0.396930146 7.73522949e-24)
(6.7300545 0.404117597 1.95833954e-25)
(7.78955781 0.416852847 -1.93688757e-25)
(8.92879121 0.434500625 0)
(10.1422724 0.455917789 -8.8468998e-24)
(11.4083346 0.486777054 -1.70012016e-23)
(12.739611 0.501458808 -9.01364032e-24)
(14.1337897 0.484453209 0)
(15.3577717 0.664348857 3.52355651e-26)
(16.6030256 0.816713304 2.85232844e-26)
(18.3459026 0.243870751 1.21633136e-23)
(19.4928608 0.218339165 8.20154344e-24)
(19.8554349 1.53902238 -8.16054131e-24)
(21.1205103 1.32580284 -1.13124615e-23)
(22.8068986 -0.301561121 4.25802714e-26)
(23.4464032 -0.0837376389 9.15587268e-24)
(23.349937 1.27517668 1.66495074e-23)
(23.3172063 1.68305023 -2.31497588e-24)
(23.59625 1.01679721 -1.15859201e-23)
(23.7233855 0.533620445 -7.05636261e-24)
(-0.0244487076 0.0200103412 2.86410466e-27)
(-0.0720846985 0.0584151847 3.98080095e-28)
(-0.119330741 0.0958157882 -4.2157699e-28)
(-0.166288383 0.132277902 4.40901691e-28)
(-0.213023318 0.16787848 0)
(-0.25958745 0.202658062 -1.238649e-26)
(-0.305985656 0.236616817 9.60407665e-34)
(-0.35218795 0.269723575 7.86221797e-27)
(-0.398134218 0.30192333 5.19672987e-27)
(-0.44373939 0.333143492 4.49877823e-27)
(-0.488898791 0.363299849 2.75803237e-28)
(-0.533493071 0.392302118 1.33019478e-27)
(-0.577392467 0.420058802 1.39911815e-27)
(-0.620460199 0.446481176 -1.25462692e-26)
(-0.662554978 0.471486399 -1.70366339e-26)
(-0.703532671 0.494999834 4.88834938e-27)
(-0.743247229 0.516956691 2.35580109e-26)
(-0.781550969 0.537303144 6.49107299e-26)
(-0.818294306 0.555997012 3.825743e-26)
(-0.853324991 0.573008144 4.00033149e-27)
(-0.886486914 0.588318602 -4.2056189e-27)
(-0.917618453 0.601922714 -4.4203928e-27)
(-0.946550371 0.613827015 0)
(-0.973102906 0.624049873 9.71745518e-27)
(-0.997082277 0.632620848 -7.97475545e-26)
(-1.01827603 0.639579794 5.38648358e-29)
(-1.03645036 0.644975875 9.59062375e-26)
(-1.05135182 0.648864674 1.03496542e-25)
(-1.06271448 0.651299392 1.10917141e-25)
(-1.07026455 0.652328809 -1.11725909e-25)
(-1.07357638 0.652171936 -1.32688978e-26)
(-1.0725516 0.650710553 3.19977956e-25)
(-1.06662 0.648264278 2.2667773e-25)
(-1.05528752 0.645110701 0)
(-1.03850878 0.640950902 0)
(-1.01429224 0.63648985 -1.74868184e-26)
(-0.981786035 0.63106675 0)
(-0.939463011 0.624756921 3.93997075e-26)
(-0.886089212 0.617628526 2.47134445e-25)
(-0.820926414 0.609809326 8.51144484e-26)
(-0.742225449 0.601653542 -2.54066088e-25)
(-0.648114746 0.593184257 0)
(-0.536527708 0.584368644 0)
(-0.405643959 0.574733006 3.72604873e-25)
(-0.25164634 0.56430661 5.85563247e-25)
(-0.0726062334 0.554778357 5.56622998e-26)
(0.130234424 0.548434703 0)
(0.362022065 0.54242563 0)
(0.645508164 0.5331948 5.79181229e-25)
(0.971462417 0.522636218 8.47474771e-25)
(1.34622832 0.513516459 -7.01974921e-26)
(1.77681648 0.505848352 0)
(2.26802748 0.499258042 -1.07645791e-24)
(2.82514553 0.493949548 -1.42945382e-24)
(3.45347993 0.490229117 -3.24090346e-24)
(4.15808486 0.488469254 -3.7434438e-24)
(4.94332812 0.489642429 -4.5719602e-24)
(5.81202293 0.494832262 -1.69557784e-32)
(6.76506147 0.504861275 1.89126027e-32)
(7.8008633 0.520416995 -1.37914811e-23)
(8.91531155 0.541999729 -7.34923871e-24)
(10.1016726 0.569349986 7.39733377e-24)
(11.348954 0.604195988 7.38875085e-24)
(12.6381645 0.648669692 0)
(13.9595286 0.696971481 7.48517487e-24)
(15.2789429 0.753334958 1.464474e-23)
(16.5724221 0.834221431 7.55840368e-24)
(17.9032451 0.819045735 0)
(19.1447956 0.830759745 -3.33773584e-26)
(20.0029298 1.18991305 7.26953075e-24)
(21.060904 1.27242937 8.78456061e-24)
(22.3758957 0.560764828 0)
(23.0878787 0.701165302 0)
(23.2465039 1.51700545 5.30914077e-25)
(23.4998977 1.49416874 -5.18272143e-25)
(23.7599521 0.877445438 6.58092983e-24)
(23.7868399 0.841235109 1.22034027e-23)
(23.8322413 1.01478942 0)
(23.7907492 1.26043851 -6.08345869e-25)
(23.7142013 1.19040115 1.17790227e-23)
(-0.0276014567 0.0208511549 3.07431289e-28)
(-0.0810801912 0.060801424 4.8390605e-28)
(-0.133817182 0.0996690601 6.96251526e-27)
(-0.185952534 0.137553562 -4.99286587e-27)
(-0.237603631 0.174563486 -5.25168868e-27)
(-0.288827422 0.210753049 0)
(-0.339638666 0.246138845 -6.23021689e-27)
(-0.390020517 0.280707083 -4.93141903e-27)
(-0.439895489 0.314411155 -8.37325292e-28)
(-0.489153357 0.347178702 2.23179158e-27)
(-0.537655997 0.378921542 8.72355081e-27)
(-0.585243953 0.409542468 3.93251186e-34)
(-0.63174243 0.43894094 1.71013135e-27)
(-0.67696605 0.467017833 2.30384565e-33)
(-0.720722274 0.49367921 -1.89222524e-27)
(-0.762813622 0.518839138 3.19938657e-26)
(-0.8030388 0.542421684 -3.77892014e-26)
(-0.841192858 0.56436224 -4.36777994e-27)
(-0.877066275 0.584608332 4.60241625e-26)
(-0.910443092 0.603119945 4.8074206e-27)
(-0.941098459 0.619869766 -1.01176422e-26)
(-0.968796005 0.63484272 -6.74701813e-26)
(-0.993282782 0.648031122 -7.5104707e-26)
(-1.01428822 0.659430688 5.80381338e-27)
(-1.03152649 0.66904238 0)
(-1.04468724 0.676884053 6.31639329e-27)
(-1.05347961 0.682993747 0)
(-1.05759456 0.687478992 1.34033253e-25)
(-1.05669369 0.690480574 2.87266736e-25)
(-1.05036792 0.692226925 1.66295275e-25)
(-1.03836067 0.692695119 -1.4263789e-25)
(-1.01942532 0.692068443 -1.51816209e-25)
(-0.992552518 0.690063005 3.45959674e-26)
(-0.956745431 0.686610988 1.82322354e-26)
(-0.910465463 0.681924597 -1.96034443e-25)
(-0.853295013 0.676065929 -2.44336108e-25)
(-0.783953374 0.669406683 0)
(-0.700947746 0.662065838 2.74199112e-25)
(-0.60244738 0.654083955 2.65890377e-25)
(-0.486397814 0.645489494 4.39873046e-26)
(-0.351031701 0.635939003 4.63473131e-26)
(-0.192962699 0.625586913 0)
(-0.00998541627 0.616604835 0)
(0.19265609 0.609922449 0)
(0.436147319 0.601855435 5.37956162e-26)
(0.718477172 0.592173475 5.65980401e-25)
(1.04400696 0.582861834 6.35009528e-25)
(1.41792447 0.574882559 0)
(1.84541607 0.568199238 0)
(2.3306866 0.562826452 8.3925487e-25)
(2.87916276 0.559243961 9.28330202e-25)
(3.49636788 0.55793589 1.18639688e-24)
(4.18727052 0.559687995 1.39711935e-24)
(4.9559193 0.565350879 -1.2152501e-25)
(5.80485539 0.57567309 -1.98593138e-24)
(6.73481669 0.59126269 -2.0883724e-24)
(7.7446361 0.612637493 -5.09659999e-24)
(8.83100874 0.640397738 -5.87483275e-24)
(9.98855585 0.674775681 0)
(11.208025 0.716093717 -4.78452987e-28)
(12.474815 0.765518581 -6.76684278e-24)
(13.7724828 0.821654728 -1.39093578e-23)
(15.0835404 0.883539409 8.97321955e-26)
(16.3764561 0.956427572 1.18988912e-25)
(17.6320436 1.04020164 -7.73784506e-24)
(18.8374145 1.10251973 7.66238123e-24)
(19.9353934 1.20152856 7.79412727e-24)
(20.9197712 1.29033438 -4.38822932e-25)
(21.918929 1.23746776 -7.04542453e-24)
(22.6601433 1.24626261 -7.95939888e-24)
(23.1441771 1.55947888 6.20257079e-26)
(23.5927069 1.57357077 -1.48968126e-23)
(23.8551822 1.21195162 -7.547448e-24)
(23.8939702 1.25196733 0)
(23.8982988 1.42552765 -8.00450264e-24)
(23.7943983 1.4920981 -3.94663016e-23)
(23.7730008 1.39338772 1.25560911e-24)
(23.8382211 1.27779181 8.74164889e-24)
(23.8971663 1.20688782 1.25486826e-23)
(23.9236333 1.17612925 1.12765046e-23)
(-0.0304442279 0.0211808347 2.30277885e-27)
(-0.0891713579 0.0616570732 0)
(-0.146822452 0.100948279 0)
(-0.20356995 0.139177307 1.47181577e-30)
(-0.259558443 0.176474713 0)
(-0.314876934 0.212920811 0)
(-0.369547576 0.248542425 0)
(-0.423500557 0.283323228 -3.09826004e-27)
(-0.476661653 0.317220915 0)
(-0.528886062 0.350171574 1.72104006e-27)
(-0.579994009 0.382088464 1.40479722e-26)
(-0.629778992 0.4128728 2.38450523e-33)
(-0.678013073 0.442421238 -1.75176806e-26)
(-0.724452635 0.470631179 0)
(-0.768842614 0.497404844 -2.21110627e-27)
(-0.810918968 0.522652425 4.65510342e-27)
(-0.850409955 0.546294255 0)
(-0.887035995 0.56826251 5.04832493e-26)
(-0.920505186 0.588497548 5.40524572e-27)
(-0.950509914 0.606948771 -1.26384908e-25)
(-0.976729707 0.623574141 -7.90614682e-26)
(-0.998847951 0.638317038 6.14929192e-27)
(-1.01653271 0.651265929 0)
(-1.02948468 0.662439187 -1.07859099e-25)
(-1.03735348 0.671921577 -1.21004609e-25)
(-1.03978098 0.679812284 -1.24532124e-25)
(-1.03610957 0.686058169 -1.40926674e-25)
(-1.02552786 0.690596282 1.492895e-25)
(-1.00731803 0.693423865 1.49914777e-25)
(-0.980606954 0.694542608 0)
(-0.944256284 0.694024846 -1.84633276e-25)
(-0.897597908 0.692082579 -2.05014091e-25)
(-0.839699625 0.688939956 1.93015513e-26)
(-0.769236205 0.684705976 -2.11140171e-25)
(-0.684754317 0.679455564 -2.45521259e-25)
(-0.584457076 0.67326387 -4.32104417e-26)
(-0.466326248 0.666215215 2.22389679e-26)
(-0.328594161 0.658063045 -2.87071321e-25)
(-0.168181381 0.648965457 -3.90818129e-25)
(0.0173711238 0.641016351 4.29177164e-25)
(0.222483893 0.635031047 6.56955842e-25)
(0.468084528 0.627809565 3.70086071e-25)
(0.751275035 0.619275026 0)
(1.0762099 0.611552828 -5.6993471e-26)
(1.44779742 0.605332649 -5.39605528e-25)
(1.87041202 0.600659009 -5.8033954e-26)
(2.34894331 0.597909006 1.13547656e-32)
(2.88866393 0.597654772 -7.14070435e-25)
(3.49473729 0.600520516 0)
(4.17166407 0.607238083 -5.94198382e-26)
(4.92317305 0.618544251 -1.29726231e-24)
(5.75169503 0.6351562 -1.37745173e-24)
(6.65815941 0.657755215 -1.80145268e-25)
(7.64174811 0.687047589 -2.05841889e-24)
(8.69958583 0.723696976 -2.23821101e-24)
(9.82629202 0.768243223 -2.62962422e-24)
(11.0142274 0.820536546 -8.53275818e-24)
(12.2521865 0.880151226 -5.98889441e-24)
(13.5249563 0.946596864 -6.23038231e-24)
(14.8145043 1.01931531 -6.6125712e-24)
(16.0969751 1.09884116 0)
(17.3492716 1.18367001 1.4917266e-25)
(18.5532603 1.26629733 -7.0892709e-24)
(19.6834885 1.34637464 -7.6668324e-24)
(20.696654 1.44491091 -3.8737883e-26)
(21.5990426 1.52538914 0)
(22.38757 1.57910306 9.28516482e-24)
(23.005066 1.65496193 8.24420862e-24)
(23.4821791 1.69908866 7.81909441e-25)
(23.88015 1.66379766 -6.31829276e-25)
(23.951285 1.64597974 -4.92824304e-26)
(23.950309 1.72222223 -8.58971577e-25)
(23.8768639 1.81220743 -1.21812688e-23)
(23.8705985 1.68050027 -1.37735005e-23)
(23.8909353 1.57805728 -6.98443669e-25)
(23.8934125 1.56655501 0)
(23.8828396 1.58261698 -8.71926452e-24)
(23.877515 1.51882653 -1.1855771e-23)
(23.8929326 1.46388101 0)
(23.909512 1.34064771 -9.41954063e-24)
(-0.0332262826 0.0212323877 -3.7511152e-27)
(-0.0970506578 0.0616520015 -5.19789176e-27)
(-0.159431877 0.100740137 -6.05872578e-27)
(-0.220566808 0.138634593 -7.24403201e-28)
(-0.280616332 0.175479129 2.96238841e-27)
(-0.33967231 0.211366683 -1.6103258e-27)
(-0.397748096 0.246340488 1.37885487e-27)
(-0.454787093 0.280393761 -7.12594555e-28)
(-0.510626697 0.313479503 1.88831395e-27)
(-0.565077168 0.345532004 3.98018052e-27)
(-0.617935358 0.376469442 -5.9696755e-27)
(-0.668925154 0.406204037 -3.21528067e-26)
(-0.717750388 0.434634964 -2.72169216e-26)
(-0.764095698 0.461662596 -3.11479759e-26)
(-0.807626547 0.487191764 2.57264173e-27)
(-0.847992538 0.511137288 5.36883776e-26)
(-0.884830105 0.533427382 0)
(-0.917783403 0.553964072 0)
(-0.946463742 0.572776223 6.85840978e-26)
(-0.970527169 0.589824746 1.67471594e-25)
(-0.989569399 0.605135859 9.53544778e-26)
(-1.00301354 0.618624415 1.09806135e-25)
(-1.0103642 0.630257908 2.26009283e-33)
(-1.01100301 0.6400584 -1.40997599e-25)
(-1.0042463 0.648025735 1.37137356e-25)
(-0.98928949 0.654153545 3.17627803e-25)
(-0.965466477 0.658607789 1.64467071e-25)
(-0.932018144 0.661519019 -9.24071398e-27)
(-0.887916531 0.662944753 9.61099867e-27)
(-0.832019654 0.662953152 -1.9964946e-26)
(-0.763055322 0.661626278 0)
(-0.679565754 0.659064966 2.68231498e-25)
(-0.579778706 0.655387237 -2.24405995e-26)
(-0.461750225 0.650719647 -2.62873288e-25)
(-0.323703498 0.644905802 0)
(-0.162831538 0.638125885 -4.01352423e-25)
(0.0234008627 0.632275496 -3.6324904e-25)
(0.229763258 0.628018477 0)
(0.475714418 0.622799165 0)
(0.758242502 0.616609386 -4.01776269e-25)
(1.08109802 0.611572064 -4.79591627e-25)
(1.44915427 0.608314171 1.17833563e-25)
(1.86651046 0.606953689 0)
(2.33786444 0.608024933 5.33482072e-25)
(2.86817765 0.612128813 1.2645885e-24)
(3.46212679 0.619940991 6.84334234e-25)
(4.12394714 0.632173215 6.29283301e-26)
(4.8572072 0.649538045 -2.37119123e-27)
(5.66439596 0.672809961 0)
(6.54670973 0.702794519 -1.35229222e-24)
(7.50368801 0.740261031 -8.96358836e-26)
(8.53286667 0.785872005 1.79243774e-24)
(9.62948027 0.840134415 -4.38975701e-26)
(10.7861848 0.903348627 -2.47643094e-24)
(11.9932547 0.975225363 -5.38661136e-24)
(13.2374887 1.05515377 5.02932768e-33)
(14.5018209 1.14216196 2.93777308e-24)
(15.7670447 1.23487488 0)
(17.0110754 1.33067076 0)
(18.2130672 1.42775086 1.37765473e-25)
(19.3452316 1.52281989 1.57086981e-25)
(20.3868948 1.61894403 0)
(21.315833 1.70550839 8.06490601e-24)
(22.1423774 1.7786336 7.39487269e-24)
(22.8138886 1.83897673 -6.96555718e-24)
(23.3519323 1.91479477 -2.01781826e-23)
(23.7160102 1.95984853 -1.10240028e-23)
(23.9397198 1.97522864 -1.1746242e-23)
(23.9936854 2.00062739 -9.25654331e-24)
(23.9725102 1.99262876 -7.61698522e-25)
(23.9543561 1.97505841 8.94759638e-24)
(23.9413943 1.93859685 7.6895141e-24)
(23.9346823 1.91662956 -9.48613946e-24)
(23.9215003 1.93107947 -8.88138811e-24)
(23.9133117 1.9053885 -1.06601072e-23)
(23.915361 1.83640499 -1.23490963e-23)
(23.9122626 1.813552 -7.9897725e-24)
(23.9056848 1.74779923 1.14271319e-31)
(23.9159416 1.71218801 1.44833988e-23)
(23.9221107 1.6377037 1.74811655e-23)
(-0.0361581466 0.0211530012 1.91868734e-27)
(-0.105273886 0.0612155602 7.54787887e-28)
(-0.172473385 0.099752034 4.44281423e-27)
(-0.237967545 0.136910087 -1.3173365e-33)
(-0.301919339 0.172841712 -2.29763808e-27)
(-0.364409373 0.207645976 -2.53897915e-27)
(-0.425425087 0.241371133 2.38751024e-27)
(-0.484865038 0.274023306 1.15315577e-27)
(-0.542553978 0.305571784 5.22628486e-27)
(-0.598245709 0.335948368 7.40490967e-27)
(-0.65159797 0.365072491 1.0416029e-26)
(-0.702277808 0.392855267 1.15440974e-26)
(-0.749926017 0.419205364 1.74369824e-26)
(-0.794147874 0.444021364 2.36158558e-26)
(-0.834489519 0.467289852 2.95738325e-27)
(-0.87053531 0.4888744 3.10419605e-27)
(-0.901798729 0.508739924 7.2395786e-26)
(-0.927762691 0.526877085 8.5833644e-26)
(-0.947927114 0.543196508 -7.12412026e-27)
(-0.96167579 0.557702566 -7.52412502e-27)
(-0.968371035 0.57036074 1.1204217e-25)
(-0.967409518 0.581289354 1.24111969e-25)
(-0.958066679 0.590474118 0)
(-0.939497718 0.597964509 9.04868676e-27)
(-0.910793134 0.603800864 0)
(-0.870938205 0.60804594 0)
(-0.818799047 0.610781646 1.02975435e-26)
(-0.753090751 0.612118385 -2.47640329e-25)
(-0.672350676 0.612184234 -2.3380532e-25)
(-0.574872008 0.611117185 2.38463553e-25)
(-0.458784786 0.60906886 2.68101058e-25)
(-0.322305053 0.605962636 2.46702529e-26)
(-0.162848833 0.601993471 -2.57484576e-26)
(0.0221676954 0.598788481 0)
(0.228113601 0.596892194 2.74331363e-26)
(0.472477076 0.594418776 0)
(0.752544811 0.591404982 0)
(1.07180846 0.589829335 3.13330591e-26)
(1.43489271 0.590295515 0)
(1.84561852 0.592987381 0)
(2.30836726 0.598485782 5.60894229e-25)
(2.8277387 0.607424924 6.81381147e-25)
(3.40807203 0.620495193 0)
(4.05336008 0.638436127 0)
(4.76706915 0.662021972 0)
(5.55171547 0.692090715 6.76524193e-26)
(6.40865079 0.729463642 6.1672695e-26)
(7.33772995 0.77489067 1.24145824e-24)
(8.33697658 0.828997466 1.51272523e-24)
(9.40229764 0.8922359 1.77050409e-24)
(10.5272168 0.964831433 2.07936271e-24)
(11.7027637 1.04671811 2.40049705e-24)
(12.9175073 1.13732095 2.67825367e-24)
(14.1570486 1.23557951 0)
(15.4032764 1.34021957 0)
(16.6357371 1.4499042 -3.01262945e-24)
(17.8316466 1.56202009 -6.36335821e-24)
(18.9693964 1.67425286 -3.38778551e-24)
(20.0262704 1.78096988 -3.55424845e-24)
(20.9870051 1.8827003 -3.22136047e-24)
(21.825105 1.96902282 7.69828125e-24)
(22.5456003 2.0502162 1.49776768e-23)
(23.1188632 2.10155683 3.29608012e-25)
(23.6051502 2.15935853 -1.19604303e-23)
(23.877129 2.17616316 3.02013702e-25)
(23.9836713 2.20835127 -6.4990735e-25)
(23.9882807 2.19534829 8.79541699e-24)
(23.9870113 2.23227741 -6.00668518e-32)
(23.9835975 2.17102823 -9.44264457e-24)
(23.9532515 2.17459526 -6.3368976e-25)
(23.9405516 2.16594899 1.21606763e-23)
(23.9443035 2.10347578 1.09387826e-23)
(23.9508469 2.09393131 0)
(23.9416297 2.04198948 7.40953359e-25)
(23.9157893 2.05622009 0)
(23.9076628 1.99852315 1.00344507e-23)
(23.9023295 1.9710522 1.8060458e-23)
(23.8930959 1.8921288 1.33829855e-23)
(23.8980694 1.89591279 7.00970929e-24)
(23.9003977 1.81548344 2.49861832e-23)
(-0.0392403726 0.0209340963 1.82185129e-27)
(-0.113786336 0.0603472173 5.49972893e-27)
(-0.185775544 0.0980227756 -9.30040975e-28)
(-0.255420694 0.134113556 -2.78582663e-27)
(-0.32287056 0.168773928 -9.29830565e-28)
(-0.388175595 0.202104405 3.06164956e-30)
(-0.451277418 0.234154179 -2.29865331e-27)
(-0.512014947 0.264930213 -8.4075291e-27)
(-0.570138985 0.294407639 -1.14356908e-26)
(-0.625328158 0.322539796 -1.46719845e-26)
(-0.67720877 0.349260688 0)
(-0.725336598 0.374510909 -5.9424042e-27)
(-0.769209638 0.398189427 3.13104444e-27)
(-0.808283863 0.420258358 0)
(-0.842045794 0.440602176 0)
(-0.869858649 0.459234839 0)
(-0.891106508 0.476100148 0)
(-0.90511785 0.491187774 -3.99449558e-27)
(-0.911169741 0.504503103 0)
(-0.908472879 0.516069884 -7.39711392e-26)
(-0.896194479 0.525909105 -8.17002636e-26)
(-0.873371355 0.534095168 1.51739988e-25)
(-0.83898654 0.540689527 1.78310535e-25)
(-0.791889356 0.545794157 -1.85418768e-25)
(-0.730800357 0.54952336 -2.25085231e-25)
(-0.654285232 0.552009789 -2.33336165e-25)
(-0.560699434 0.55340594 -2.39687607e-25)
(-0.448234839 0.553885965 -2.86918295e-25)
(-0.315105219 0.553444108 -5.73486181e-25)
(-0.158911661 0.552290271 -3.49215836e-25)
(0.0229504268 0.551780463 0)
(0.22662808 0.552368619 -2.8845323e-26)
(0.467407105 0.552783657 -3.04602143e-26)
(0.743002608 0.553122582 0)
(1.05683969 0.555116771 3.25556272e-26)
(1.41308673 0.559363489 0)
(1.8153435 0.566122618 0)
(2.2676842 0.576006703 5.79086693e-25)
(2.7743633 0.589687366 -3.74045136e-26)
(3.33943038 0.607897996 -6.46045662e-25)
(3.96665265 0.631422601 7.53686319e-25)
(4.6593514 0.661058889 7.9181075e-25)
(5.42001722 0.697647519 3.88893344e-26)
(6.25011864 0.742000257 0)
(7.14980196 0.794852586 1.07189232e-24)
(8.1175818 0.856816766 1.3864041e-24)
(9.15003894 0.928326365 0)
(10.241546 1.00956922 0)
(11.3840546 1.1004171 -2.13349176e-24)
(12.5670895 1.20036528 -2.46677976e-24)
(13.7776879 1.30846556 2.76013058e-24)
(15.0007846 1.42303477 2.91853344e-24)
(16.2175794 1.54229018 -3.04988822e-24)
(17.4075069 1.66409126 9.38403704e-33)
(18.5487511 1.78556133 3.42739334e-24)
(19.6193954 1.90451622 1.77696696e-26)
(20.5978336 2.0172712 0)
(21.4660613 2.12150235 1.75027847e-25)
(22.2107918 2.21058297 -4.10634879e-24)
(22.8282919 2.2867024 2.49354331e-25)
(23.3054271 2.33073872 4.91568649e-24)
(23.6770248 2.37094219 0)
(23.9112049 2.37291876 3.24609242e-25)
(23.9485427 2.39650168 0)
(23.9735604 2.3741025 2.50152668e-25)
(23.9774596 2.35411211 -1.88270542e-25)
(23.9805188 2.35653145 -2.37835191e-25)
(23.9553796 2.32582779 -1.23269064e-23)
(23.9383748 2.33673146 -1.12516686e-23)
(23.9335271 2.28236954 -6.26009416e-25)
(23.9276292 2.25603626 -1.14779409e-23)
(23.9281776 2.22749414 -9.60642452e-24)
(23.9266995 2.16618353 -1.35689483e-23)
(23.9320416 2.14193186 -8.08555266e-24)
(23.8947655 2.1493422 -1.18982682e-23)
(23.875962 2.13672628 -1.24644369e-23)
(23.8783039 2.10810736 8.00648253e-24)
(23.8927945 2.07267137 1.06414829e-23)
(23.9064927 2.07757663 -1.42309865e-24)
(23.9062815 2.02875349 1.5582371e-24)
(-0.0422268844 0.0204439751 1.44471783e-27)
(-0.121838361 0.0586933734 -5.19310215e-27)
(-0.198060574 0.0950189183 -1.0890795e-27)
(-0.271091114 0.129577017 -1.12008643e-33)
(-0.341045518 0.162520669 1.46643765e-27)
(-0.407923831 0.193950165 -1.27314888e-27)
(-0.471601759 0.223916616 6.8683246e-27)
(-0.531835335 0.252439773 2.13921916e-33)
(-0.588281539 0.279490206 -2.53230881e-26)
(-0.640498161 0.305035037 -1.82002872e-26)
(-0.687968128 0.329023213 3.29555905e-27)
(-0.730114384 0.351381972 -2.9932387e-26)
(-0.766287488 0.372084038 -2.76456474e-26)
(-0.79581417 0.391074047 -3.68315293e-26)
(-0.817962463 0.408325524 -4.28392347e-26)
(-0.83195103 0.423828564 4.92861753e-26)
(-0.836947101 0.43759222 5.63384613e-26)
(-0.832049553 0.449654757 -4.60386764e-27)
(-0.816325141 0.460050625 0)
(-0.788664884 0.468879421 -7.43564268e-26)
(-0.747940524 0.476214499 -8.83085944e-26)
(-0.692878153 0.482185571 -1.11867056e-26)
(-0.622072711 0.486936598 1.0710449e-25)
(-0.533938773 0.490636425 1.28881821e-25)
(-0.426733715 0.493482204 -2.53586832e-26)
(-0.298690821 0.49553716 0)
(-0.147574348 0.49702964 1.39662474e-26)
(0.0292114343 0.499077386 2.09600293e-28)
(0.228615967 0.50206781 -3.29961816e-25)
(0.463764417 0.50524037 -3.40798059e-25)
(0.732856315 0.508756314 4.06286531e-25)
(1.03923062 0.514095132 3.88500147e-25)
(1.38665528 0.52184827 -7.04884974e-26)
(1.7785242 0.532357316 -4.50797593e-25)
(2.21861919 0.546270473 -2.69867849e-32)
(2.71086368 0.564291897 5.67831652e-25)
(3.25902661 0.587180383 -6.57987852e-25)
(3.86664726 0.615738602 -6.76034045e-25)
(4.53688761 0.650779391 -8.41670779e-26)
(5.2722118 0.693145027 4.28461105e-26)
(6.07419766 0.743649812 4.16486912e-26)
(6.94326887 0.803034349 -1.03026348e-24)
(7.87840314 0.871920067 -2.30525726e-24)
(8.87683766 0.950758474 -1.34541118e-24)
(9.93378654 1.03976787 -1.62324731e-24)
(11.0422003 1.13886362 -1.80192423e-24)
(12.1926087 1.24758901 0)
(13.3730868 1.36505504 2.38496206e-24)
(14.5693677 1.48993455 2.78166211e-24)
(15.7656818 1.61998547 2.98970481e-24)
(16.9433498 1.75283181 6.32486006e-24)
(18.0818886 1.88583853 6.66196818e-24)
(19.1601365 2.01593195 7.03359751e-24)
(20.1579709 2.13979423 7.42765695e-24)
(21.0574067 2.25375183 3.91605492e-24)
(21.8424684 2.35574256 -2.08608456e-25)
(22.5017373 2.44381419 0)
(23.0266401 2.51505607 -4.29857633e-24)
(23.4244254 2.57047691 -4.46375448e-24)
(23.6956661 2.6045663 0)
(23.8918039 2.61084873 -4.93348555e-24)
(23.9415453 2.6097224 -5.27898729e-24)
(23.9385065 2.63215664 0)
(23.9420938 2.58077239 -1.15779848e-25)
(23.9470271 2.56150666 0)
(23.9496964 2.5140632 -1.02831141e-23)
(23.9571253 2.48512647 -5.91749517e-25)
(23.9478076 2.4663154 9.42279171e-24)
(23.9269841 2.45279512 -4.87645468e-25)
(23.888293 2.44800471 -5.12152082e-25)
(23.865715 2.42581981 -1.06136455e-23)
(23.8586536 2.36312764 -1.16541597e-23)
(23.8695316 2.33832116 -4.53644712e-25)
(23.8827515 2.26685009 -8.32484678e-25)
(23.902965 2.21655196 -4.04805842e-26)
(23.9027478 2.17713578 -1.1619395e-24)
(23.8988759 2.22684735 9.43182307e-24)
(23.9266246 2.17552794 2.70880303e-23)
(23.96138 2.1548796 1.16949112e-23)
(23.9459845 2.16905414 -1.71566499e-24)
(-0.0447762147 0.0195550064 0)
(-0.128372877 0.0558928103 -1.20804069e-27)
(-0.207506489 0.0901684545 1.27277626e-27)
(-0.282336895 0.122544928 -4.33131e-27)
(-0.352920755 0.153170344 1.4135472e-27)
(-0.419174362 0.182147166 1.48872798e-27)
(-0.480868108 0.209530985 -1.24366571e-26)
(-0.537639144 0.235333178 0)
(-0.588994447 0.259555985 3.46208693e-27)
(-0.634352457 0.282171519 -2.48230717e-26)
(-0.673041058 0.303152248 -2.60893488e-26)
(-0.704311423 0.322471596 3.54323802e-26)
(-0.7273473 0.34011121 4.24303518e-27)
(-0.741269679 0.356067581 -9.15626919e-26)
(-0.745129462 0.370362746 -1.09967326e-25)
(-0.73792395 0.383018681 -5.72328704e-26)
(-0.718564831 0.394119428 -5.14193576e-27)
(-0.68584813 0.403745166 -7.84682173e-26)
(-0.638511283 0.412009905 -8.18734817e-26)
(-0.575159724 0.419065012 5.86259754e-27)
(-0.494270725 0.42509067 -6.19832735e-27)
(-0.394179538 0.430288603 -2.57439247e-26)
(-0.273145645 0.43477544 -1.25700365e-25)
(-0.129071102 0.438806151 -2.9653028e-25)
(0.0406011509 0.443309653 -1.57723822e-25)
(0.233600375 0.44863228 -1.52597003e-26)
(0.460996084 0.454423989 -1.32786723e-25)
(0.721493695 0.460899998 1.66425245e-26)
(1.01832719 0.469314512 -1.73374488e-26)
(1.35491551 0.480254383 -2.00385668e-25)
(1.73445118 0.49413386 0)
(2.16043964 0.511626613 -5.23850312e-25)
(2.6364998 0.533457161 -4.03011238e-26)
(3.16614044 0.560399683 6.3119238e-25)
(3.75268855 0.593268715 6.85861396e-25)
(4.39915337 0.632892144 7.44679509e-25)
(5.10797123 0.680115255 -4.46030653e-26)
(5.88081316 0.735759588 0)
(6.71834998 0.800578918 -9.09463869e-26)