/*--------------------------------*- C++ -*----------------------------------*\
  =========                 |
  \\      /  F ield         | OpenFOAM: The Open Source CFD Toolbox
   \\    /   O peration     | Website:  https://openfoam.org
    \\  /    A nd           | Version:  8
     \\/     M anipulation  |
\*---------------------------------------------------------------------------*/
FoamFile
{
    version     2.0;
    format      ascii;
    class       volScalarField;
    location    "0.015";
    object      p;
}
// * * * * * * * * * * * * * * * * * * * * * * * * * * * * * * * * * * * * * //

dimensions      [1 -1 -2 0 0 0 0];

internalField   nonuniform List<scalar> 
42400
(
101306.601
101306.588
101306.573
101306.558
101306.542
101306.527
101306.511
101306.495
101306.479
101306.462
101306.445
101306.428
101306.411
101306.393
101306.375
101306.356
101306.337
101306.317
101306.297
101306.276
101306.253
101306.23
101306.206
101306.18
101306.153
101306.124
101306.094
101306.061
101306.027
101305.99
101305.95
101305.908
101305.863
101305.816
101305.765
101305.711
101305.653
101305.593
101305.539
101305.492
101305.434
101305.352
101305.25
101305.144
101305.048
101304.961
101304.871
101304.777
101304.682
101304.583
101304.479
101304.369
101304.276
101304.197
101304.122
101304.023
101303.899
101303.799
101303.725
101303.664
101303.607
101303.557
101303.521
101303.51
101303.533
101303.615
101303.748
101303.916
101304.298
101304.714
101304.812
101305.63
101307.565
101306.895
101306.309
101308.005
101309.206
101312.719
101318.477
101325.116
101307.064
101307.054
101307.042
101307.029
101307.017
101307.004
101306.99
101306.977
101306.963
101306.948
101306.933
101306.918
101306.903
101306.887
101306.871
101306.854
101306.837
101306.819
101306.8
101306.781
101306.76
101306.739
101306.717
101306.693
101306.668
101306.641
101306.613
101306.583
101306.551
101306.517
101306.481
101306.442
101306.401
101306.356
101306.308
101306.264
101306.227
101306.19
101306.132
101306.05
101305.963
101305.886
101305.817
101305.746
101305.672
101305.594
101305.513
101305.427
101305.345
101305.283
101305.228
101305.15
101305.043
101304.951
101304.884
101304.831
101304.778
101304.727
101304.683
101304.654
101304.642
101304.659
101304.715
101304.814
101304.956
101305.183
101305.516
101305.91
101306.571
101307.569
101308.183
101309.062
101310.85
101311.26
101312.252
101317.499
101322.261
101325.398
101328.037
101330.492
101307.579
101307.571
101307.561
101307.551
101307.541
101307.531
101307.52
101307.509
101307.497
101307.485
101307.473
101307.461
101307.448
101307.435
101307.422
101307.408
101307.394
101307.379
101307.364
101307.349
101307.332
101307.315
101307.297
101307.278
101307.258
101307.237
101307.214
101307.19
101307.165
101307.137
101307.107
101307.078
101307.052
101307.026
101307
101306.96
101306.904
101306.843
101306.789
101306.743
101306.694
101306.642
101306.588
101306.53
101306.465
101306.41
101306.368
101306.339
101306.27
101306.178
101306.12
101306.08
101306.039
101305.996
101305.957
101305.926
101305.907
101305.908
101305.935
101305.986
101306.067
101306.184
101306.352
101306.592
101306.913
101307.361
101307.942
101308.657
101309.5
101310.809
101311.881
101312.879
101315.856
101321.303
101324.354
101323.155
101323.651
101329.183
101332.812
101335.285
101308.162
101308.156
101308.148
101308.14
101308.131
101308.123
101308.114
101308.105
101308.096
101308.087
101308.077
101308.068
101308.059
101308.049
101308.04
101308.03
101308.02
101308.011
101308.001
101307.991
101307.98
101307.97
101307.959
101307.948
101307.936
101307.923
101307.91
101307.896
101307.882
101307.869
101307.857
101307.84
101307.816
101307.787
101307.756
101307.728
101307.705
101307.679
101307.65
101307.62
101307.587
101307.546
101307.518
101307.513
101307.492
101307.432
101307.376
101307.343
101307.324
101307.295
101307.266
101307.241
101307.224
101307.221
101307.235
101307.267
101307.318
101307.393
101307.506
101307.666
101307.892
101308.193
101308.589
101309.073
101309.663
101310.398
101311.263
101312.37
101313.253
101314.722
101318.885
101322.71
101323.939
101324.348
101326.146
101327.851
101330.92
101333.243
101335.158
101337.491
101308.807
101308.801
101308.793
101308.786
101308.779
101308.772
101308.765
101308.758
101308.751
101308.744
101308.738
101308.732
101308.726
101308.721
101308.716
101308.711
101308.707
101308.704
101308.701
101308.698
101308.695
101308.693
101308.69
101308.687
101308.684
101308.682
101308.682
101308.681
101308.679
101308.675
101308.67
101308.665
101308.662
101308.659
101308.655
101308.649
101308.642
101308.632
101308.616
101308.611
101308.625
101308.616
101308.583
101308.565
101308.562
101308.557
101308.546
101308.535
101308.529
101308.531
101308.542
101308.564
101308.598
101308.648
101308.72
101308.823
101308.965
101309.157
101309.415
101309.753
101310.193
101310.718
101311.369
101312.108
101312.988
101313.923
101314.913
101316.842
101320.501
101323.116
101323.552
101324.152
101325.742
101328.062
101330.416
101331.951
101333.744
101336.571
101339.004
101341.415
101309.485
101309.479
101309.472
101309.465
101309.458
101309.452
101309.446
101309.441
101309.436
101309.432
101309.428
101309.426
101309.424
101309.423
101309.423
101309.424
101309.427
101309.43
101309.434
101309.438
101309.442
101309.448
101309.457
101309.468
101309.48
101309.492
101309.504
101309.517
101309.531
101309.545
101309.558
101309.572
101309.585
101309.598
101309.609
101309.616
101309.632
101309.665
101309.679
101309.67
101309.677
101309.695
101309.709
101309.72
101309.734
101309.751
101309.772
101309.798
101309.832
101309.876
101309.936
101310.015
101310.12
101310.254
101310.426
101310.647
101310.932
101311.295
101311.752
101312.3
101312.979
101313.728
101314.621
101315.498
101316.539
101318.984
101321.818
101323.33
101323.846
101324.611
101325.926
101328.077
101330.257
101332.598
101334.567
101336.391
101338.386
101340.099
101342.051
101344.592
101310.151
101310.144
101310.137
101310.13
101310.124
101310.119
101310.114
101310.111
101310.109
101310.107
101310.108
101310.109
101310.112
101310.117
101310.123
101310.129
101310.137
101310.147
101310.159
101310.175
101310.193
101310.213
101310.234
101310.255
101310.278
101310.303
101310.328
101310.355
101310.382
101310.411
101310.441
101310.47
101310.496
101310.531
101310.581
101310.615
101310.63
101310.66
101310.7
101310.735
101310.77
101310.805
101310.842
101310.883
101310.927
101310.979
101311.04
101311.114
101311.204
101311.315
101311.452
101311.619
101311.825
101312.082
101312.402
101312.804
101313.288
101313.869
101314.546
101315.34
101316.263
101317.085
101318.319
101320.963
101323.406
101324.117
101324.353
101325.431
101327.13
101329.217
101331.378
101333.473
101335.197
101336.527
101338.05
101339.692
101341.575
101343.515
101346.221
101348.265
101310.749
101310.742
101310.734
101310.728
101310.723
101310.719
101310.717
101310.716
101310.717
101310.719
101310.723
101310.729
101310.737
101310.747
101310.759
101310.775
101310.794
101310.814
101310.836
101310.861
101310.887
101310.916
101310.947
101310.981
101311.017
101311.054
101311.094
101311.136
101311.179
101311.22
101311.269
101311.333
101311.382
101311.418
101311.467
101311.526
101311.581
101311.635
101311.691
101311.748
101311.809
101311.874
101311.945
101312.024
101312.114
101312.218
101312.339
101312.481
101312.65
101312.85
101313.087
101313.373
101313.719
101314.145
101314.647
101315.243
101315.907
101316.659
101317.388
101318.27
101320.004
101322.58
101324.325
101324.774
101325.241
101326.609
101328.446
101330.206
101332.245
101333.823
101334.76
101335.931
101337.475
101339.214
101341.254
101343.251
101345.191
101346.71
101348.732
101351.216
101311.211
101311.204
101311.198
101311.193
101311.19
101311.189
101311.19
101311.193
101311.198
101311.205
101311.215
101311.227
101311.242
101311.261
101311.281
101311.304
101311.331
101311.36
101311.392
101311.427
101311.465
101311.507
101311.551
101311.598
101311.648
101311.699
101311.75
101311.809
101311.882
101311.945
101311.996
101312.06
101312.134
101312.204
101312.275
101312.349
101312.425
101312.504
101312.587
101312.677
101312.773
101312.879
101312.998
101313.131
101313.284
101313.46
101313.663
101313.9
101314.175
101314.498
101314.882
101315.342
101315.88
101316.523
101317.244
101318.109
101319.019
101320.172
101321.907
101323.863
101324.853
101325.254
101326.05
101327.244
101328.955
101330.784
101332.729
101334.155
101335.058
101336.078
101337.827
101339.693
101341.618
101343.403
101345.526
101348.074
101350.13
101352.498
101354.85
101356.774
101311.476
101311.471
101311.467
101311.466
101311.466
101311.469
101311.475
101311.483
101311.494
101311.508
101311.525
101311.544
101311.567
101311.594
101311.624
101311.657
101311.694
101311.734
101311.778
101311.826
101311.877
101311.931
101311.989
101312.047
101312.113
101312.191
101312.263
101312.326
101312.402
101312.486
101312.568
101312.653
101312.74
101312.831
101312.925
101313.024
101313.129
101313.24
101313.36
101313.491
101313.636
101313.797
101313.978
101314.184
101314.419
101314.688
101314.996
101315.35
101315.761
101316.238
101316.787
101317.415
101318.091
101318.846
101319.612
101320.712
101322.66
101324.322
101325.579
101326.365
101327.142
101328.476
101329.891
101331.334
101333.013
101334.694
101335.741
101336.962
101338.535
101340.246
101342.174
101344.044
101345.914
101347.893
101349.842
101351.549
101353.543
101356.152
101358.496
101360.074
101311.48
101311.479
101311.479
101311.482
101311.488
101311.496
101311.508
101311.523
101311.541
101311.562
101311.588
101311.617
101311.65
101311.687
101311.728
101311.773
101311.822
101311.876
101311.933
101311.995
101312.058
101312.128
101312.21
101312.288
101312.36
101312.445
101312.536
101312.629
101312.723
101312.822
101312.924
101313.03
101313.141
101313.258
101313.381
101313.513
101313.654
101313.808
101313.977
101314.163
101314.372
101314.606
101314.871
101315.171
101315.512
101315.899
101316.34
101316.846
101317.432
101318.097
101318.856
101319.73
101320.662
101321.68
101323.362
101325.023
101325.756
101326.468
101327.407
101328.526
101330.048
101331.444
101332.906
101334.619
101336.286
101337.774
101339.17
101340.46
101341.968
101343.829
101345.626
101347.42
101349.21
101351.261
101352.975
101354.26
101356.037
101358.54
101361.225
101363.194
101311.159
101311.162
101311.168
101311.177
101311.189
101311.205
101311.224
101311.247
101311.275
101311.306
101311.342
101311.383
101311.427
101311.476
101311.531
101311.589
101311.651
101311.718
101311.791
101311.875
101311.957
101312.037
101312.127
101312.225
101312.324
101312.427
101312.534
101312.645
101312.761
101312.882
101313.009
101313.143
101313.284
101313.435
101313.597
101313.773
101313.965
101314.177
101314.413
101314.677
101314.973
101315.307
101315.684
101316.108
101316.585
101317.122
101317.728
101318.401
101319.154
101319.954
101320.794
101321.837
101323.335
101325.052
101326.072
101326.772
101327.638
101328.757
101330.193
101331.788
101333.373
101335.106
101336.441
101337.693
101339.094
101340.394
101341.882
101343.571
101345.304
101346.989
101348.724
101350.578
101352.354
101354.173
101356.211
101358.22
101360.48
101362.292
101363.726
101365.668
101310.437
101310.447
101310.46
101310.477
101310.498
101310.523
101310.552
101310.586
101310.624
101310.668
101310.716
101310.769
101310.828
101310.89
101310.959
101311.037
101311.121
101311.201
101311.286
101311.38
101311.481
101311.585
101311.693
101311.807
101311.925
101312.048
101312.176
101312.31
101312.451
101312.599
101312.756
101312.923
101313.103
101313.298
101313.51
101313.744
101314.002
101314.289
101314.611
101314.971
101315.375
101315.827
101316.333
101316.897
101317.524
101318.221
101318.994
101319.836
101320.752
101321.754
101322.85
101324.273
101325.502
101326.341
101327.489
101328.812
101330.281
101331.944
101333.509
101335.186
101336.844
101337.851
101338.738
101340.158
101341.645
101343.011
101344.523
101346.228
101347.994
101349.805
101351.638
101353.532
101355.529
101357.485
101359.392
101361.499
101363.436
101365.727
101367.793
101369.213
101309.25
101309.267
101309.291
101309.318
101309.349
101309.385
101309.426
101309.472
101309.524
101309.581
101309.643
101309.711
101309.786
101309.866
101309.948
101310.038
101310.135
101310.238
101310.344
101310.456
101310.573
101310.696
101310.824
101310.958
101311.097
101311.244
101311.398
101311.56
101311.732
101311.916
101312.114
101312.327
101312.561
101312.817
101313.099
101313.413
101313.763
101314.154
101314.592
101315.08
101315.624
101316.228
101316.895
101317.629
101318.43
101319.298
101320.227
101321.217
101322.236
101323.582
101325.258
101326.573
101327.743
101329.215
101330.932
101332.452
101333.575
101334.54
101335.531
101336.562
101337.512
101338.696
101340.459
101342.174
101343.883
101345.637
101347.394
101349.125
101350.88
101352.651
101354.47
101356.403
101358.411
101360.39
101362.296
101364.369
101366.285
101367.882
101369.439
101371.626
101307.524
101307.552
101307.587
101307.626
101307.67
101307.72
101307.774
101307.835
101307.901
101307.974
101308.052
101308.135
101308.225
101308.322
101308.424
101308.531
101308.645
101308.765
101308.891
101309.022
101309.16
101309.304
101309.456
101309.614
101309.782
101309.959
101310.147
101310.348
101310.565
101310.799
101311.054
101311.334
101311.643
101311.985
101312.364
101312.786
101313.256
101313.779
101314.358
101315
101315.708
101316.484
101317.339
101318.277
101319.273
101320.317
101321.393
101322.763
101324.494
101325.742
101326.771
101328.118
101329.561
101330.615
101331.593
101332.8
101334.093
101335.548
101337.052
101338.55
101340.141
101341.768
101343.384
101345.049
101346.783
101348.528
101350.249
101351.985
101353.698
101355.222
101357.02
101359.282
101361.493
101363.569
101365.532
101367.721
101369.985
101371.437
101372.654
101374.446
101305.216
101305.257
101305.306
101305.36
101305.418
101305.482
101305.553
101305.629
101305.71
101305.798
101305.893
101305.994
101306.101
101306.215
101306.334
101306.461
101306.593
101306.732
101306.879
101307.032
101307.193
101307.363
101307.543
101307.733
101307.936
101308.154
101308.388
101308.643
101308.92
101309.224
101309.559
101309.929
101310.339
101310.792
101311.294
101311.847
101312.456
101313.121
101313.843
101314.622
101315.45
101316.293
101317.172
101318.228
101319.671
101321.367
101323.103
101324.697
101325.601
101326.575
101327.725
101328.522
101329.568
101331.272
101333.223
101334.89
101336.398
101337.967
101339.583
101341.227
101342.87
101344.577
101346.303
101348.056
101349.813
101351.649
101353.561
101355.586
101357.738
101360
101362.172
101364.242
101366.057
101367.484
101368.925
101370.62
101372.213
101373.646
101376.467
101378.852
101302.279
101302.334
101302.4
101302.469
101302.543
101302.624
101302.71
101302.803
101302.903
101303.008
101303.12
101303.239
101303.364
101303.497
101303.636
101303.783
101303.937
101304.1
101304.272
101304.454
101304.647
101304.853
101305.074
101305.312
101305.569
101305.85
101306.157
101306.495
101306.868
101307.281
101307.739
101308.247
101308.81
101309.432
101310.117
101310.869
101311.692
101312.587
101313.559
101314.612
101315.744
101316.922
101318.268
101320.037
101321.461
101322.367
101323.343
101324.264
101325.402
101327.157
101329.153
101331.081
101332.637
101333.993
101335.332
101336.721
101338.271
101339.894
101341.566
101343.305
101345.106
101346.979
101348.897
101350.774
101352.568
101354.518
101356.601
101358.583
101360.572
101362.759
101364.49
101366.355
101369.148
101371.025
101372.566
101375.113
101376.929
101378.714
101381.225
101383.417
101298.735
101298.805
101298.888
101298.974
101299.065
101299.162
101299.265
101299.374
101299.49
101299.612
101299.741
101299.877
101300.021
101300.172
101300.332
101300.501
101300.68
101300.871
101301.074
101301.293
101301.529
101301.784
101302.063
101302.368
101302.704
101303.076
101303.489
101303.948
101304.458
101305.025
101305.654
101306.351
101307.119
101307.961
101308.879
101309.873
101310.94
101312.077
101313.273
101314.515
101315.792
101317.182
101318.397
101319.43
101320.836
101322.569
101324.194
101325.991
101328.159
101329.805
101330.946
101332.071
101333.294
101334.587
101335.948
101337.676
101339.695
101341.594
101343.476
101345.426
101347.362
101349.223
101351.169
101353.162
101354.769
101356.764
101359.659
101361.682
101363.278
101365.533
101368.352
101370.72
101372.648
101374.403
101376.33
101378.951
101381.558
101382.554
101383.483
101384.557
101294.615
101294.701
101294.803
101294.906
101295.012
101295.125
101295.243
101295.368
101295.499
101295.637
101295.782
101295.934
101296.095
101296.265
101296.446
101296.639
101296.845
101297.066
101297.306
101297.566
101297.851
101298.163
101298.508
101298.89
101299.314
101299.785
101300.309
101300.891
101301.536
101302.249
101303.035
101303.895
101304.834
101305.851
101306.949
101308.127
101309.384
101310.719
101312.122
101313.612
101315.244
101316.978
101318.799
101320.317
101321.52
101322.794
101324.311
101325.832
101327.142
101328.619
101330.309
101331.79
101333.296
101335.143
101337.229
101339.293
101341.187
101343.215
101345.696
101348.042
101350.419
101352.882
101354.969
101357.065
101359.542
101361.807
101363.103
101364.963
101368.372
101370.551
101371.934
101373.322
101374.836
101377.06
101380.018
101382.156
101383.293
101384.606
101387.177
101389.038
101290.089
101290.192
101290.31
101290.428
101290.55
101290.676
101290.807
101290.945
101291.089
101291.239
101291.398
101291.565
101291.743
101291.932
101292.135
101292.354
101292.591
101292.85
101293.134
101293.447
101293.794
101294.18
101294.609
101295.088
101295.621
101296.214
101296.871
101297.598
101298.397
101299.271
101300.221
101301.247
101302.348
101303.519
101304.758
101306.05
101307.38
101308.723
101310.097
101311.822
101313.863
101315.774
101317.696
101319.583
101321.476
101323.154
101324.825
101326.909
101329.2
101331.674
101333.882
101335.767
101337.628
101339.492
101341.406
101343.248
101345.021
101346.948
101348.986
101351.322
101353.212
101354.564
101356.704
101359.843
101362.587
101364.38
101366.545
101368.719
101370.035
101371.643
101374.235
101376.796
101378.491
101380.453
101383.366
101386.13
101388.192
101391.222
101393.123
101393.833
101285.969
101285.973
101285.977
101285.978
101285.978
101285.977
101285.973
101285.968
101285.961
101285.952
101285.941
101285.928
101285.913
101285.895
101285.876
101285.853
101285.829
101285.802
101285.772
101285.74
101285.704
101285.666
101285.624
101285.579
101285.531
101285.478
101285.422
101285.362
101285.298
101285.23
101285.157
101285.079
101284.996
101284.907
101284.814
101284.714
101284.608
101284.497
101284.378
101284.252
101284.12
101283.98
101283.832
101283.675
101283.51
101283.335
101283.151
101282.957
101282.752
101282.535
101282.305
101282.061
101281.803
101281.527
101281.234
101280.92
101280.584
101280.222
101279.83
101279.403
101278.935
101278.42
101277.847
101277.204
101276.476
101275.651
101274.721
101273.685
101272.545
101271.303
101269.957
101268.504
101266.927
101265.214
101263.375
101261.278
101258.747
101256.28
101252.968
101249.136
101286.789
101286.792
101286.795
101286.796
101286.796
101286.795
101286.791
101286.786
101286.78
101286.772
101286.762
101286.751
101286.737
101286.722
101286.705
101286.686
101286.664
101286.641
101286.615
101286.586
101286.555
101286.522
101286.485
101286.446
101286.404
101286.359
101286.31
101286.258
101286.202
101286.143
101286.079
101286.012
101285.94
101285.864
101285.783
101285.697
101285.606
101285.51
101285.408
101285.301
101285.187
101285.066
101284.939
101284.805
101284.664
101284.515
101284.358
101284.193
101284.019
101283.834
101283.638
101283.431
101283.211
101282.976
101282.726
101282.459
101282.172
101281.863
101281.527
101281.161
101280.759
101280.313
101279.815
101279.254
101278.622
101277.913
101277.123
101276.248
101275.285
101274.232
101273.088
101271.853
101270.52
101269.088
101267.291
101264.892
101262.522
101259.197
101255.684
101253.823
101287.828
101287.83
101287.832
101287.833
101287.833
101287.832
101287.829
101287.825
101287.82
101287.813
101287.805
101287.796
101287.785
101287.772
101287.758
101287.743
101287.725
101287.706
101287.685
101287.662
101287.637
101287.609
101287.58
101287.548
101287.514
101287.477
101287.438
101287.395
101287.35
101287.302
101287.25
101287.196
101287.138
101287.076
101287.01
101286.941
101286.868
101286.79
101286.708
101286.622
101286.531
101286.434
101286.333
101286.225
101286.113
101285.993
101285.868
101285.736
101285.596
101285.448
101285.291
101285.124
101284.946
101284.756
101284.554
101284.337
101284.104
101283.852
101283.578
101283.277
101282.946
101282.577
101282.164
101281.697
101281.17
101280.573
101279.899
101279.137
101278.282
101277.333
101276.291
101275.155
101273.929
101272.618
101271.208
101269.805
101268.354
101266.866
101265.439
101262.926
101289.049
101289.051
101289.053
101289.053
101289.053
101289.052
101289.05
101289.047
101289.043
101289.038
101289.032
101289.026
101289.018
101289.009
101288.998
101288.987
101288.974
101288.96
101288.945
101288.928
101288.909
101288.889
101288.868
101288.844
101288.819
101288.792
101288.763
101288.732
101288.699
101288.663
101288.626
101288.586
101288.543
101288.498
101288.45
101288.399
101288.347
101288.292
101288.233
101288.17
101288.104
101288.035
101287.962
101287.885
101287.804
101287.719
101287.63
101287.537
101287.438
101287.334
101287.223
101287.105
101286.98
101286.846
101286.702
101286.547
101286.38
101286.199
101286.001
101285.783
101285.542
101285.271
101284.964
101284.614
101284.213
101283.751
101283.221
101282.615
101281.931
101281.175
101280.354
101279.482
101278.573
101277.629
101276.645
101275.601
101274.454
101273.223
101271.876
101270.218
101290.408
101290.409
101290.41
101290.411
101290.411
101290.41
101290.409
101290.407
101290.405
101290.402
101290.399
101290.394
101290.39
101290.384
101290.378
101290.371
101290.363
101290.355
101290.345
101290.335
101290.324
101290.311
101290.298
101290.284
101290.268
101290.252
101290.234
101290.215
101290.194
101290.173
101290.149
101290.125
101290.099
101290.073
101290.045
101290.015
101289.981
101289.945
101289.909
101289.872
101289.833
101289.791
101289.748
101289.702
101289.654
101289.604
101289.552
101289.497
101289.439
101289.379
101289.315
101289.248
101289.176
101289.099
101289.016
101288.927
101288.831
101288.726
101288.611
101288.485
101288.344
101288.185
101288.003
101287.791
101287.543
101287.249
101286.901
101286.491
101286.016
101285.481
101284.892
101284.26
101283.588
101282.865
101282.065
101281.163
101280.153
101279.055
101277.866
101276.635
101291.862
101291.863
101291.863
101291.864
101291.864
101291.864
101291.863
101291.863
101291.862
101291.861
101291.86
101291.859
101291.857
101291.855
101291.853
101291.851
101291.848
101291.845
101291.841
101291.837
101291.833
101291.829
101291.824
101291.818
101291.812
101291.806
101291.799
101291.792
101291.784
101291.776
101291.768
101291.76
101291.75
101291.739
101291.727
101291.716
101291.704
101291.691
101291.678
101291.665
101291.651
101291.637
101291.622
101291.607
101291.592
101291.576
101291.56
101291.544
101291.527
101291.51
101291.492
101291.474
101291.454
101291.434
101291.412
101291.388
101291.363
101291.334
101291.301
101291.263
101291.218
101291.164
101291.097
101291.012
101290.904
101290.765
101290.585
101290.357
101290.073
101289.735
101289.345
101288.911
101288.432
101287.899
101287.301
101286.631
101285.882
101285.048
101284.13
101283.191
101293.363
101293.363
101293.363
101293.363
101293.363
101293.363
101293.363
101293.364
101293.365
101293.365
101293.366
101293.368
101293.369
101293.37
101293.372
101293.373
101293.375
101293.377
101293.379
101293.381
101293.383
101293.386
101293.388
101293.391
101293.394
101293.398
101293.402
101293.406
101293.41
101293.414
101293.417
101293.421
101293.426
101293.431
101293.437
101293.443
101293.449
101293.457
101293.464
101293.473
101293.482
101293.492
101293.503
101293.516
101293.529
101293.543
101293.559
101293.576
101293.595
101293.615
101293.637
101293.661
101293.686
101293.713
101293.743
101293.774
101293.808
101293.844
101293.883
101293.922
101293.962
101294.002
101294.04
101294.072
101294.097
101294.107
101294.095
101294.051
101293.965
101293.831
101293.641
101293.397
101293.097
101292.74
101292.332
101291.886
101291.417
101290.945
101290.472
101289.819
101294.869
101294.868
101294.867
101294.867
101294.867
101294.868
101294.869
101294.87
101294.872
101294.874
101294.877
101294.88
101294.884
101294.888
101294.892
101294.897
101294.903
101294.909
101294.917
101294.925
101294.933
101294.941
101294.95
101294.96
101294.97
101294.981
101294.992
101295.004
101295.017
101295.032
101295.047
101295.063
101295.08
101295.098
101295.117
101295.138
101295.16
101295.183
101295.208
101295.234
101295.263
101295.293
101295.325
101295.359
101295.396
101295.435
101295.476
101295.52
101295.567
101295.617
101295.67
101295.727
101295.787
101295.851
101295.919
101295.991
101296.068
101296.149
101296.236
101296.328
101296.429
101296.538
101296.651
101296.767
101296.894
101297.026
101297.157
101297.277
101297.38
101297.457
101297.471
101297.42
101297.304
101297.126
101296.909
101296.678
101296.462
101296.291
101296.11
101295.591
101296.342
101296.341
101296.339
101296.338
101296.338
101296.338
101296.339
101296.341
101296.343
101296.346
101296.35
101296.354
101296.36
101296.366
101296.373
101296.38
101296.389
101296.398
101296.407
101296.418
101296.429
101296.442
101296.456
101296.471
101296.487
101296.504
101296.522
101296.541
101296.562
101296.583
101296.606
101296.631
101296.657
101296.685
101296.714
101296.746
101296.779
101296.814
101296.851
101296.89
101296.932
101296.977
101297.024
101297.074
101297.127
101297.183
101297.242
101297.305
101297.372
101297.443
101297.518
101297.597
101297.68
101297.768
101297.862
101297.962
101298.068
101298.181
101298.3
101298.433
101298.59
101298.765
101298.956
101299.164
101299.384
101299.615
101299.853
101300.089
101300.31
101300.49
101300.627
101300.728
101300.784
101300.763
101300.684
101300.582
101300.51
101300.499
101300.487
101300.141
101297.75
101297.747
101297.744
101297.742
101297.741
101297.741
101297.742
101297.743
101297.745
101297.748
101297.752
101297.757
101297.763
101297.77
101297.778
101297.786
101297.796
101297.807
101297.819
101297.832
101297.846
101297.862
101297.878
101297.896
101297.915
101297.936
101297.957
101297.981
101298.005
101298.032
101298.059
101298.089
101298.12
101298.153
101298.189
101298.226
101298.265
101298.306
101298.35
101298.396
101298.445
101298.497
101298.551
101298.608
101298.668
101298.732
101298.798
101298.869
101298.943
101299.021
101299.103
101299.189
101299.281
101299.381
101299.49
101299.608
101299.737
101299.879
101300.03
101300.188
101300.353
101300.532
101300.73
101300.97
101301.249
101301.559
101301.891
101302.242
101302.592
101302.887
101303.146
101303.361
101303.502
101303.576
101303.563
101303.525
101303.546
101303.662
101303.801
101303.592
101299.066
101299.062
101299.058
101299.055
101299.053
101299.051
101299.051
101299.051
101299.053
101299.055
101299.059
101299.063
101299.069
101299.075
101299.083
101299.091
101299.101
101299.112
101299.125
101299.138
101299.153
101299.169
101299.186
101299.204
101299.224
101299.245
101299.268
101299.292
101299.318
101299.346
101299.375
101299.405
101299.438
101299.472
101299.508
101299.546
101299.586
101299.628
101299.672
101299.719
101299.768
101299.819
101299.873
101299.929
101299.989
101300.051
101300.118
101300.19
101300.267
101300.349
101300.437
101300.53
101300.624
101300.717
101300.812
101300.911
101301.01
101301.115
101301.238
101301.384
101301.548
101301.724
101301.915
101302.126
101302.352
101302.602
101302.894
101303.229
101303.62
101304.043
101304.444
101304.79
101305.009
101305.097
101305.097
101305.101
101305.198
101305.419
101305.69
101305.635
101300.278
101300.272
101300.267
101300.262
101300.258
101300.255
101300.253
101300.252
101300.252
101300.253
101300.255
101300.258
101300.262
101300.267
101300.273
101300.281
101300.289
101300.299
101300.31
101300.322
101300.335
101300.35
101300.365
101300.382
101300.401
101300.42
101300.441
101300.464
101300.487
101300.513
101300.539
101300.567
101300.596
101300.627
101300.66
101300.694
101300.73
101300.767
101300.807
101300.848
101300.893
101300.94
101300.991
101301.045
101301.103
101301.16
101301.215
101301.271
101301.328
101301.385
101301.443
101301.504
101301.578
101301.663
101301.748
101301.834
101301.921
101302.01
101302.101
101302.189
101302.283
101302.394
101302.526
101302.68
101302.858
101303.059
101303.287
101303.544
101303.829
101304.138
101304.451
101304.772
101305.043
101305.167
101305.2
101305.271
101305.464
101305.811
101306.247
101306.401
101301.377
101301.369
101301.361
101301.354
101301.348
101301.343
101301.339
101301.336
101301.333
101301.332
101301.331
101301.332
101301.333
101301.336
101301.34
101301.344
101301.35
101301.357
101301.365
101301.374
101301.384
101301.395
101301.407
101301.42
101301.435
101301.45
101301.466
101301.484
101301.503
101301.522
101301.543
101301.565
101301.588
101301.613
101301.639
101301.667
101301.697
101301.729
101301.761
101301.792
101301.822
101301.852
101301.882
101301.912
101301.943
101301.981
101302.026
101302.071
101302.114
101302.158
101302.201
101302.243
101302.277
101302.309
101302.344
101302.382
101302.424
101302.469
101302.518
101302.57
101302.623
101302.679
101302.741
101302.812
101302.894
101302.992
101303.107
101303.243
101303.4
101303.569
101303.739
101303.9
101304.019
101304.116
101304.157
101304.333
101304.657
101305.184
101305.83
101306.203
101302.357
101302.348
101302.337
101302.327
101302.319
101302.311
101302.304
101302.298
101302.292
101302.288
101302.284
101302.282
101302.28
101302.279
101302.279
101302.28
101302.282
101302.285
101302.288
101302.293
101302.298
101302.305
101302.312
101302.32
101302.33
101302.34
101302.351
101302.363
101302.376
101302.389
101302.404
101302.419
101302.433
101302.447
101302.461
101302.474
101302.487
101302.5
101302.514
101302.531
101302.55
101302.569
101302.587
101302.605
101302.621
101302.632
101302.642
101302.653
101302.664
101302.677