/*--------------------------------*- C++ -*----------------------------------*\
  =========                 |
  \\      /  F ield         | OpenFOAM: The Open Source CFD Toolbox
   \\    /   O peration     | Website:  https://openfoam.org
    \\  /    A nd           | Version:  8
     \\/     M anipulation  |
\*---------------------------------------------------------------------------*/
FoamFile
{
    version     2.0;
    format      ascii;
    class       volScalarField;
    location    "0.015";
    object      p_rgh;
}
// * * * * * * * * * * * * * * * * * * * * * * * * * * * * * * * * * * * * * //

dimensions      [1 -1 -2 0 0 0 0];

internalField   nonuniform List<scalar> 
42400
(
101306.975
101306.961
101306.946
101306.931
101306.916
101306.901
101306.885
101306.869
101306.853
101306.837
101306.82
101306.804
101306.787
101306.769
101306.752
101306.734
101306.715
101306.696
101306.677
101306.656
101306.635
101306.613
101306.589
101306.565
101306.539
101306.511
101306.482
101306.451
101306.418
101306.382
101306.344
101306.304
101306.261
101306.215
101306.166
101306.114
101306.058
101306
101305.948
101305.903
101305.851
101305.773
101305.675
101305.571
101305.477
101305.393
101305.306
101305.216
101305.123
101305.027
101304.927
101304.821
101304.732
101304.657
101304.587
101304.493
101304.375
101304.278
101304.208
101304.153
101304.101
101304.057
101304.027
101304.021
101304.05
101304.135
101304.268
101304.446
101304.822
101305.172
101305.314
101306.218
101307.799
101306.84
101306.933
101309.025
101309.914
101313.153
101318.875
101324.937
101307.454
101307.444
101307.432
101307.419
101307.407
101307.394
101307.381
101307.367
101307.353
101307.339
101307.325
101307.31
101307.295
101307.28
101307.264
101307.248
101307.231
101307.214
101307.196
101307.177
101307.158
101307.138
101307.116
101307.093
101307.07
101307.044
101307.017
101306.989
101306.958
101306.925
101306.891
101306.854
101306.814
101306.772
101306.726
101306.684
101306.649
101306.614
101306.559
101306.479
101306.394
101306.32
101306.254
101306.186
101306.114
101306.041
101305.963
101305.88
101305.8
101305.737
101305.687
101305.616
101305.512
101305.421
101305.356
101305.308
101305.258
101305.21
101305.17
101305.144
101305.136
101305.156
101305.216
101305.319
101305.467
101305.702
101306.035
101306.447
101307.139
101308.076
101308.678
101309.69
101311.421
101311.83
101313.187
101318.075
101322.665
101326.009
101328.521
101331.061
101307.983
101307.975
101307.965
101307.955
101307.945
101307.935
101307.924
101307.913
101307.902
101307.891
101307.879
101307.867
101307.854
101307.842
101307.829
101307.816
101307.802
101307.789
101307.774
101307.759
101307.744
101307.727
101307.71
101307.692
101307.673
101307.653
101307.632
101307.609
101307.585
101307.559
101307.531
101307.504
101307.478
101307.454
101307.43
101307.393
101307.338
101307.28
101307.228
101307.184
101307.137
101307.087
101307.036
101306.98
101306.918
101306.864
101306.825
101306.798
101306.736
101306.648
101306.592
101306.554
101306.515
101306.475
101306.437
101306.409
101306.392
101306.394
101306.423
101306.475
101306.558
101306.675
101306.846
101307.089
101307.416
101307.877
101308.463
101309.192
101310.081
101311.387
101312.456
101313.513
101316.486
101321.662
101324.482
101323.796
101324.916
101329.799
101333.19
101335.899
101308.578
101308.571
101308.564
101308.556
101308.547
101308.539
101308.53
101308.521
101308.513
101308.504
101308.495
101308.486
101308.477
101308.468
101308.459
101308.45
101308.44
101308.431
101308.422
101308.413
101308.403
101308.394
101308.384
101308.374
101308.363
101308.351
101308.339
101308.326
101308.314
101308.302
101308.291
101308.276
101308.254
101308.227
101308.197
101308.172
101308.15
101308.126
101308.1
101308.072
101308.04
101308.002
101307.975
101307.97
101307.956
101307.9
101307.843
101307.812
101307.796
101307.77
101307.744
101307.721
101307.706
101307.705
101307.721
101307.754
101307.807
101307.882
101307.994
101308.154
101308.379
101308.678
101309.073
101309.555
101310.148
101310.89
101311.766
101312.875
101313.755
101315.249
101319.316
101323.035
101324.367
101324.93
101326.763
101328.456
101331.393
101333.861
101335.896
101338.258
101309.233
101309.226
101309.219
101309.212
101309.205
101309.198
101309.191
101309.184
101309.178
101309.171
101309.165
101309.16
101309.154
101309.149
101309.145
101309.141
101309.138
101309.135
101309.132
101309.13
101309.128
101309.127
101309.125
101309.123
101309.121
101309.12
101309.121
101309.122
101309.121
101309.118
101309.115
101309.111
101309.11
101309.108
101309.106
101309.102
101309.097
101309.089
101309.075
101309.072
101309.088
101309.083
101309.052
101309.034
101309.033
101309.031
101309.023
101309.014
101309.01
101309.014
101309.027
101309.051
101309.086
101309.137
101309.211
101309.314
101309.456
101309.648
101309.905
101310.241
101310.679
101311.199
101311.844
101312.572
101313.444
101314.365
101315.355
101317.334
101321.001
101323.595
101324.086
101324.706
101326.262
101328.548
101330.809
101332.588
101334.685
101337.285
101339.756
101342.135
101309.919
101309.913
101309.906
101309.899
101309.893
101309.887
101309.881
101309.875
101309.871
101309.867
101309.864
101309.862
101309.861
101309.86
101309.861
101309.862
101309.865
101309.869
101309.874
101309.879
101309.884
101309.89
101309.9
101309.912
101309.925
101309.938
101309.952
101309.966
101309.981
101309.996
101310.011
101310.026
101310.041
101310.056
101310.069
101310.077
101310.095
101310.131
101310.147
101310.14
101310.148
101310.168
101310.185
101310.198
101310.214
101310.233
101310.255
101310.283
101310.319
101310.365
101310.425
101310.506
101310.611
101310.745
101310.918
101311.139
101311.424
101311.788
101312.246
101312.796
101313.474
101314.221
101315.115
101315.994
101317.038
101319.491
101322.324
101323.807
101324.28
101325.047
101326.496
101328.648
101330.824
101333.181
101335.248
101337.219
101339.074
101340.726
101342.776
101345.238
101310.592
101310.585
101310.578
101310.571
101310.565
101310.56
101310.556
101310.553
101310.551
101310.55
101310.55
101310.552
101310.555
101310.56
101310.567
101310.574
101310.582
101310.593
101310.606
101310.623
101310.642
101310.663
101310.684
101310.707
101310.731
101310.756
101310.783
101310.81
101310.839
101310.87
101310.901
101310.932
101310.959
101310.996
101311.048
101311.084
101311.1
101311.132
101311.174
101311.211
101311.247
101311.285
101311.324
101311.366
101311.412
101311.465
101311.527
101311.602
101311.694
101311.805
101311.942
101312.109
101312.314
101312.569
101312.889
101313.289
101313.771
101314.353
101315.035
101315.836
101316.76
101317.578
101318.802
101321.445
101323.884
101324.615
101324.873
101325.892
101327.627
101329.77
101331.909
101333.998
101335.805
101337.233
101338.737
101340.328
101342.146
101344.071
101346.707
101348.768
101311.195
101311.188
101311.18
101311.174
101311.169
101311.166
101311.164
101311.163
101311.164
101311.166
101311.171
101311.178
101311.186
101311.196
101311.209
101311.225
101311.245
101311.266
101311.288
101311.314
101311.341
101311.371
101311.403
101311.438
101311.474
101311.513
101311.555
101311.598
101311.642
101311.684
101311.735
101311.8
101311.851
101311.888
101311.94
101312
101312.057
101312.112
101312.17
101312.229
101312.291
101312.358
101312.43
101312.511
101312.602
101312.707
101312.828
101312.971
101313.14
101313.339
101313.576
101313.86
101314.205
101314.628
101315.125
101315.713
101316.367
101317.106
101317.837
101318.737
101320.477
101323.048
101324.809
101325.25
101325.71
101327.067
101328.911
101330.751
101332.76
101334.33
101335.388
101336.622
101338.089
101339.771
101341.792
101343.745
101345.661
101347.193
101349.264
101351.768
101311.661
101311.654
101311.648
101311.643
101311.641
101311.64
101311.641
101311.644
101311.649
101311.656
101311.666
101311.679
101311.695
101311.714
101311.735
101311.758
101311.785
101311.815
101311.848
101311.884
101311.923
101311.965
101312.01
101312.059
101312.109
101312.162
101312.215
101312.275
101312.349
101312.413
101312.466
101312.532
101312.607
101312.679
101312.751
101312.826
101312.904
101312.985
101313.07
101313.161
101313.259
101313.366
101313.486
101313.62
101313.773
101313.949
101314.153
101314.389
101314.663
101314.985
101315.367
101315.825
101316.362
101317.003
101317.724
101318.587
101319.487
101320.582
101322.321
101324.315
101325.339
101325.749
101326.538
101327.818
101329.562
101331.419
101333.236
101334.582
101335.592
101336.702
101338.344
101340.178
101342.083
101343.903
101346.012
101348.454
101350.497
101352.864
101355.134
101356.946
101311.927
101311.923
101311.919
101311.917
101311.918
101311.921
101311.927
101311.935
101311.947
101311.961
101311.978
101311.998
101312.022
101312.048
101312.079
101312.113
101312.15
101312.191
101312.236
101312.284
101312.336
101312.392
101312.45
101312.51
101312.577
101312.657
101312.729
101312.794
101312.871
101312.956
101313.04
101313.126
101313.215
101313.307
101313.403
101313.504
101313.61
101313.722
101313.844
101313.976
101314.122
101314.284
101314.466
101314.673
101314.908
101315.177
101315.485
101315.838
101316.248
101316.725
101317.274
101317.902
101318.58
101319.342
101320.115
101321.223
101323.142
101324.855
101326.086
101326.853
101327.645
101328.927
101330.383
101331.874
101333.513
101335.082
101336.24
101337.514
101338.967
101340.646
101342.581
101344.443
101346.33
101348.277
101350.216
101351.997
101354.014
101356.577
101358.907
101360.592
101311.932
101311.93
101311.931
101311.934
101311.94
101311.948
101311.96
101311.975
101311.994
101312.016
101312.041
101312.071
101312.104
101312.142
101312.184
101312.229
101312.279
101312.333
101312.392
101312.454
101312.518
101312.589
101312.672
101312.751
101312.825
101312.91
101313.003
101313.096
101313.192
101313.292
101313.396
101313.503
101313.616
101313.734
101313.858
101313.991
101314.134
101314.289
101314.459
101314.646
101314.855
101315.09
101315.354
101315.654
101315.994
101316.38
101316.819
101317.322
101317.903
101318.561
101319.308
101320.159
101321.061
101322.092
101323.802
101325.432
101326.206
101326.925
101327.848
101329.003
101330.507
101331.902
101333.347
101335.023
101336.606
101338.121
101339.536
101340.834
101342.411
101344.248
101346.037
101347.809
101349.613
101351.648
101353.367
101354.748
101356.682
101359.265
101361.713
101363.525
101311.608
101311.611
101311.617
101311.626
101311.638
101311.654
101311.674
101311.697
101311.725
101311.757
101311.793
101311.834
101311.879
101311.929
101311.984
101312.043
101312.106
101312.173
101312.247
101312.332
101312.415
101312.495
101312.587
101312.685
101312.786
101312.889
101312.998
101313.11
101313.227
101313.35
101313.478
101313.612
101313.755
101313.907
101314.07
101314.247
101314.44
101314.653
101314.889
101315.153
101315.45
101315.784
101316.16
101316.585
101317.063
101317.601
101318.209
101318.888
101319.652
101320.466
101321.345
101322.394
101323.808
101325.44
101326.457
101327.169
101328.024
101329.162
101330.607
101332.137
101333.707
101335.365
101336.792
101338.122
101339.556
101340.965
101342.409
101344.055
101345.76
101347.423
101349.156
101350.986
101352.74
101354.585
101356.571
101358.448
101360.661
101362.533
101364.134
101366.246
101310.882
101310.892
101310.905
101310.922
101310.943
101310.968
101310.998
101311.032
101311.071
101311.115
101311.163
101311.217
101311.276
101311.339
101311.408
101311.486
101311.571
101311.652
101311.738
101311.833
101311.935
101312.039
101312.149
101312.263
101312.382
101312.506
101312.635
101312.77
101312.912
101313.061
101313.219
101313.388
101313.569
101313.764
101313.977
101314.211
101314.47
101314.758
101315.079
101315.439
101315.842
101316.293
101316.797
101317.358
101317.982
101318.673
101319.439
101320.269
101321.173
101322.144
101323.228
101324.682
101326.062
101326.939
101327.988
101329.3
101330.764
101332.357
101333.898
101335.61
101337.223
101338.279
101339.277
101340.672
101342.113
101343.45
101344.959
101346.686
101348.453
101350.258
101352.088
101353.981
101355.965
101357.924
101359.878
101362.045
101364.031
101366.114
101368.049
101369.511
101309.688
101309.706
101309.729
101309.756
101309.787
101309.824
101309.865
101309.912
101309.963
101310.02
101310.083
101310.151
101310.227
101310.307
101310.39
101310.481
101310.578
101310.681
101310.789
101310.901
101311.019
101311.142
101311.271
101311.406
101311.546
101311.694
101311.849
101312.012
101312.185
101312.37
101312.568
101312.783
101313.017
101313.273
101313.557
101313.871
101314.221
101314.612
101315.048
101315.536
101316.078
101316.68
101317.345
101318.074
101318.871
101319.734
101320.658
101321.639
101322.673
101324.066
101325.733
101327.003
101328.102
101329.473
101331.113
101332.629
101333.83
101334.894
101336
101337.091
101338.075
101339.286
101340.971
101342.65
101344.342
101346.078
101347.825
101349.557
101351.32
101353.107
101354.933
101356.872
101358.886
101360.848
101362.776
101364.836
101366.604
101368.283
101370.057
101372.154
101307.954
101307.982
101308.017
101308.057
101308.101
101308.15
101308.205
101308.265
101308.332
101308.405
101308.484
101308.567
101308.657
101308.754
101308.856
101308.965
101309.079
101309.199
101309.325
101309.457
101309.596
101309.74
101309.892
101310.052
101310.22
101310.397
101310.586
101310.788
101311.005
101311.24
101311.496
101311.777
101312.087
101312.429
101312.81
101313.234
101313.705
101314.229
101314.811
101315.454
101316.163
101316.94
101317.794
101318.726
101319.72
101320.765
101321.848
101323.18
101324.844
101326.048
101327.075
101328.438
101329.877
101331.048
101332.232
101333.463
101334.677
101336.06
101337.457
101338.891
101340.493
101342.139
101343.773
101345.442
101347.175
101348.918
101350.653
101352.396
101354.119
101355.683
101357.49
101359.715
101361.866
101363.888
101365.852
101368.123
101370.314
101371.725
101372.996
101374.847
101305.636
101305.677
101305.726
101305.78
101305.838
101305.903
101305.973
101306.049
101306.131
101306.22
101306.315
101306.416
101306.523
101306.637
101306.757
101306.883
101307.016
101307.156
101307.302
101307.456
101307.617
101307.787
101307.967
101308.158
101308.361
101308.579
101308.813
101309.068
101309.345
101309.649
101309.984
101310.354
101310.763
101311.217
101311.719
101312.274
101312.884
101313.553
101314.281
101315.069
101315.909
101316.778
101317.699
101318.759
101320.096
101321.65
101323.332
101325.004
101326.012
101327.017
101328.162
101329.051
101330.211
101331.873
101333.678
101335.237
101336.711
101338.273
101339.902
101341.568
101343.229
101344.93
101346.646
101348.382
101350.139
101351.958
101353.838
101355.848
101357.985
101360.214
101362.405
101364.462
101366.314
101367.861
101369.394
101371.057
101372.597
101374.246
101376.887
101379.186
101302.691
101302.746
101302.811
101302.881
101302.955
101303.036
101303.122
101303.215
101303.314
101303.42
101303.532
101303.651
101303.776
101303.909
101304.048
101304.195
101304.349
101304.512
101304.684
101304.865
101305.058
101305.264
101305.484
101305.721
101305.978
101306.258
101306.564
101306.9
101307.272
101307.682
101308.137
101308.642
101309.2
101309.816
101310.494
101311.238
101312.049
101312.929
101313.881
101314.905
101315.993
101317.12
101318.481
101320.275
101321.839
101323.031
101324.08
101324.954
101326.004
101327.666
101329.578
101331.349
101332.808
101334.129
101335.486
101336.962
101338.584
101340.266
101341.967
101343.702
101345.494
101347.36
101349.262
101351.122
101352.957
101354.943
101357.018
101359.022
101361.029
101363.198
101365.01
101366.97
101369.543
101371.286
101372.914
101375.297
101377.147
101379.082
101381.553
101383.715
101299.14
101299.21
101299.294
101299.38
101299.471
101299.568
101299.671
101299.78
101299.896
101300.018
101300.147
101300.283
101300.427
101300.578
101300.738
101300.907
101301.086
101301.276
101301.479
101301.697
101301.932
101302.187
101302.465
101302.769
101303.104
101303.475
101303.886
101304.343
101304.851
101305.415
101306.042
101306.736
101307.502
101308.342
101309.259
101310.253
101311.323
101312.466
101313.673
101314.934
101316.238
101317.655
101318.87
101319.941
101321.333
101322.863
101324.375
101326.201
101328.344
101329.995
101331.204
101332.436
101333.755
101335.11
101336.491
101338.194
101340.165
101342.04
101343.917
101345.842
101347.752
101349.632
101351.579
101353.541
101355.194
101357.277
101360.04
101361.987
101363.628
101365.825
101368.46
101370.824
101372.934
101374.771
101376.675
101379.285
101381.809
101382.869
101383.992
101385.154
101295.018
101295.104
101295.206
101295.309
101295.416
101295.528
101295.647
101295.772
101295.903
101296.041
101296.186
101296.339
101296.501
101296.672
101296.853
101297.046
101297.253
101297.475
101297.715
101297.977
101298.262
101298.576
101298.921
101299.304
101299.729
101300.202
101300.727
101301.31
101301.956
101302.67
101303.456
101304.316
101305.253
101306.269
101307.363
101308.535
101309.782
101311.103
101312.489
101313.957
101315.56
101317.251
101318.954
101320.42
101321.72
101323.225
101324.981
101326.561
101327.914
101329.394
101331.016
101332.463
101333.934
101335.615
101337.441
101339.374
101341.376
101343.538
101345.985
101348.349
101350.721
101353.068
101355.132
101357.3
101359.713
101361.808
101363.292
101365.391
101368.636
101370.805
101372.219
101373.629
101375.297
101377.534
101380.367
101382.607
101383.876
101385.134
101387.51
101389.083
101290.487
101290.589
101290.708
101290.826
101290.948
101291.074
101291.206
101291.344
101291.489
101291.64
101291.799
101291.967
101292.145
101292.335
101292.539
101292.759
101292.997
101293.257
101293.542
101293.856
101294.204
101294.591
101295.021
101295.5
101296.034
101296.628
101297.287
101298.014
101298.814
101299.688
101300.639
101301.665
101302.764
101303.934
101305.171
101306.461
101307.791
101309.135
101310.496
101312.173
101314.219
101316.207
101318.197
101320.103
101321.95
101323.549
101325.141
101327.145
101329.386
101331.802
101333.988
101335.848
101337.762
101339.738
101341.686
101343.532
101345.337
101347.264
101349.291
101351.436
101353.244
101354.88
101357.242
101360.187
101362.808
101364.847
101366.976
101368.93
101370.3
101372.102
101374.817
101377.271
101378.872
101380.897
101383.924
101386.551
101388.385
101390.877
101392.498
101393.436
101285.676
101285.68
101285.684
101285.685
101285.685
101285.683
101285.68
101285.674
101285.667
101285.658
101285.647
101285.633
101285.618
101285.6
101285.58
101285.558
101285.533
101285.505
101285.475
101285.442
101285.406
101285.367
101285.325
101285.28
101285.23
101285.178
101285.121
101285.06
101284.995
101284.926
101284.852
101284.773
101284.689
101284.6
101284.505
101284.404
101284.297
101284.184
101284.064
101283.937
101283.803
101283.661
101283.511
101283.352
101283.185
101283.008
101282.822
101282.626
101282.419
101282.2
101281.967
101281.721
101281.459
101281.181
101280.884
101280.567
101280.227
101279.861
101279.465
101279.033
101278.56
101278.038
101277.458
101276.808
101276.074
101275.24
101274.298
101273.248
101272.092
101270.833
101269.473
101268.01
101266.429
101264.719
101262.879
101260.818
101258.333
101255.845
101252.803
101248.988
101286.521
101286.525
101286.528
101286.529
101286.529
101286.527
101286.523
101286.518
101286.512
101286.503
101286.494
101286.482
101286.468
101286.453
101286.435
101286.416
101286.394
101286.37
101286.344
101286.315
101286.283
101286.249
101286.213
101286.173
101286.13
101286.084
101286.035
101285.982
101285.926
101285.866
101285.802
101285.733
101285.661
101285.584
101285.502
101285.415
101285.323
101285.226
101285.123
101285.014
101284.9
101284.777
101284.648
101284.513
101284.371
101284.221
101284.062
101283.895
101283.719
101283.533
101283.336
101283.127
101282.905
101282.67
101282.418
101282.149
101281.861
101281.55
101281.212
101280.844
101280.44
101279.992
101279.49
101278.926
101278.288
101277.571
101276.772
101275.887
101274.914
101273.851
101272.699
101271.457
101270.12
101268.683
101266.952
101264.655
101262.275
101259.12
101255.554
101253.421
101287.588
101287.591
101287.593
101287.594
101287.594
101287.592
101287.589
101287.585
101287.58
101287.573
101287.565
101287.555
101287.544
101287.531
101287.517
101287.501
101287.483
101287.464
101287.443
101287.419
101287.394
101287.366
101287.336
101287.304
101287.269
101287.232
101287.192
101287.149
101287.103
101287.055
101287.003
101286.947
101286.889
101286.826
101286.76
101286.69
101286.616
101286.537
101286.455
101286.367
101286.275
101286.178
101286.075
101285.966
101285.852
101285.732
101285.605
101285.472
101285.331
101285.182
101285.024
101284.856
101284.677
101284.486
101284.283
101284.066
101283.832
101283.58
101283.305
101283.005
101282.673
101282.305
101281.891
101281.424
101280.896
101280.299
101279.623
101278.86
101278.005
101277.055
101276.013
101274.877
101273.649
101272.333
101270.911
101269.439
101267.903
101266.26
101264.616
101262.304
101288.841
101288.843
101288.844
101288.845
101288.844
101288.843
101288.841
101288.838
101288.834
101288.829
101288.823
101288.816
101288.808
101288.799
101288.788
101288.776
101288.763
101288.749
101288.733
101288.716
101288.697
101288.677
101288.655
101288.631
101288.606
101288.578
101288.549
101288.518
101288.484
101288.448
101288.41
101288.369
101288.326
101288.28
101288.232
101288.181
101288.127
101288.071
101288.011
101287.948
101287.881
101287.811
101287.737
101287.659
101287.578
101287.492
101287.402
101287.307
101287.207
101287.102
101286.991
101286.872
101286.746
101286.611
101286.467
101286.312
101286.144
101285.963
101285.766
101285.549
101285.307
101285.037
101284.73
101284.381
101283.979
101283.517
101282.984
101282.375
101281.687
101280.923
101280.092
101279.205
101278.279
101277.318
101276.32
101275.27
101274.121
101272.873
101271.52
101269.911
101290.233
101290.234
101290.235
101290.235
101290.235
101290.234
101290.233
101290.231
101290.229
101290.226
101290.222
101290.218
101290.213
101290.207
101290.201
101290.194
101290.186
101290.177
101290.167
101290.157
101290.145
101290.133
101290.119
101290.104
101290.089
101290.072
101290.053
101290.034
101290.013
101289.991
101289.967
101289.942
101289.916
101289.889
101289.86
101289.829
101289.795
101289.759
101289.722
101289.684
101289.644
101289.601
101289.557
101289.511
101289.462
101289.411
101289.357
101289.302
101289.243
101289.182
101289.117
101289.049
101288.976
101288.898
101288.815
101288.725
101288.628
101288.523
101288.408
101288.281
101288.14
101287.981
101287.799
101287.587
101287.338
101287.043
101286.694
101286.282
101285.804
101285.264
101284.669
101284.031
101283.355
101282.635
101281.849
101280.969
101279.986
101278.914
101277.768
101276.577
101291.722
101291.722
101291.723
101291.723
101291.723
101291.723
101291.722
101291.722
101291.721
101291.72
101291.719
101291.717
101291.715
101291.713
101291.711
101291.708
101291.706
101291.702
101291.699
101291.695
101291.69
101291.685
101291.68
101291.674
101291.668
101291.661
101291.654
101291.646
101291.638
101291.63
101291.621
101291.612
101291.602
101291.59
101291.578
101291.566
101291.554
101291.54
101291.527
101291.512
101291.498
101291.483
101291.467
101291.451
101291.435
101291.418
101291.401
101291.383
101291.365
101291.346
101291.327
101291.308
101291.287
101291.266
101291.242
101291.218
101291.191
101291.161
101291.127
101291.089
101291.044
101290.989
101290.923
101290.839
101290.732
101290.593
101290.414
101290.186
101289.901
101289.561
101289.169
101288.733
101288.257
101287.734
101287.153
101286.504
101285.778
101284.974
101284.099
101283.197
101293.258
101293.258
101293.258
101293.258
101293.259
101293.259
101293.259
101293.26
101293.26
101293.261
101293.262
101293.263
101293.264
101293.265
101293.267
101293.268
101293.27
101293.271
101293.273
101293.275
101293.277
101293.279
101293.282
101293.284
101293.287
101293.29
101293.294
101293.298
101293.301
101293.305
101293.308
101293.311
101293.316
101293.32
101293.325
101293.331
101293.337
101293.343
101293.35
101293.358
101293.366
101293.375
101293.386
101293.397
101293.409
101293.422
101293.437
101293.453
101293.47
101293.488
101293.509
101293.531
101293.554
101293.58
101293.607
101293.636
101293.668
101293.702
101293.737
101293.774
101293.814
101293.854
101293.893
101293.927
101293.953
101293.964
101293.952
101293.909
101293.824
101293.691
101293.505
101293.265
101292.975
101292.631
101292.239
101291.807
101291.349
101290.886
101290.42
101289.798
101294.803
101294.802
101294.801
101294.801
101294.801
101294.801
101294.802
101294.804
101294.806
101294.808
101294.81
101294.813
101294.817
101294.821
101294.825
101294.83
101294.836
101294.842
101294.849
101294.857
101294.865
101294.873
101294.882
101294.892
101294.902
101294.912
101294.923
101294.935
101294.948
101294.962
101294.976
101294.992
101295.009
101295.026
101295.045
101295.065
101295.086
101295.109
101295.133
101295.159
101295.187
101295.216
101295.247
101295.28
101295.316
101295.354
101295.394
101295.437
101295.482
101295.531
101295.582
101295.637
101295.696
101295.758
101295.824
101295.894
101295.968
101296.046
101296.128
101296.217
101296.317
101296.428
101296.544
101296.662
101296.79
101296.922
101297.054
101297.174
101297.277
101297.357
101297.38
101297.34
101297.238
101297.076
101296.873
101296.657
101296.454
101296.298
101296.141
101295.662
101296.315
101296.314
101296.312
101296.311
101296.311
101296.311
101296.312
101296.314
101296.316
101296.319
101296.323
101296.327
101296.332
101296.338
101296.345
101296.353
101296.361
101296.37
101296.38
101296.39
101296.401
101296.414
101296.428
101296.443
101296.458
101296.475
101296.493
101296.512
101296.532
101296.554
101296.577
101296.601
101296.627
101296.654
101296.683
101296.714
101296.747
101296.781
101296.818
101296.857
101296.898
101296.942
101296.988
101297.038
101297.09
101297.145
101297.204
101297.266
101297.331
101297.401
101297.474
101297.552
101297.634
101297.721
101297.813
101297.912
101298.016
101298.128
101298.246
101298.378
101298.534
101298.714
101298.907
101299.111
101299.327
101299.556
101299.794
101300.032
101300.258
101300.451
101300.599
101300.709
101300.779
101300.776
101300.716
101300.633
101300.582
101300.597
101300.615
101300.305
101297.762
101297.76
101297.757
101297.755
101297.754
101297.754
101297.754
101297.756
101297.758
101297.761
101297.765
101297.77
101297.776
101297.783
101297.791
101297.799
101297.809
101297.82
101297.832
101297.845
101297.859
101297.875
101297.891
101297.909
101297.928
101297.948
101297.97
101297.993
101298.018
101298.044
101298.072
101298.101
101298.133
101298.166
101298.201
101298.238
101298.277
101298.318
101298.361
101298.407
101298.456
101298.507
101298.561
101298.618
101298.678
101298.741
101298.807
101298.876
101298.95
101299.027
101299.109
101299.195
101299.287
101299.386
101299.495
101299.613
101299.742
101299.883
101300.034
101300.19
101300.355
101300.532
101300.731
101300.97
101301.246
101301.551
101301.88
101302.23
101302.584
101302.894
101303.167
101303.4
101303.564
101303.664
101303.684
101303.672
101303.716
101303.861
101304.031
101303.856
101299.119
101299.115
101299.111
101299.108
101299.106
101299.104
101299.104
101299.105
101299.106
101299.109
101299.112
101299.117
101299.122
101299.129
101299.136
101299.145
101299.155
101299.166
101299.179
101299.192
101299.207
101299.223
101299.24
101299.259
101299.279
101299.301
101299.323
101299.348
101299.374
101299.401
101299.43
101299.461
101299.494
101299.528
101299.564
101299.603
101299.643
101299.685
101299.729
101299.776
101299.825
101299.877
101299.931
101299.987
101300.047
101300.11
101300.177
101300.25
101300.327
101300.41
101300.499
101300.592
101300.685
101300.778
101300.873
101300.972
101301.073
101301.18
101301.306
101301.455
101301.618
101301.793
101301.982
101302.187
101302.411
101302.664
101302.958
101303.295
101303.687
101304.114
101304.53
101304.901
101305.159
101305.294
101305.339
101305.373
101305.491
101305.74
101306.043
101306.02
101300.372
101300.366
101300.36
101300.356
101300.352
101300.349
101300.347
101300.346
101300.346
101300.347
101300.349
101300.352
101300.356
101300.362
101300.368
101300.376
101300.384
101300.394
101300.405
101300.418
101300.431
101300.446
101300.462
101300.479
101300.498
101300.518
101300.539
101300.562
101300.586
101300.612
101300.639
101300.667
101300.697
101300.728
101300.761
101300.796
101300.833
101300.871
101300.91
101300.953
101300.998
101301.047
101301.098
101301.154
101301.211
101301.268
101301.324
101301.382
101301.44
101301.498
101301.558
101301.623
101301.7
101301.786
101301.873
101301.96
101302.05
101302.141
101302.232
101302.322
101302.42
101302.536
101302.671
101302.827
101303.007
101303.211
101303.443
101303.705
101303.998
101304.319
101304.649
101304.99
101305.297
101305.477
101305.558
101305.655
101305.867
101306.241
101306.705
101306.893
101301.51
101301.503
101301.495
101301.488
101301.482
101301.477
101301.473
101301.469
101301.467
101301.466
101301.465
101301.466
101301.468
101301.471
101301.475
101301.48
101301.486
101301.493
101301.501
101301.51
101301.521
101301.532
101301.545
101301.559
101301.574
101301.59
101301.607
101301.625
101301.644
101301.664
101301.686
101301.709
101301.733
101301.758
101301.785
101301.814
101301.845
101301.878
101301.911
101301.943
101301.974
101302.006
101302.038
101302.069
101302.103
101302.144
101302.19
101302.236
101302.282
101302.328
101302.373
101302.417
101302.455
101302.491
101302.53
101302.573
101302.62
101302.67
101302.724
101302.78
101302.838
101302.899
101302.967
101303.043
101303.133
101303.237
101303.361
101303.506
101303.674
101303.86
101304.052
101304.241
101304.401
101304.532
101304.625
101304.818
101305.148
101305.683
101306.35
101306.77
101302.53
101302.52
101302.509
101302.5
101302.491
101302.484
101302.477
101302.471
101302.465
101302.461
101302.458
101302.455
101302.454
101302.453
101302.454
101302.455
101302.457
101302.46
101302.465
101302.47
101302.476
101302.483
101302.491
101302.5
101302.51
101302.52
101302.532
101302.545
101302.559
101302.574
101302.589
101302.605
101302.621
101302.635
101302.65
101302.665
101302.679
101302.694
101302.71
101302.729
101302.75
101302.771
101302.791
101302.81
101302.829
101302.843
101302.856
101302.87
101302.885
101302.901