/*--------------------------------*- C++ -*----------------------------------*\
  =========                 |
  \\      /  F ield         | OpenFOAM: The Open Source CFD Toolbox
   \\    /   O peration     | Website:  https://openfoam.org
    \\  /    A nd           | Version:  8
     \\/     M anipulation  |
\*---------------------------------------------------------------------------*/
FoamFile
{
    version     2.0;
    format      ascii;
    class       volScalarField;
    location    "0.015";
    object      T;
}
// * * * * * * * * * * * * * * * * * * * * * * * * * * * * * * * * * * * * * //

dimensions      [0 0 0 1 0 0 0];

internalField   nonuniform List<scalar> 
42400
(
472.168074
470.485946
468.75988
466.989063
465.172748
463.310266
461.401045
459.444623
457.44067
455.389012
453.289647
451.14278
448.948849
446.708551
444.422883
442.093172
439.721112
437.308803
434.858787
432.374087
429.858241
427.315331
424.750022
422.167573
419.573863
416.975397
414.3793
411.793312
409.225754
406.685495
404.181892
401.724728
399.324121
396.990438
394.734183
392.565901
390.496045
388.534833
386.692148
384.977468
383.399735
381.967174
380.687087
379.56581
378.608561
377.819296
377.200668
376.754
376.479235
376.377984
376.440879
376.66633
377.047892
377.576497
378.239823
379.021836
379.904632
380.861812
381.84893
382.830265
383.798064
384.754333
385.326298
385.439343
385.122473
384.374396
383.339583
381.926463
380.000437
377.51451
374.392006
370.22211
365.836827
361.206223
354.600751
347.109772
340.674989
335.56936
327.522015
322.007923
472.204498
470.596028
468.94558
467.25241
465.51584
463.735279
461.910234
460.040329
458.125325
456.165141
454.159877
452.109842
450.015584
447.877916
445.697954
443.47715
441.217329
438.920727
436.590028
434.228398
431.839526
429.427655
426.997609
424.554818
422.105337
419.655853
417.213685
414.786771
412.383646
410.013404
407.685644
405.410412
403.198115
401.059422
399.005166
397.046243
395.193509
393.457618
391.848886
390.377094
389.051284
387.879511
386.868583
386.023987
385.349671
384.847817
384.518554
384.360222
384.367913
384.533521
384.850376
385.30196
385.871823
386.536773
387.26105
388.012556
388.774929
389.562983
390.05524
390.200458
390.006797
389.257457
388.281879
386.993568
385.318496
383.091709
380.250496
376.74911
372.487781
367.63738
362.381926
356.189329
349.536357
343.257566
336.57195
328.955899
322.160192
315.975394
310.975631
306.262737
472.250909
470.73629
469.182187
467.58794
465.952965
464.276768
462.558961
460.799279
458.997604
457.15398
455.268641
453.342037
451.374859
449.368075
447.32296
445.241129
443.124576
440.975709
438.797387
436.592955
434.366282
432.121789
429.864477
427.599955
425.33445
423.074818
420.82854
418.603713
416.409019
414.253689
412.147445
410.100444
408.1232
406.226485
404.421207
402.718264
401.128347
399.661705
398.327907
397.135523
396.091914
395.20292
394.472546
393.902578
393.492178
393.238114
393.134295
393.169184
393.330221
393.597235
393.943476
394.340604
394.767631
395.224275
395.469117
395.45058
395.177342
394.397856
393.425849
392.182325
390.596359
388.558968
385.969673
382.794427
379.008578
374.589463
369.556738
363.968489
357.807797
351.217222
344.626028
337.911256
330.987967
324.484724
318.593767
313.186629
308.421714
304.378387
301.248831
300.183477
472.304122
470.897108
469.453465
467.972628
466.454119
464.897557
463.302678
461.669352
459.997604
458.287633
456.539836
454.754838
452.933514
451.077023
449.186839
447.264786
445.313068
443.334308
441.33158
439.308445
437.268979
435.217803
433.160107
431.101666
429.048852
427.008629
424.988553
422.996748
421.04188
419.133098
417.279958
415.492333
413.780281
412.153888
410.623057
409.197277
407.885318
406.694968
405.63269
404.703239
403.909215
403.250748
402.72565
402.327944
402.047212
401.868818
401.775781
401.74834
401.767843
401.782857
401.685567
401.396152
400.858531
399.980907
398.932918
397.648177
396.064458
394.099409
391.643439
388.660063
385.122616
381.026378
376.385375
371.226611
365.580083
359.495388
353.035372
346.360366
339.591903
332.848674
326.409286
320.466151
315.077292
310.296639
306.353534
303.200759
300.90234
300.116105
299.942217
299.902819
472.360549
471.067636
469.741122
468.380547
466.985543
465.555855
464.091356
462.592063
461.05816
459.490017
457.888215
456.253568
454.587156
452.890348
451.164833
449.412654
447.636234
445.838411
444.022465
442.192143
440.351687
438.505849
436.659906
434.819668
432.991468
431.182147
429.39902
427.649828
425.942665
424.285869
422.687899
421.157167
419.701828
418.329537
417.04718
415.860549
414.77396
413.78985
412.908395
412.127353
411.441084
410.840787
410.315692
409.85247
409.431382
408.978945
408.453242
407.804328
406.973343
405.944356
404.760347
403.368503
401.714464
399.730342
397.326548
394.466131
391.119201
387.267709
382.910235
378.064729
372.764198
367.056627
360.998876
354.677245
348.170294
341.587221
335.035328
328.692258
322.69474
317.202632
312.329218
308.235729
304.982751
302.52928
300.747719
300.063426
299.915778
299.873921
299.865072
299.865624
472.416097
471.235511
470.024315
468.782154
467.50878
466.204063
464.868012
463.50079
462.102734
460.674376
459.216465
457.729989
456.2162
454.676641
453.113167
451.527974
449.923622
448.303053
446.669615
445.027071
443.379613
441.731854
440.088825
438.455946
436.838995
435.244044
433.677384
432.14542
430.654527
429.210896
427.820328
426.488
425.218182
424.013932
422.876762
421.806313
420.800189
419.853426
418.958634
418.09977
417.253244
416.390784
415.479729
414.482449
413.363768
412.140343
410.775088
409.227889
407.452799
405.38856
402.977189
400.183079
396.975602
393.332519
389.243394
384.710264
379.748913
374.389497
368.676703
362.662549
356.414524
350.021973
343.57619
337.193735
330.998307
325.098783
319.612287
314.672472
310.37524
306.831617
304.072799
302.115132
300.697534
300.080578
299.938325
299.902936
299.882827
299.87177
299.860047
299.856538
472.466027
471.386414
470.278893
469.143214
467.979233
466.786933
465.566434
464.318013
463.042119
461.739392
460.41068
459.05706
457.679856
456.280654
454.861323
453.424027
451.971236
450.505732
449.030608
447.549263
446.065378
444.582893
443.105956
441.638857
440.185947
438.751527
437.339715
435.954276
434.598427
433.274616
431.984259
430.72744
429.502601
428.306299
427.132734
425.97348
424.814075
423.636382
422.419459
421.147737
419.802581
418.360291
416.793341
415.069269
413.147512
410.980228
408.533322
405.774014
402.672637
399.205047
395.354689
391.113883
386.484931
381.481617
376.130223
370.469282
364.553024
358.434662
352.180186
345.865995
339.594983
333.474183
327.617753
322.123812
317.114901
312.684706
308.914055
305.855618
303.514894
301.840887
300.770664
300.117645
299.964613
299.914332
299.898825
299.888678
299.876312
299.858192
299.841422
299.834049
472.505161
471.504696
470.478457
469.426276
468.348085
467.243935
466.114003
464.958606
463.778216
462.573471
461.345185
460.094363
458.822208
457.530127
456.219736
454.892855
453.551506
452.197892
450.834376
449.463443
448.087653
446.709569
445.331675
443.95627
442.585337
441.220391
439.862296
438.511058
437.165595
435.823498
434.480824
433.131797
431.76852
430.380783
428.955656
427.477315
425.930176
424.295571
422.550693
420.666915
418.615729
416.368814
413.897257
411.172579
408.168039
404.860037
401.229456
397.262944
392.954156
388.304873
383.325755
378.037071
372.468924
366.661638
360.670884
354.557143
348.392216
342.249461
336.215287
330.384842
324.868115
319.756846
315.158565
311.150067
307.799206
305.133596
303.124609
301.708235
300.795792
300.273066
300.01769
299.952743
299.923764
299.902456
299.881992
299.863846
299.842132
299.819719
299.805905
299.805557
472.528481
471.575187
470.597403
469.595
468.567933
467.516247
466.440088
465.339707
464.215466
463.067843
461.897436
460.704959
459.491241
458.257217
457.003913
455.732423
454.443881
453.13942
451.820117
450.486967
449.140878
447.782502
446.412128
445.029539
443.633854
442.223326
440.795116
439.344985
437.866838
436.352837
434.794214
433.180322
431.498525
429.734052
427.87004
425.887699
423.766538
421.484658
419.0192
416.346979
413.44529
410.292802
406.870519
403.16273
399.158033
394.850331
390.239787
385.333713
380.147375
374.704604
369.038157
363.189591
357.209947
351.158309
345.106292
339.132872
333.329715
327.787422
322.59293
317.8345
313.596787
309.946755
306.938685
304.579899
302.824639
301.598111
300.803763
300.338798
300.094818
299.982278
299.940388
299.899119
299.864224
299.838559
299.822688
299.812461
299.808602
299.807171
299.799938
299.793098
472.532086
471.586084
470.615766
469.620972
468.601599
467.557601
466.488995
465.395857
464.278321
463.136576
461.970852
460.781413
459.568538
458.332491
457.073496
455.791715
454.487206
453.159877
451.809412
450.435149
449.035886
447.609811
446.154315
444.665754
443.13916
441.567522
439.94399
438.261005
436.510125
434.681608
432.763281
430.741433
428.600903
426.32522
423.896846
421.297505
418.508625
415.511852
412.289695
408.826335
405.10828
401.125171
396.870595
392.342918
387.546106
382.490519
377.19368
371.680933
365.986129
360.152102
354.23093
348.283571
342.377227
336.583614
330.990982
325.693469
320.777006
316.324941
312.409306
309.077363
306.350179
304.216192
302.632996
301.52861
300.807836
300.369556
300.122227
299.990108
299.915967
299.868208
299.832665
299.822215
299.818915
299.815889
299.810101
299.806368
299.806567
299.806919
299.799745
299.795091
472.516467
471.538904
470.536226
469.508236
468.454759
467.375634
466.270712
465.139846
463.982881
462.799646
461.589945
460.353533
459.090097
457.798763
456.477696
455.124693
453.738191
452.316214
450.856307
449.355458
447.810019
446.215647
444.567305
442.859261
441.085124
439.238538
437.310813
435.291644
433.169626
430.932282
428.566127
426.056828
423.389418
420.548595
417.519076
414.286029
410.835759
407.156154
403.237319
399.07225
394.657564
389.99426
385.088514
379.952481
374.60511
369.072915
363.390587
357.601483
351.757832
345.92122
340.161585
334.555652
329.182501
324.123248
319.456252
315.259545
311.593736
308.502031
305.996676
304.048621
302.596457
301.564866
300.870842
300.430345
300.165737
300.012428
299.923739
299.868386
299.839938
299.831363
299.824637
299.820912
299.8186
299.815712
299.810254
299.803656
299.800252
299.799501
299.799052
299.796795
472.480854
471.431292
470.354724
469.250857
468.119365
466.959879
465.771974
464.555152
463.307805
462.028808
460.716884
459.370503
457.987828
456.56713
455.107091
453.606107
452.061178
450.468809
448.824955
447.12497
445.363535
443.534562
441.63121
439.645813
437.569793
435.393706
433.107221
430.699165
428.157623
425.470077
422.623607
419.605133
416.401721
413.001099
409.392036
405.564816
401.511805
397.228085
392.712149
387.966658
382.999255
377.823407
372.459263
366.934464
361.284874
355.555007
349.798008
344.075403
338.455859
333.014875
327.830202
322.982495
318.54356
314.578716
311.128796
308.221273
305.857354
304.010803
302.629375
301.639926
300.960025
300.511791
300.227946
300.054061
299.950625
299.88999
299.856494
299.841288
299.834489
299.828984
299.823085
299.81662
299.811173
299.807553
299.80339
299.799619
299.796069
299.792326
299.79158
299.791514
472.426095
471.265793
470.075481
468.854663
467.602743
466.318999
465.001943
463.650263
462.26341
460.839951
459.378133
457.875912
456.330922
454.740436
453.101319
451.40998
449.662306
447.853605
445.978554
444.031186
442.004836
439.892085
437.684777
435.374025
432.950229
430.403129
427.721897
424.895259
421.911663
418.759497
415.427445
411.904848
408.182047
404.250857
400.10511
395.741274
391.159157
386.362669
381.360654
376.167753
370.805272
365.30199
359.694828
354.029263
348.359371
342.747085
337.260851
331.973485
326.959069
322.291004
318.034106
314.243735
310.957477
308.19309
305.938615
304.156369
302.79497
301.79454
301.089174
300.611121
300.298146
300.100561
299.980336
299.910309
299.871715
299.85142
299.840796
299.833379
299.825856
299.818759
299.812427
299.806451
299.801676
299.799166
299.799119
299.799288
299.796786
299.793182
299.790032
299.785847
472.357042
471.057099
469.723405
468.355267
466.951827
465.51189
464.0344
462.517889
460.960632
459.360607
457.715456
456.022453
454.278461
452.479893
450.622665
448.702166
446.71322
444.65004
442.506195
440.274606
437.947538
435.516607
432.97281
430.30658
427.507866
424.566253
421.471115
418.21185
414.778231
411.160649
407.350504
403.340663
399.126004
394.704035
390.075594
385.245619
380.223976
375.026305
369.67485
364.199199
358.636859
353.033551
347.443097
341.926683
336.551348
331.387452
326.50586
321.973072
317.848164
314.178493
310.994172
308.303326
306.096154
304.340733
302.986759
301.974658
301.242584
300.730581
300.385027
300.160404
300.019969
299.935689
299.886963
299.859605
299.844253
299.834216
299.82566
299.817821
299.811173
299.806071
299.802632
299.800553
299.798945
299.797356
299.796235
299.79607
299.796331
299.795486
299.791412
299.786661
472.27739
470.816382
469.31735
467.779411
466.201459
464.58212
462.919964
461.213132
459.459431
457.656306
455.800799
453.889511
451.918569
449.883589
447.779637
445.601205
443.342189
440.995875
438.554935
436.011441
433.356895
430.582282
427.678154
424.63474
421.442099
418.090419
414.570224
410.872677
406.989966
402.915761
398.645753
394.178267
389.514959
384.661576
379.628756
374.432844
369.096662
363.65016
358.130869
352.584034
347.062333
341.62505
336.336684
331.264503
326.474925
322.029795
317.983718
314.377208
311.236303
308.567797
306.362405
304.589919
303.203976
302.152185
301.378471
300.828009
300.450854
300.202379
300.045657
299.951263
299.89674
299.865529
299.847695
299.836299
299.828004
299.821258
299.815773
299.811489
299.807801
299.804268
299.801153
299.798575
299.797176
299.795846
299.793753
299.791432
299.79212
299.79559
299.794131
299.790571
472.18924
470.549981
468.867978
467.142148
465.371121
463.553345
461.687003
459.76983
457.799167
455.771929
453.684565
451.533022
449.312721
447.018523
444.644714
442.184992
439.632462
436.979657
434.218563
431.340677
428.337087
425.198583
421.915845
418.479676
414.881216
411.112259
407.165628
403.035629
398.718582
394.213419
389.522371
384.651691
379.612435
374.421223
369.100962
363.681421
358.199605
352.69978
347.233061
341.856431
336.631141
331.620464
326.887005
322.489643
318.477594
314.887961
311.746061
309.058395
306.814822
304.988487
303.540267
302.425647
301.593541
300.991867
300.570945
300.286648
300.102002
299.986688
299.91767
299.877909
299.855501
299.842581
299.834033
299.827362
299.821761
299.817002
299.812585
299.808451
299.804711
299.801131
299.796811
299.792269
299.788357
299.785836
299.784414
299.781701
299.782239
299.789125
299.793518
299.796934
472.093932
470.261944
468.382109
466.453169
464.473579
462.441489
460.354634
458.210332
456.005445
453.736353
451.398916
448.98845
446.499707
443.926863
441.263518
438.502708
435.636937
432.65823
429.558217
426.328235
422.959543
419.443492
415.771762
411.936674
407.931552
403.751171
399.392263
394.854103
390.139156
385.253782
380.208963
375.021023
369.712294
364.311647
358.854812
353.384379
347.949375
342.604308
337.407588
332.419286
327.698381
323.299614
319.269993
315.645687
312.451135
309.696401
307.37611
305.468923
303.941285
302.749747
301.845413
301.180004
300.706923
300.382532
300.168159
300.032085
299.948818
299.899326
299.870194
299.852843
299.842023
299.83472
299.829008
299.823495
299.817653
299.811997
299.807211
299.803006
299.800068
299.798471
299.79655
299.792651
299.786719
299.783779
299.783519
299.778897
299.776116
299.777509
299.787489
299.793576
471.992541
469.955524
467.865246
465.720257
463.518752
461.258525
458.936935
456.550871
454.096718
451.570328
448.967002
446.281473
443.507907
440.639911
437.670564
434.592466
431.397816
428.078521
424.626389
421.033284
417.291366
413.393384
409.333033
405.105372
400.707315
396.138189
391.400343
386.499818
381.447032
376.257453
370.952221
365.558638
360.110465
354.647935
349.217387
343.87042
338.662514
333.651098
328.893066
324.441884
320.344608
316.639059
313.351214
310.493259
308.063842
306.047949
304.417591
303.132319
302.145756
301.410067
300.877621
300.504003
300.250485
300.0846
299.97988
299.916021
299.878567
299.856961
299.843984
299.835557
299.82969
299.825041
299.82105
299.817037
299.812755
299.80825
299.804547
299.801635
299.798955
299.797032
299.795756
299.793543
299.789385
299.784939
299.785326
299.788507
299.781913
299.777336
299.78293
299.790793
471.886053
469.633687
467.32234
464.95034
462.515602
460.015595
457.447304
454.807196
452.0912
449.294688
446.412467
443.43879
440.367377
437.191461
433.903858
430.497072
426.963461
423.295392
419.485468
415.526805
411.41337
407.140379
402.704761
398.105684
393.345141
388.428575
383.365532
378.170301
372.862505
367.467579
362.017065
356.548657
351.105909
345.737531
340.496235
335.437027
330.61501
326.082918
321.888272
318.070651
314.658969
311.66917
309.102789
306.946436
305.174619
303.75299
302.641499
301.796451
301.172389
300.725124
300.414444
300.205103
300.068194
299.980963
299.925304
299.889543
299.866002
299.850657
299.839509
299.830928
299.824642
299.81936
299.815643
299.812726
299.809805
299.805251
299.8008
299.797823
299.794919
299.791871
299.789729
299.789614
299.790651
299.788704
299.787557
299.792493
299.804893
299.801204
299.797318
299.799795
471.775482
469.299497
466.758578
464.150813
461.473839
458.724801
455.900325
452.996496
450.00884
446.932333
443.761413
440.490019
437.11165
433.619462
430.006409
426.265398
422.389492
418.372175
414.207665
409.891286
405.419909
400.792442
396.010383
391.078414
386.005019
380.803101
375.490552
370.090738
364.63282
359.151846
353.688537
348.288702
343.002212
337.881552
332.979929
328.348796
324.035068
320.078948
316.510916
313.350151
310.602238
308.259319
306.301841
304.700708
303.419979
302.419465
301.65684
301.090169
300.680001
300.390707
300.191809
300.058171
299.970685
299.914244
299.878419
299.854988
299.839746
299.82897
299.82181
299.816852
299.81214
299.808728
299.806872
299.805651
299.804474
299.801764
299.795863
299.791701
299.789412
299.788089
299.787101
299.786706
299.787789
299.790332
299.788515
299.790016
299.802251
299.821654
299.831922
299.832104
472.567437
471.692852
470.795546
469.875144
468.931266
467.96353
466.971547
465.954923
464.913254
463.846128
462.753119
461.633785
460.487663
459.31427
458.113093
456.883586
455.625166
454.337205
453.019026
451.669889
450.288989
448.875443
447.428277
445.946419
444.428683
442.873756
441.280186
439.646364
437.970514
436.250676
434.484731
432.670208
430.804389
428.884291
426.906648
424.867904
422.764197
420.591341
418.344949
416.020656
413.614323
411.116062
408.511291
405.792431
402.949819
399.986698
396.902927
393.691493
390.34836
386.872987
383.266807
379.534421
375.684554
371.730836
367.697018
363.61569
359.529429
355.491358
351.564652
347.820388
344.333181
341.174588
338.405191
336.06691
334.176622
332.721378
331.656526
330.910178
330.395639
330.027308
329.732581
329.45578
329.15532
328.798002
328.354
327.795153
327.098638
326.261229
325.33758
324.469872
472.565092
471.685771
470.783625
469.858292
468.909412
467.936625
466.939567
465.917873
464.871173
463.79909
462.701241
461.577229
460.426645
459.249064
458.044041
456.811109
455.549771
454.2595
452.939731
451.589853
450.209203
448.797058
447.352619
445.875008
444.363245
442.816238
441.232765
439.611449
437.950741
436.248889
434.503916
432.713708
430.875907
428.987899
427.046797
425.049445
422.992417
420.872043
418.684524
416.425179
414.089084
411.671042
409.165838
406.568713
403.875807
401.068675
398.131961
395.057759
391.836209
388.488869
385.00944
381.396986
377.657079
373.800616
369.844201
365.814442
361.748029
357.692639
353.707247
349.861157
346.231147
342.896414
339.931163
337.394899
335.321396
333.709376
332.519843
331.682957
331.111497
330.714805
330.40961
330.12692
329.814494
329.435498
328.966347
328.396601
327.733207
326.998169
326.217324
325.386587
472.560116
471.670739
470.75829
469.822419
468.862779
467.879028
466.870824
465.837826
464.779693
463.69608
462.586638
461.451012
460.288839
459.099747
457.883351
456.639253
455.367038
454.066269
452.736488
451.377204
449.987892
448.567985
447.116867
445.63386
444.118215
442.569099
440.985582
439.366615
437.711016
436.017448
434.284391
432.510123
430.692684
428.829844
426.919068
424.957478
422.941809
420.868371
418.732919
416.531459
414.259641
411.912847
409.486305
406.975268
404.374343
401.677263
398.878655
395.974425
392.961706
389.805358
386.500838
383.040832
379.442632
375.728185
371.903023
367.984675
364.004162
360.001392
356.027918
352.147278
348.433189
344.965832
341.825301
339.082045
336.785701
334.955336
333.574367
332.591532
331.927533
331.486786
331.172561
330.900745
330.607273
330.248736
329.80063
329.258266
328.63827
327.970675
327.274935
326.533568
472.552209
471.64685
470.718016
469.765366
468.788564
467.787284
466.761203
465.710001
464.633362
463.530971
462.402512
461.247667
460.066117
458.857538
457.621602
456.357976
455.066318
453.746277
452.397491
451.01958
449.612148
448.174772
446.707
445.20834
443.678255
442.11615
440.52136
438.893139
437.230637
435.532888
433.798784
432.027052
430.216227
428.364621
426.470289
424.530996
422.544171
420.506869
418.415739
416.266984
414.056324
411.778953
409.429513
407.002087
404.490459
401.889715
399.194892
396.401322
393.505515
390.501356
387.38614
384.161222
380.806422
377.302222
373.654716
369.872504
366.023351
362.127368
358.22383
354.369831
350.631886
347.085761
343.81219
340.889142
338.382083
336.333322
334.75228
333.609573
332.838249
332.343883
332.020991
331.769761
331.50768
331.174606
330.734469
330.176992
329.516214
328.779047
327.98849
327.161421
472.540976
471.61291
470.660793
469.684289
468.683074
467.656833
466.605261
465.52806
464.424938
463.295607
462.139784
460.957187
459.74754
458.510566
457.245992
455.953545
454.632956
453.283954
451.906266
450.499619
449.063731
447.598313
446.103062
444.577657
443.021749
441.434958
439.81686
438.166975
436.484758
434.769577
433.020702
431.237279
429.418308
427.562617
425.668824
423.735315
421.760195
419.741248
417.675902
415.561185
413.393687
411.169521
408.884295
406.533096
404.1105
401.61062
399.027184
396.353773
393.580573
390.70445
387.722791
384.634335
381.439807
378.138993
374.737146
371.244125
367.62497
363.904433
360.110308
356.342505
352.647148
349.088613
345.746685
342.703155
340.034155
337.80028
336.034191
334.730555
333.841722
333.282212
332.941978
332.704878
332.466604
332.148431
331.706552
331.136146
330.465186
329.732483
328.964446
328.171304
472.526035
471.567764
470.584675
469.576434
468.542726
467.483248
466.397713
465.285842
464.147366
462.982025
461.789568
460.569749
459.322331
458.047087
456.743794
455.412241
454.052225
452.66355
451.246033
449.799493
448.32376
446.818666
445.284046
443.71973
442.125544
440.501301
438.846792
437.161783
435.446002
433.699125
431.920764
430.110448
428.26761
426.391555
424.481434
422.536218
420.554667
418.535287
416.476296
414.375578
412.23064
410.038564
407.795962
405.498943
403.14308
400.723412
398.234462
395.670309
393.024706
390.291346
387.464082
384.53726
381.505921
378.366727
375.126518
371.794974
368.383508
364.908692
361.398523
357.836761
354.273
350.764391
347.428967
344.348363
341.59648
339.246935
337.350431
335.924746
334.945031
334.341952
334.009891
333.823752
333.659509
333.416738
333.035984
332.502451
331.843679
331.105072
330.320134
329.504891
472.507017
471.5103
470.487782
469.439132
468.364041
467.262216
466.133382
464.977281
463.793664
462.582298
461.342961
460.075444
458.779548
457.455091
456.101902
454.719828
453.308731
451.86849
450.399
448.900178
447.371955
445.814279
444.227117
442.610447
440.964258
439.288545
437.583308
435.848543
434.084239
432.290365
430.466856
428.613605
426.730447
424.81714
422.873342
420.898595
418.892289
416.853639
414.781637
412.67502
410.532218
408.351311
406.129969
403.865411
401.554351
399.192964
396.776871
394.301151
391.760403
389.148881
386.460715
383.690267
380.832636
377.884392
374.844513
371.715848
368.492442
365.195621
361.850407
358.488195
355.144439
351.871884
348.698253
345.691592
342.935175
340.560717
338.619392
337.144403
336.129323
335.522702
335.232038
335.133819
335.085023
334.959108
334.679113
334.196115
333.527855
332.738211
331.885095
331.00568
472.483583
471.43949
470.368381
469.269921
468.143799
466.989731
465.807452
464.596713
463.357288
462.088964
460.791546
459.464856
458.108735
456.723043
455.307661
453.86249
452.38746
450.882523
449.347658
447.782876
446.188216
444.563745
442.909567
441.225811
439.512639
437.770238
435.998819
434.198616
432.369879
430.512869
428.627852
426.715084
424.774811
422.807248
420.812566
418.790874
416.742194
414.666434
412.563355
410.432534
408.273319
406.084778
403.865642
401.614248
399.328474
397.00568
394.642654
392.235589
389.780081
387.271194
384.703593
382.071801
379.370582
376.595521
373.743795
370.815164
367.813167
364.746592
361.63031
358.485355
355.334051
352.232048
349.241733
346.426265
343.864893
341.598806
339.710875
338.28834
337.330177
336.788372
336.589517
336.636272
336.756584
336.785555
336.699648
336.325115
335.669885
334.837222
333.925228
332.999756
472.455513
471.354671
470.225347
469.067195
467.879898
466.663169
465.416743
464.140381
462.833864
461.496998
460.129608
458.731545
457.302684
455.842927
454.352204
452.830477
451.277741
449.694032
448.079419
446.434019
444.757987
443.05153
441.314898
439.548393
437.752368
435.927223
434.07341
432.191427
430.281822
428.345186
426.38215
424.393383
422.379578
420.34145
418.279719
416.195096
414.088264
411.959851
409.810401
407.640341
405.449926
403.239197
401.007911
398.755474
396.48086
394.182535
391.858377
389.50561
387.120771
384.699717
382.237709
379.729603
377.170176
374.554648
371.879392
369.142902
366.347009
363.498312
360.60968
357.701628
354.803645
351.955406
349.208338
346.608133
344.241875
342.196593
340.540188
339.329183
338.594322
338.301746
338.397878
338.766841
339.086796
339.216216
339.207197
338.984382
338.406121
337.596192
336.690384
335.776302
472.42283
471.255906
470.058784
468.831094
467.572504
466.28271
464.96144
463.608451
462.223526
460.806479
459.35715
457.875413
456.361172
454.81437
453.234988
451.62305
449.978626
448.301839
446.592866
444.851941
443.079362
441.275495
439.440774
437.575708
435.680882
433.75696
431.804688
429.824895
427.818493
425.786476
423.729921
421.649984
419.547894
417.424945
415.282487
413.121913
410.944635
408.752064
406.545574
404.326466
402.095912
399.8549
397.604157
395.344068
393.074578
390.795097
388.504395
386.200516
383.880706
381.541394
379.178262
376.786408
374.360655
371.89619
369.389143
366.837588
364.242809
361.61074
358.953567
356.290981
353.651281
351.072363
348.602437
346.299865
344.232578
342.473655
341.108412
340.19423
339.764784
339.84111
340.37631
341.095949
341.755061
342.192643
342.285471
342.207827
341.85774
341.198257
340.401117
339.587367
472.385906
471.144324
469.870591
468.564305
467.225099
465.852645
464.446649
463.006852
461.533028
460.024987
458.482579
456.905691
455.294257
453.648258
451.967727
450.252758
448.503505
446.720195
444.903129
443.05269
441.169351
439.253678
437.306337
435.328103
433.31986
431.282611
429.217479
427.125714
425.008692
422.867918
420.705027
418.521781
416.32006
414.101861
411.869281
409.624503
407.369769
405.107354
402.839526
400.568498
398.296367
396.025044
393.756159
391.490965
389.230218
386.97405
384.72189
382.472319
380.222962
377.970461
375.710551
373.438253
371.148132
368.835043
366.494765
364.125201
361.727711
359.3086
356.880695
354.464985
352.091617
349.800837
347.642902
345.677242
343.970339
342.591294
341.608379
341.077623
341.068743
341.600382
342.530352
343.676532
344.802151
345.672073
346.118784
346.187512
346.133273
345.833148
345.296314
344.706251
472.345542
471.022339
469.664838
468.272587
466.845176
465.382234
463.883432
462.348483
460.77714
459.169201
457.524515
455.842982
454.124559
452.369269
450.577206
448.748542
446.883535
444.98254
443.046014
441.074527
439.068772
437.029574
434.957895
432.854851
430.72171
428.55991
426.371057
424.156934
421.919505
419.660917
417.383497
415.089753
412.78236
410.464155
408.138118
405.807345
403.47502
401.144374
398.818634
396.500954
394.194368
391.901669
389.625296
387.367214
385.128764
382.910509
380.712139
378.5323
376.368535
374.217274
372.073916
369.933081
367.789034
365.636387
363.471044
361.291499
359.100295
356.905668
354.723132
352.57691
350.500541
348.536826
346.737067
345.160449
343.86644
342.915548
342.365376
342.303552
342.7612
343.681668
344.97776
346.500269
348.050566
349.417492
350.427718
351.006209
351.19569
351.236977
351.206153
351.016983
472.303041
470.893891
469.448169
467.965362
466.444999
464.886657
463.289959
461.654578
459.980235
458.266713
456.51385
454.721559
452.889824
451.018717
449.108402
447.159149
445.171343
443.145498
441.082266
438.982451
436.847024
434.677131
432.474109
430.239497
427.975046
425.682729
423.364749
421.023547
418.661804
416.28244
413.888617
411.483725
409.071372
406.655373
404.239715
401.82852
399.425997
397.036384
394.663881
392.312542
389.986213
387.688394
385.422132
383.18987
380.993298
378.833194
376.709297
374.620164
372.563147
370.534431
368.529195
366.541946
364.567142
362.599844
360.636876
358.678099
356.727949
354.797032
352.903546
351.074208
349.344864
347.759882
346.371204
345.226002
344.377923
343.885482
343.827992
344.236735
345.078676
346.311697
347.857901
349.604807
351.410072
353.112007
354.573332
355.703783
356.499668
357.021921
357.345238
357.540967
472.260258
470.764586
469.230042
467.656038
466.042037
464.387552
462.692149
460.955453
459.17715
457.356997
455.494828
453.590566
451.64423
449.655949
447.625975
445.554696
443.442651
441.290548
439.099273
436.869916
434.603781
432.302403
429.967568
427.601322
425.205988
422.784174
420.338786
417.87303
415.390416
412.894754
410.390145
407.880966
405.371839
402.867616
400.373328
397.894144
395.435309
393.002065
390.59957
388.232786
385.906362
383.6245
381.390825
379.208229
377.078726
375.003307
372.981774
371.012656
369.093183
367.219384
365.38634