/*--------------------------------*- C++ -*----------------------------------*\
  =========                 |
  \\      /  F ield         | OpenFOAM: The Open Source CFD Toolbox
   \\    /   O peration     | Website:  https://openfoam.org
    \\  /    A nd           | Version:  8
     \\/     M anipulation  |
\*---------------------------------------------------------------------------*/
FoamFile
{
    version     2.0;
    format      ascii;
    class       volVectorField;
    location    "0.015";
    object      U;
}
// * * * * * * * * * * * * * * * * * * * * * * * * * * * * * * * * * * * * * //

dimensions      [0 1 -1 0 0 0 0];

internalField   nonuniform List<vector> 
42400
(
(-0.0160105773 0.0153156044 -1.03998485e-26)
(-0.0501027094 0.0468882963 3.42574544e-26)
(-0.0864846172 0.0793484811 3.78713556e-26)
(-0.124563029 0.112046455 0)
(-0.16377403 0.144439924 0)
(-0.203687667 0.176099799 9.49294476e-28)
(-0.2439995 0.206715235 0)
(-0.284502941 0.236074103 -1.06651317e-27)
(-0.325063586 0.264037684 0)
(-0.365597156 0.290518481 -1.19634863e-27)
(-0.406051363 0.315462863 -1.2663807e-27)
(-0.446391957 0.338838204 1.34004167e-27)
(-0.486592735 0.360623974 -5.69355874e-26)
(-0.526628926 0.380806149 -5.96827568e-26)
(-0.566473243 0.39937424 1.58460548e-27)
(-0.606093886 0.416320237 0)
(-0.645453894 0.43163886 0)
(-0.6845113 0.445328589 0)
(-0.723219695 0.457393084 0)
(-0.761528897 0.4678427 0)
(-0.79938551 0.476695896 0)
(-0.836733245 0.48398042 4.64059823e-27)
(-0.87351291 0.489734195 -1.01063351e-25)
(-0.909662027 0.494005869 -2.24849194e-25)
(-0.945114029 0.496855056 -1.2519586e-25)
(-0.979797044 0.498352261 5.74356407e-27)
(-1.01363223 0.498578544 6.05579246e-27)
(-1.04653169 0.497624908 -1.27686035e-26)
(-1.07839607 0.495591488 0)
(-1.10911167 0.492586566 0)
(-1.13854716 0.488725458 2.16130454e-25)
(-1.1665501 0.484129557 2.37185513e-25)
(-1.19294659 0.478925536 -1.66205331e-26)
(-1.21754269 0.473240915 -2.85866336e-25)
(-1.24011647 0.467195376 -2.94620367e-25)
(-1.26038923 0.460906501 0)
(-1.27812825 0.454579685 0)
(-1.29320591 0.448534273 0)
(-1.30486253 0.443752239 0)
(-1.3125649 0.438633111 -3.31926482e-25)
(-1.31494402 0.432332033 -4.4989201e-25)
(-1.31146729 0.427032552 -6.51556389e-25)
(-1.3012451 0.423162143 -1.59899039e-24)
(-1.28295346 0.420306786 5.61104971e-26)
(-1.25385115 0.418076724 6.6555446e-25)
(-1.21345566 0.415075624 7.81775316e-25)
(-1.1594598 0.412514341 -7.09343628e-26)
(-1.0903 0.41059255 -7.30849815e-25)
(-1.00401638 0.409512174 -8.24103939e-26)
(-0.89811709 0.409061154 -9.14418894e-25)
(-0.770254139 0.408958666 -5.08517623e-33)
(-0.618974593 0.408617222 1.71470874e-24)
(-0.439782593 0.40879266 1.04336809e-24)
(-0.235517729 0.410059744 -2.31462416e-25)
(0.00443064302 0.415175807 0)
(0.272992194 0.422987603 0)
(0.595057582 0.429527347 0)
(0.970172456 0.43453335 3.21927662e-25)
(1.39963583 0.439740424 3.45858323e-25)
(1.89066979 0.446671599 0)
(2.449956 0.455261128 -1.19364282e-24)
(3.08155951 0.465175123 -1.41340636e-24)
(3.78974647 0.475863777 4.79229139e-25)
(4.57706208 0.487385476 -2.75235847e-25)
(5.44482642 0.498885513 0)
(6.39948684 0.510756435 0)
(7.42446925 0.534882126 -3.43580269e-24)
(8.53050208 0.545734329 -5.30155682e-24)
(9.79895245 0.513272657 1.39625527e-24)
(10.9705883 0.669693428 0)
(12.1447546 0.875495165 0)
(14.0383602 0.244237746 1.41910372e-24)
(15.3881325 0.374842016 1.68316658e-24)
(15.7431096 1.91666471 0)
(17.554354 1.66205856 1.6879254e-24)
(20.3225268 -0.715601268 1.11839856e-23)
(21.3804583 -0.772395925 1.40121457e-23)
(21.4799319 1.16233968 -4.32179263e-24)
(22.2940083 2.1547185 -3.11954333e-23)
(22.9596744 1.36596085 -7.57786572e-23)
(-0.0202591658 0.0179464339 0)
(-0.0628148516 0.0548545617 2.7309219e-26)
(-0.107610924 0.092747794 3.11189741e-26)
(-0.153900808 0.130898661 0)
(-0.201035725 0.168725305 0)
(-0.248527249 0.20578182 3.6467253e-26)
(-0.296036027 0.241753337 3.74263054e-26)
(-0.343335026 0.276429423 -1.13242336e-27)
(-0.390276767 0.309674433 0)
(-0.436766633 0.341402982 -1.27296761e-27)
(-0.482742006 0.371561549 -1.34927956e-27)
(-0.52815674 0.400115276 -4.80670363e-26)
(-0.572970275 0.427039064 -1.02664686e-25)
(-0.61714056 0.452312151 -5.3298926e-26)
(-0.660619897 0.475915357 5.79959042e-26)
(-0.703352898 0.497830279 5.59697832e-26)
(-0.745275871 0.518039791 0)
(-0.78631705 0.536529331 -4.0827588e-27)
(-0.826397217 0.553288571 0)
(-0.86543038 0.568313177 0)
(-0.903324303 0.581606462 0)
(-0.9399807 0.593180802 -8.47466661e-26)
(-0.975295028 0.60305874 -1.89256396e-25)
(-1.00915582 0.611273749 -1.05813322e-25)
(-1.04144359 0.617870652 0)
(-1.07202918 0.622905723 1.28846559e-26)
(-1.10077176 0.626446481 6.78631729e-27)
(-1.12751623 0.628571209 -1.43866647e-26)
(-1.15209107 0.629368134 -1.65372093e-25)
(-1.17430766 0.628934143 -1.81571439e-25)
(-1.19395576 0.627372129 1.73900524e-26)
(-1.21078515 0.624798863 1.84924054e-26)
(-1.2245317 0.621378031 -2.78687671e-25)
(-1.23496378 0.617290748 -2.66609315e-25)
(-1.24191268 0.612643384 2.9082353e-25)
(-1.2443553 0.607986926 2.61504603e-25)
(-1.24207424 0.602265237 0)
(-1.23424465 0.596661548 -2.62910935e-26)
(-1.22141291 0.590116178 0)
(-1.20051681 0.585040484 -5.82768747e-26)
(-1.17092802 0.579711305 -6.38373918e-25)
(-1.13016382 0.574260752 -5.27997872e-25)
(-1.07828284 0.567925178 -7.08740581e-26)
(-1.0132034 0.561832817 7.69917398e-26)
(-0.933450786 0.556214896 -1.66495215e-25)
(-0.837039634 0.550963877 8.83379801e-26)
(-0.721812021 0.5459291 -9.55806995e-26)
(-0.585977332 0.540694204 -6.17018846e-25)
(-0.425094119 0.535446211 -7.57738798e-25)
(-0.243300958 0.53023525 0)
(-0.0316265224 0.528875504 1.24534319e-25)
(0.202288445 0.531591358 -2.67727903e-25)
(0.482135666 0.534093032 -6.82246594e-25)
(0.807873662 0.5349989 -1.12272556e-24)
(1.18356815 0.535758612 -3.39743597e-25)
(1.6134179 0.538495203 -1.43938112e-24)
(2.10403931 0.544048071 -1.49337278e-24)
(2.65978693 0.552122085 4.39568879e-25)
(3.28525416 0.562593427 4.80766999e-25)
(3.98459048 0.575822657 -4.23656155e-25)
(4.76057659 0.592349927 1.30171674e-25)
(5.61474891 0.612531821 -6.17818352e-25)
(6.54862191 0.637006907 6.68130832e-25)
(7.5595064 0.668093742 0)
(8.64221479 0.704117768 -2.38755166e-24)
(9.81053662 0.737494268 -9.69624483e-24)
(11.0313422 0.789385234 -4.28598137e-24)
(12.2914382 0.860893657 0)
(13.7530283 0.787591429 4.74655343e-26)
(15.179011 0.771982149 1.44513577e-24)
(16.1999993 1.28403898 7.75009362e-24)
(17.6863033 1.28188494 1.33839165e-23)
(19.6036986 0.35745817 -6.88691705e-24)
(20.446588 0.867244691 -3.85670724e-24)
(21.1633193 2.0798337 9.0629829e-26)
(22.3381691 1.56755779 2.60127181e-23)
(23.1675141 0.446973951 2.81918471e-23)
(23.290993 0.405881293 -5.68682938e-24)
(23.2915705 0.930268416 -2.31799114e-23)
(23.2189603 1.1444195 -2.00540405e-23)
(-0.0238046589 0.0194965503 3.19935262e-27)
(-0.0735170665 0.0596275058 -4.45174419e-28)
(-0.12549294 0.100866827 4.6834468e-28)
(-0.178836498 0.142427342 -5.00449266e-28)
(-0.232783347 0.183682986 0)
(-0.286791766 0.224179262 -2.86420165e-26)
(-0.340480865 0.263601705 -1.10575474e-33)
(-0.393596813 0.301742994 3.20743291e-26)
(-0.445973953 0.338471093 3.38085424e-26)
(-0.497501973 0.3737032 7.11439891e-26)
(-0.548102069 0.407386406 3.58841425e-26)
(-0.597709792 0.439484187 -1.58324662e-27)
(-0.646263228 0.469967504 -1.67878433e-27)
(-0.693695393 0.498809517 4.3438155e-26)
(-0.739929835 0.525983017 4.57677734e-26)
(-0.784878521 0.551459802 -6.02420931e-27)
(-0.828441232 0.575211367 -4.6872025e-26)
(-0.870505836 0.597210364 -1.08598921e-25)
(-0.910948951 0.617432441 -5.78703303e-26)
(-0.949636646 0.63585817 -5.12313206e-27)
(-0.986424959 0.652474868 5.44209183e-27)
(-1.02116007 0.66727821 5.78300336e-27)
(-1.053678 0.680273625 0)
(-1.08380363 0.691477598 -1.3024684e-26)
(-1.11134953 0.700918981 9.1372967e-26)
(-1.13611425 0.708639465 -6.1163937e-29)
(-1.1578804 0.71469348 -1.08957607e-25)
(-1.17641166 0.719149007 -1.19177177e-25)
(-1.19144862 0.722094127 -1.31349566e-25)
(-1.20272448 0.723628502 1.26868587e-25)
(-1.20998259 0.72383195 2.01514881e-26)
(-1.21260773 0.722906736 -2.51480847e-25)
(-1.2103584 0.720515465 -1.88881555e-25)
(-1.20278583 0.717215033 0)
(-1.18933608 0.713404835 0)
(-1.17021864 0.708596134 2.73511303e-26)
(-1.14264826 0.703871434 0)
(-1.10595616 0.698089277 -6.16797911e-26)
(-1.057624 0.691696336 -3.3144397e-25)
(-0.998049381 0.68419499 -1.44757911e-25)
(-0.925341717 0.676519275 2.73889624e-25)
(-0.838114862 0.668793291 0)
(-0.734423427 0.660948924 0)
(-0.611953423 0.652920611 -4.67693659e-25)
(-0.469436937 0.644372552 -5.7945784e-25)
(-0.304208416 0.635757796 -1.1251828e-25)
(-0.117398188 0.628153827 0)
(0.0991705572 0.624717598 0)
(0.332882282 0.62411526 -6.53070204e-25)
(0.622451282 0.62193766 -6.70943298e-25)
(0.952242772 0.618428463 1.56150924e-25)
(1.32982421 0.617048876 0)
(1.76142194 0.61855871 3.02551171e-26)
(2.25157243 0.622959016 4.03156117e-25)
(2.80471735 0.630332033 2.71731936e-25)
(3.4253285 0.641110826 -4.30228235e-25)
(4.11790041 0.655615779 -3.32221054e-25)
(4.88523711 0.674667443 6.56733318e-32)
(5.73079353 0.699363322 -8.81736903e-32)
(6.655233 0.730960806 -2.98520226e-24)
(7.6581724 0.769906064 -2.20718723e-24)
(8.73047615 0.819085637 2.86882678e-24)
(9.86805925 0.878367587 4.29043739e-24)
(11.0638771 0.946326602 0)
(12.3093359 1.01902577 6.75241067e-24)
(13.6220172 1.08094032 1.28586715e-23)
(14.9641111 1.12838207 7.27647901e-24)
(16.2694625 1.25917483 0)
(17.6078293 1.32583703 -4.85338898e-26)
(19.106225 1.15752927 1.11027525e-23)
(20.2379559 1.28192385 9.81624809e-24)
(21.1334287 1.79921973 0)
(22.1928307 1.65505946 0)
(23.1360106 1.18512373 1.72910101e-24)
(23.3011098 1.41944912 -1.9074814e-24)
(23.3804138 1.61380697 -2.52503106e-24)
(23.3116295 1.80952137 1.34114687e-23)
(23.2484462 1.54175946 0)
(23.2661538 1.30476384 -2.48103409e-24)
(23.2122679 1.28638337 2.42934311e-23)
(-0.0268084188 0.0202626867 -3.13168622e-28)
(-0.0826570927 0.062013343 -4.91007226e-28)
(-0.140841684 0.104943347 9.84887306e-27)
(-0.200306104 0.148219044 -1.14796083e-26)
(-0.260192884 0.191194449 -1.11018273e-26)
(-0.319866718 0.233394841 0)
(-0.378889785 0.274502939 -2.43997045e-26)
(-0.437008091 0.314329422 -2.38847171e-26)
(-0.494027762 0.352752834 -2.63104208e-26)
(-0.549817116 0.389694899 -2.73084329e-26)
(-0.604275287 0.425105458 -3.1542084e-26)
(-0.657312949 0.458949035 -4.23400382e-34)
(-0.708839637 0.491195786 -1.85857065e-27)
(-0.758755648 0.521816267 -2.52265959e-33)
(-0.80694737 0.550779033 2.09271881e-27)
(-0.853285057 0.578050181 -3.72602603e-26)
(-0.8976222 0.60359419 3.86053743e-26)
(-0.939795844 0.627375541 4.99512725e-27)
(-0.979627303 0.649360718 -3.65139804e-26)
(-1.01692285 0.669520362 -5.6510871e-27)
(-1.0514741 0.687831561 1.20556454e-26)
(-1.08305812 0.704280132 4.21791542e-26)
(-1.11143669 0.718861988 4.47358712e-26)
(-1.13634567 0.731581074 -7.26211072e-27)
(-1.15749747 0.742448818 0)
(-1.17459265 0.751484843 -8.25736981e-27)
(-1.18732898 0.758720518 0)
(-1.1953656 0.764209873 -7.31525814e-26)
(-1.19823502 0.767897243 -1.25662728e-25)
(-1.19560535 0.770025872 -8.18892938e-26)
(-1.1871173 0.770907408 7.10450297e-26)
(-1.17262054 0.770609818 1.29252e-25)
(-1.15076055 0.769427811 -5.20500391e-26)
(-1.1202734 0.766957298 -2.78359263e-26)
(-1.07991969 0.762957911 1.69643189e-25)
(-1.02767415 0.757666491 1.82751504e-25)
(-0.963787602 0.75118271 0)
(-0.886630722 0.744065361 -2.06384777e-25)
(-0.794768968 0.736416791 -1.87917093e-25)
(-0.686316087 0.728267915 -8.5501604e-26)
(-0.559281435 0.719649449 -9.33127512e-26)
(-0.412490456 0.710135015 0)
(-0.24214588 0.699842568 0)
(-0.0478242305 0.691680278 0)
(0.163710514 0.688070478 -1.17657925e-25)
(0.411521573 0.685326466 -5.93490422e-25)
(0.702776195 0.680480567 -3.79261269e-25)
(1.03752173 0.675394225 0)
(1.4185481 0.673142528 0)
(1.85213175 0.674361179 -2.42573325e-25)
(2.34196054 0.678754928 -4.84086618e-26)
(2.89272145 0.686741206 -1.84335765e-25)
(3.50921436 0.698643365 -8.35699638e-26)
(4.19573618 0.715156148 4.62588112e-25)
(4.95565009 0.737719989 2.40999331e-25)
(5.79186884 0.767356546 -9.71951777e-25)
(6.7056131 0.804726053 -1.31943812e-24)
(7.69529119 0.850199235 -2.54300363e-24)
(8.75790139 0.9038614 0)
(9.88187491 0.968782205 -6.39344184e-25)
(11.0638712 1.04438373 -4.19753442e-24)
(12.2918276 1.12892491 -9.26600853e-24)
(13.5590907 1.22437055 6.25262402e-25)
(14.841743 1.32679686 6.26188024e-25)
(16.1302659 1.43335297 -8.16746985e-24)
(17.4075379 1.53988586 7.60833618e-24)
(18.685052 1.58523837 8.48503159e-24)
(19.9229061 1.66264092 -1.36382492e-24)
(20.9460149 1.77861668 -5.15360235e-24)
(22.0552594 1.78938593 -1.7367238e-23)
(22.9006635 1.6519708 1.07663893e-25)
(23.2895242 1.72900652 -1.57692591e-23)
(23.3756908 1.90676224 -6.83181466e-24)
(23.3418686 1.94967223 0)
(23.2978289 1.86432835 -1.41816846e-23)
(23.29356 1.81749276 -2.26275745e-23)
(23.303308 1.75165517 1.93976765e-24)
(23.2691014 1.71413335 1.46551705e-23)
(23.256058 1.69678727 1.63020721e-23)
(23.2413379 1.616014 1.59120681e-23)
(-0.0296258525 0.0206181013 2.08518957e-27)
(-0.0912155047 0.0630589748 0)
(-0.155189532 0.106634807 0)
(-0.220332219 0.150479599 2.75738229e-30)
(-0.285675441 0.193939934 0)
(-0.350525261 0.236552269 0)
(-0.414412669 0.278004047 0)
(-0.476979598 0.318097664 2.95285036e-27)
(-0.538056686 0.356728659 0)
(-0.597479938 0.393836437 -1.65862031e-27)
(-0.655120894 0.429378415 -2.18694305e-26)
(-0.710859319 0.463324611 -2.32784182e-33)
(-0.764569031 0.4956496 1.49590463e-26)
(-0.816109444 0.52632729 0)
(-0.865320663 0.555328545 2.22229688e-27)
(-0.912020967 0.582620862 -4.72728221e-27)
(-0.956005837 0.608169431 0)
(-0.997048114 0.631939172 -1.06440727e-26)
(-1.03489882 0.653897085 -5.69349901e-27)
(-1.0692876 0.674014872 8.536138e-27)
(-1.09991393 0.69226798 1.22920927e-26)
(-1.12644845 0.708631765 -6.86084716e-27)
(-1.14857745 0.72302951 0)
(-1.16583235 0.735515224 1.72459866e-26)
(-1.17792923 0.746112356 1.36283517e-26)
(-1.18452014 0.754949285 9.35200522e-29)
(-1.18520596 0.762161883 6.97669344e-27)
(-1.17967045 0.767956059 -1.12849819e-26)
(-1.16664547 0.772071136 -8.40740959e-27)
(-1.14533265 0.774467467 0)
(-1.11471871 0.775087129 1.9667113e-26)
(-1.07341699 0.773918452 1.45384356e-26)
(-1.02063319 0.771222838 -2.87407947e-26)
(-0.955661606 0.767378218 -1.94423603e-26)
(-0.877126844 0.762582467 2.13853734e-26)
(-0.783543071 0.75691768 7.11586538e-26)
(-0.673044246 0.750439971 -3.81789708e-26)
(-0.543629133 0.743171082 7.34645581e-26)
(-0.393768999 0.734755782 5.96060471e-26)
(-0.220684962 0.725689566 -1.86889188e-27)
(-0.0234499413 0.719133062 -1.56031509e-26)
(0.191335638 0.71581416 -2.36061377e-25)
(0.447920468 0.7119212 0)
(0.742452761 0.706999342 1.22425341e-25)
(1.07942127 0.70337286 1.26850786e-26)
(1.46314667 0.702576142 1.40961295e-25)
(1.89780499 0.705005572 -2.9615397e-32)
(2.38706823 0.71084769 -1.07941066e-25)
(2.93552446 0.720704983 0)
(3.54814052 0.735274503 1.88346044e-25)
(4.22906845 0.755613529 2.34111622e-25)
(4.98138069 0.782945519 -2.81467862e-25)
(5.80756226 0.818054757 9.29584454e-25)
(6.70844663 0.861542343 3.93518904e-25)
(7.6830327 0.913851523 -8.47109925e-25)
(8.727893 0.975439658 -1.17715318e-24)
(9.83744236 1.04644906 -5.32502677e-24)
(11.0000746 1.12876579 -4.34930031e-24)
(12.2087255 1.22138349 -4.41563604e-24)
(13.4504503 1.32205468 -5.73498996e-24)
(14.7178371 1.43162359 0)
(15.9837621 1.54401423 5.9275834e-25)
(17.240186 1.66490099 -5.57661004e-24)
(18.4381683 1.78801173 -7.18122009e-24)
(19.5945716 1.90767435 -3.64632231e-26)
(20.6533726 2.01696696 0)
(21.6756354 2.07284443 1.34471858e-23)
(22.5403903 2.07337742 1.57023209e-23)
(23.1707369 2.07370519 1.33177559e-24)
(23.327297 2.14380686 -1.24505152e-24)
(23.3697364 2.1363974 -2.40644687e-26)
(23.369094 2.12067042 -1.26553754e-24)
(23.361942 2.06728206 -1.39506046e-23)
(23.310617 2.10441824 -1.32850007e-23)
(23.2639277 2.04279551 -1.20893566e-24)
(23.2448676 1.99610721 0)
(23.2232114 2.00681544 -9.40961068e-24)
(23.2235465 1.94683546 -1.24714416e-23)
(23.2491751 1.85123263 0)
(23.2542692 1.81159505 -1.37080327e-23)
(-0.0326006757 0.0208341687 -5.04135718e-27)
(-0.10012928 0.0635492842 -8.81429602e-27)
(-0.169982845 0.107221537 -8.15955497e-27)
(-0.240788888 0.150969701 5.94556416e-28)
(-0.31147134 0.194145385 8.21034431e-27)
(-0.381263971 0.236298465 1.33339282e-27)
(-0.449643462 0.277138327 -9.10958764e-27)
(-0.516260072 0.316481662 -5.75033018e-27)
(-0.580823064 0.354228132 -1.58188639e-27)
(-0.643195912 0.390329173 -3.34801514e-27)
(-0.703207333 0.424763255 2.3195233e-27)
(-0.760696453 0.457511257 8.55838912e-27)
(-0.815491284 0.488557689 2.84522973e-27)
(-0.867398822 0.517886549 -2.50012333e-27)
(-0.91620004 0.545479078 -2.25533016e-27)
(-0.961647304 0.57131306 3.10129811e-27)
(-1.00345703 0.595362247 0)
(-1.04130789 0.617599112 0)
(-1.07485059 0.6380016 1.9517367e-26)
(-1.10374363 0.656497469 3.38762901e-26)
(-1.12754292 0.673172077 2.37738961e-26)
(-1.14592173 0.688023909 3.4633401e-26)
(-1.15844452 0.701236935 -2.28763106e-33)
(-1.16441424 0.712530599 -4.89190657e-26)
(-1.16310478 0.721967832 6.878677e-26)
(-1.15375703 0.729537794 1.2639708e-25)
(-1.13547928 0.735199936 7.77157702e-26)
(-1.10714905 0.738949215 1.0528528e-26)
(-1.06843658 0.741241511 -1.12744387e-26)
(-1.01821044 0.742151869 2.41717843e-26)
(-0.955232742 0.741754333 0)
(-0.878146976 0.740132299 5.62122233e-26)
(-0.785427236 0.737382711 2.96950378e-26)
(-0.675221198 0.733616774 -8.39398192e-26)
(-0.545580231 0.728926221 0)
(-0.394916674 0.723113827 -4.58819313e-26)
(-0.22063938 0.716678184 -2.12989252e-25)
(-0.0213023903 0.712371353 0)
(0.196952315 0.710566998 0)
(0.456953023 0.708194887 -5.38454574e-26)
(0.754295329 0.705245979 -1.03027701e-25)
(1.09328945 0.704170416 -2.2001034e-25)
(1.47796215 0.706022916 0)
(1.91204345 0.711109983 2.42666094e-25)
(2.3996431 0.720049176 4.13795702e-25)
(2.94526291 0.733591205 3.19983498e-25)
(3.55329823 0.752522065 -1.580445e-25)
(4.22746703 0.777768094 -6.83141724e-28)
(4.97055182 0.810403689 0)
(5.78475425 0.851179933 -2.77784875e-25)
(6.67096229 0.900792952 4.19091172e-25)
(7.6284726 0.959935377 8.35814278e-25)
(8.65464047 1.02918281 4.8544369e-25)
(9.7440486 1.10898193 -8.49392237e-25)
(10.8884977 1.19927265 -4.01460631e-24)
(12.0746543 1.30152731 6.79556248e-32)
(13.2913582 1.41360435 2.25995998e-24)
(14.5270229 1.53202116 0)
(15.7685311 1.65472815 0)
(16.9952683 1.77740256 5.38561429e-25)
(18.1941473 1.90633523 5.44473176e-25)
(19.3191735 2.02666486 0)
(20.3841576 2.14418179 7.74681852e-24)
(21.3268436 2.24260181 6.56963212e-24)
(22.1881239 2.32405464 -1.02250874e-23)
(22.8803187 2.37621824 -3.22402798e-23)
(23.2405399 2.41557422 -1.13224179e-23)
(23.3036012 2.47483791 -5.95406526e-24)
(23.3304647 2.45278914 -4.39463486e-24)
(23.3360536 2.38662046 -2.39349917e-24)
(23.3333183 2.37912179 8.93832132e-24)
(23.3200419 2.31111054 1.16346928e-23)
(23.2802014 2.28957994 -1.27388563e-23)
(23.2618872 2.24524513 -1.02328937e-23)
(23.2417852 2.23416469 -1.30323668e-23)
(23.230349 2.19581514 -1.39204802e-23)
(23.2279599 2.17344856 -9.08402773e-24)
(23.2309185 2.09667196 1.48207142e-31)
(23.2652763 2.06979485 2.3312025e-23)
(23.2661192 2.04725546 2.50788596e-23)
(-0.0359591952 0.0210340486 2.72464511e-27)
(-0.109989203 0.0638572887 -5.00139756e-28)
(-0.186092363 0.107337771 9.38122092e-27)
(-0.262742721 0.150596829 8.77131337e-34)
(-0.338757243 0.193005359 -7.19607119e-27)
(-0.413297122 0.234135386 -5.03303369e-27)
(-0.485786415 0.273718153 -1.04217037e-26)
(-0.555827498 0.311595527 -2.49490543e-27)
(-0.623118177 0.347686343 -2.19853889e-27)
(-0.687453444 0.381958976 -2.4500514e-28)
(-0.748619137 0.414404648 1.85263588e-27)
(-0.806401547 0.445021154 5.98392721e-27)
(-0.860567889 0.473809887 6.90027384e-27)
(-0.910851151 0.500773247 7.81687021e-27)
(-0.956947488 0.525912534 -2.14259449e-27)
(-0.998541546 0.549184374 -2.27845427e-27)
(-1.03519778 0.570634892 3.48346903e-26)
(-1.06654449 0.590293875 4.62406456e-26)
(-1.09213393 0.608087451 5.56233387e-27)
(-1.11139167 0.624116723 5.88276341e-27)
(-1.12368797 0.638241387 8.92519698e-26)
(-1.12827432 0.65049978 9.73952021e-26)
(-1.12434038 0.660832028 0)
(-1.11134109 0.669531416 -7.724273e-27)
(-1.08837661 0.676595483 0)
(-1.05444008 0.682080335 0)
(-1.00841629 0.686055115 -9.47316145e-27)
(-0.949084194 0.68859576 -1.23639597e-25)
(-0.875082175 0.689821705 -1.65668255e-25)
(-0.784847761 0.689885594 1.8895411e-25)
(-0.676570158 0.688936877 1.71775478e-25)
(-0.548360854 0.687120215 -2.72308382e-26)
(-0.398587732 0.684359788 2.92288736e-26)
(-0.224793679 0.681127781 0)
(-0.0252574681 0.679733847 -3.23649177e-26)
(0.194881248 0.680360009 0)
(0.455997365 0.680736456 0)
(0.754117864 0.680987702 -4.06214871e-26)
(1.09290205 0.683464065 0)
(1.47646444 0.68906977 0)
(1.90834317 0.698128765 2.6669139e-25)
(2.39252933 0.711333039 1.76070561e-25)
(2.93321905 0.729430342 0)
(3.53432096 0.753247579 0)
(4.19923602 0.783698279 0)
(4.93061121 0.821798908 -1.46356829e-25)
(5.73056905 0.868394051 -1.58390738e-25)
(6.60003416 0.92430864 8.65258604e-25)
(7.53843074 0.990298515 8.53089326e-25)
(8.54334573 1.06697171 1.04521621e-24)
(9.61020712 1.15465333 1.27831216e-24)
(10.7317585 1.25338409 1.78395545e-24)
(11.8982792 1.36245615 2.14969521e-24)
(13.0949804 1.48302249 0)
(14.3081317 1.61281439 0)
(15.5238473 1.74990347 -2.18302763e-24)
(16.7219998 1.89108423 -5.34311843e-24)
(17.8879821 2.03212334 -3.17185978e-24)
(19.0004505 2.16661335 -3.43173001e-24)
(20.0505824 2.28547883 -2.73939069e-24)
(21.0169477 2.40576794 7.51922345e-24)
(21.8370845 2.49750414 1.5260664e-23)
(22.5765694 2.57991108 6.09937684e-25)
(23.1038386 2.61489821 -1.50517606e-23)
(23.3028748 2.67555583 5.22780859e-25)
(23.3228593 2.69026304 -1.40300189e-24)
(23.310018 2.69896688 3.84353955e-24)
(23.2921767 2.68256235 -1.10120565e-31)
(23.2626919 2.65556597 -1.20029738e-23)
(23.2459956 2.61517333 -1.11494735e-24)
(23.2467267 2.55842335 1.1096819e-23)
(23.239413 2.51144314 9.24497434e-24)
(23.2463345 2.42867056 0)
(23.2470899 2.38690391 1.11945055e-24)
(23.2522537 2.3484401 0)
(23.2407025 2.32847973 1.01983763e-23)
(23.2370409 2.31361625 2.73754221e-23)
(23.2313396 2.27298646 1.23041591e-23)
(23.3616654 2.20879483 1.17550829e-23)
(23.3953813 2.16299591 2.50623209e-23)
(-0.0397406706 0.0211937123 2.80197771e-27)
(-0.120834441 0.0639427164 8.86454973e-27)
(-0.203476299 0.106963809 4.45747547e-28)
(-0.285990194 0.149399952 -7.0205449e-27)
(-0.367088291 0.190654734 -5.5318176e-27)
(-0.445858521 0.230332669 -3.34641931e-27)
(-0.521669289 0.268195992 1.11793488e-27)
(-0.59407433 0.304117601 1.16187948e-27)
(-0.662743149 0.338029291 -1.08798535e-27)
(-0.727339811 0.369925634 -4.12660308e-27)
(-0.787643311 0.399807876 0)
(-0.843357881 0.427708305 3.04704321e-27)
(-0.89417912 0.453622016 -1.61742623e-27)
(-0.939699474 0.477629759 0)
(-0.979560884 0.499692136 0)
(-1.01325716 0.519899616 0)
(-1.04025933 0.538195113 0)
(-1.0599274 0.554577162 2.2600227e-27)
(-1.07165545 0.569195097 0)
(-1.07472323 0.582048341 -4.82675647e-26)
(-1.06829493 0.593192966 -5.44425073e-26)
(-1.05145751 0.602665468 1.38973667e-25)
(-1.02316206 0.610536901 1.47000152e-25)
(-0.9823239 0.616889004 -1.69049019e-25)
(-0.927697959 0.621847803 -1.70062169e-25)
(-0.857904243 0.625552003 -1.9288437e-25)
(-0.771407023 0.628157465 -2.17338868e-25)
(-0.666468954 0.629841791 -2.03512227e-25)
(-0.541263528 0.630804948 -4.50507328e-25)
(-0.394109181 0.631061643 -2.49288307e-25)
(-0.222649386 0.631030789 0)
(-0.0248280522 0.632590513 2.3824987e-26)
(0.19505829 0.63583993 2.58403057e-26)
(0.455009031 0.639220814 0)
(0.751540767 0.642962868 -3.0451196e-26)
(1.08774782 0.649242552 0)
(1.46772943 0.658843073 0)
(1.89482237 0.672079882 3.41043945e-25)
(2.37281417 0.689660307 4.07044922e-26)
(2.90561307 0.712349061 -4.3037643e-25)
(3.4968384 0.740988947 4.20612518e-25)
(4.14967712 0.77652105 5.18161439e-25)
(4.8666742 0.819970248 -5.54699608e-26)
(5.64984447 0.872206737 0)
(6.50011921 0.934060359 8.89456987e-25)
(7.4170616 1.00628049 7.45087955e-25)
(8.39856983 1.08947029 0)
(9.44058658 1.18400405 0)
(10.5368044 1.28993698 -1.27141396e-24)
(11.6783534 1.40694951 -1.51592628e-24)
(12.8538014 1.5339386 2.02424682e-24)
(14.0473723 1.67085388 2.45148369e-24)
(15.2441906 1.81460482 -2.24718721e-24)
(16.4304538 1.96297662 5.93470476e-32)
(17.5852118 2.11288636 2.90053519e-24)
(18.6923615 2.26435502 1.49903268e-26)
(19.7212457 2.41138466 0)
(20.6671814 2.55112719 4.74199967e-25)
(21.5035459 2.66953628 -2.71787478e-24)
(22.2659748 2.75116437 5.96965449e-25)
(22.8636147 2.81459672 6.71991386e-24)
(23.2412457 2.85496153 0)
(23.3263206 2.91014281 4.94407275e-25)
(23.3377208 2.92091254 0)
(23.3264516 2.91839773 3.21675826e-25)
(23.2897666 2.91090263 -4.43706776e-25)
(23.2405511 2.89109505 -1.09946512e-24)
(23.2158208 2.84805108 -1.38180908e-23)
(23.1973399 2.85442086 -1.05758226e-23)
(23.2194343 2.7577702 -1.0982126e-24)
(23.2261262 2.71375833 -1.0225484e-23)
(23.2178169 2.69853688 -7.17432512e-24)
(23.2279513 2.65039774 -9.70591166e-24)
(23.2404188 2.60931008 -1.21830492e-23)
(23.2787411 2.57557471 -1.23603913e-23)
(23.3043138 2.55276799 -1.29237156e-23)
(23.3347943 2.57450636 1.04263065e-23)
(23.3408464 2.52929948 1.09088692e-23)
(23.6227083 2.46825037 -2.16091574e-24)
(23.7330656 2.34881011 2.22033506e-24)
(-0.0436957993 0.0211447053 2.51837924e-27)
(-0.131872652 0.0633550434 -7.44993222e-27)
(-0.220743301 0.105422149 3.05661434e-28)
(-0.308484159 0.146529011 3.1796854e-34)
(-0.393703145 0.186122722 -2.44377554e-27)
(-0.47541049 0.223848059 3.68825011e-28)
(-0.552910246 0.259502707 2.81524347e-27)
(-0.625695721 0.292991881 -6.360548e-34)
(-0.693367626 0.324286359 -1.97048669e-26)
(-0.755560553 0.353404166 -1.33547595e-26)
(-0.811908919 0.380367347 -1.02859544e-27)
(-0.862018468 0.405221805 -2.19837551e-26)
(-0.9054358 0.428044211 -2.9953019e-26)
(-0.941671746 0.448807714 -3.39479662e-26)
(-0.970153829 0.467648448 -3.94567335e-26)
(-0.990253242 0.484595775 4.59618364e-26)
(-1.00124233 0.49971127 5.29932006e-26)
(-1.00229941 0.513064524 1.73814142e-27)
(-0.992520611 0.524713645 0)
(-0.970883222 0.534773569 -7.81394981e-26)
(-0.936296345 0.543344728 -8.48227118e-26)
(-0.887524241 0.550560903 4.62356129e-27)
(-0.823207489 0.556571377 1.02871103e-25)
(-0.741848427 0.561550155 1.07075503e-25)
(-0.641767775 0.56569888 1.18088017e-26)
(-0.521169495 0.569242241 0)
(-0.378314267 0.572249564 -6.88418839e-27)
(-0.210932755 0.57508991 2.09769735e-28)
(-0.0167470294 0.579299838 -3.47748746e-25)
(0.200640926 0.584995307 -3.08056952e-25)
(0.456968405 0.591216277 3.2787835e-25)
(0.749244487 0.598254148 4.31672656e-25)
(1.08037061 0.608026526 4.38284551e-26)
(1.45413283 0.62125872 -4.58701065e-25)
(1.87370965 0.63830027 1.8482973e-32)
(2.34266919 0.659878123 4.8451564e-25)
(2.86467855 0.686784716 -4.86913529e-25)
(3.44313476 0.719870116 -5.56160959e-25)
(4.08105091 0.760058693 7.2171573e-26)
(4.7808639 0.808338488 -3.87444521e-26)
(5.54449856 0.865573054 -4.30007949e-26)
(6.37291174 0.932584367 -8.17188276e-25)
(7.26583482 1.01011194 -1.90186501e-24)
(8.22149739 1.0987498 -1.05718876e-24)
(9.23635194 1.19886558 -1.0937229e-24)
(10.3048256 1.31053014 -1.40569492e-24)
(11.419109 1.43344152 0)
(12.5689873 1.5668592 2.04126662e-24)
(13.7415755 1.70946721 2.36555667e-24)
(14.9205366 1.8601627 2.61423886e-24)
(16.0882566 2.01656956 5.45996833e-24)
(17.2285837 2.17539891 5.7080668e-24)
(18.3231929 2.33066057 6.21356489e-24)
(19.3605032 2.48061492 6.65596714e-24)
(20.3123433 2.61836576 3.60481325e-24)
(21.1744511 2.75135362 -6.23596115e-25)
(21.906814 2.86482908 0)
(22.5407907 2.96224494 -4.4989362e-24)
(22.9943749 3.0176367 -5.95365549e-24)
(23.2329647 3.08500812 0)
(23.2723382 3.08534358 -3.43962185e-24)
(23.3117622 3.08990012 -2.79588598e-24)
(23.3134693 3.0583852 0)
(23.2938492 3.07697855 -3.25146952e-25)
(23.2341459 3.06664963 0)
(23.1882572 3.0689069 -1.07541869e-23)
(23.1835268 3.0460772 -1.30011194e-24)
(23.1958872 3.00310165 6.49517843e-24)
(23.1991438 2.96021873 -1.24174122e-24)
(23.1843767 2.98041776 -6.95603078e-25)
(23.2042988 2.92704374 -1.10387982e-23)
(23.2230895 2.90198118 -1.0661953e-23)
(23.2438329 2.88050553 -1.17275913e-24)
(23.3086801 2.8269812 -1.22049793e-24)
(23.430172 2.79262271 -6.03521187e-26)
(23.5025683 2.7460531 -1.15329129e-24)
(23.5097763 2.77205483 1.72386236e-23)
(23.5527269 2.82111636 2.47089473e-23)
(23.659703 2.7516528 1.06455584e-23)
(23.7646729 2.61708563 -2.70860105e-24)
(-0.0473788341 0.0206787324 0)
(-0.141756747 0.0615223295 1.07878931e-28)
(-0.235621211 0.101828062 -1.17970739e-28)
(-0.32700373 0.140839529 7.69264494e-28)
(-0.414407301 0.178058368 -1.37984935e-28)
(-0.496756661 0.213178297 -1.49934977e-28)
(-0.573273554 0.246047406 -1.00357754e-26)
(-0.64337137 0.276597466 0)
(-0.706539062 0.304837971 -4.02125753e-28)
(-0.762299697 0.330791854 -2.37886613e-26)
(-0.810158681 0.354548773 -2.96103612e-26)
(-0.849591232 0.376172784 3.52423981e-26)
(-0.880001274 0.395751256 -5.71062226e-28)
(-0.900711627 0.413374409 -9.85551974e-26)
(-0.9109575 0.429138837 -1.13460005e-25)
(-0.909874024 0.443159538 -6.55581374e-26)
(-0.896506201 0.45552482 8.47769554e-28)
(-0.869732161 0.466393909 -8.21848879e-26)
(-0.828391941 0.475894096 -9.2886938e-26)
(-0.771157968 0.484200693 -1.20753838e-27)
(-0.696572453 0.491505123 1.25955393e-27)
(-0.603014776 0.498027428 5.72030421e-27)
(-0.488738415 0.504016869 -1.30356581e-25)
(-0.351997481 0.509606865 -2.8731915e-25)
(-0.19064352 0.515149492 -1.71107264e-25)
(-0.00229650797 0.52190691 4.04828799e-27)
(0.210142206 0.530022979 -1.76381721e-25)
(0.460179442 0.539022751 -5.2351672e-27)
(0.745420666 0.549200641 5.66787796e-27)
(1.06879928 0.562175991 -2.3390277e-25)
(1.43373877 0.578645345 0)
(1.84324614 0.599031316 -4.89199256e-25)
(2.30064453 0.624087839 1.65334167e-26)
(2.80933174 0.65463014 5.47083172e-25)
(3.3724815 0.691516524 5.86653947e-25)
(3.99294635 0.735657807 6.32600321e-25)
(4.67307793 0.788012404 2.42910269e-26)
(5.41475369 0.849438714 0)
(6.21899015 0.92075301 5.81242364e-26)
(7.08570676 1.00268936 -9.42263085e-25)