/*--------------------------------*- C++ -*----------------------------------*\
  =========                 |
  \\      /  F ield         | OpenFOAM: The Open Source CFD Toolbox
   \\    /   O peration     | Website:  https://openfoam.org
    \\  /    A nd           | Version:  8
     \\/     M anipulation  |
\*---------------------------------------------------------------------------*/
FoamFile
{
    version     2.0;
    format      ascii;
    class       volScalarField;
    location    "0.031";
    object      p_rgh;
}
// * * * * * * * * * * * * * * * * * * * * * * * * * * * * * * * * * * * * * //

dimensions      [1 -1 -2 0 0 0 0];

internalField   nonuniform List<scalar> 
42400
(
101378.425
101378.415
101378.404
101378.395
101378.387
101378.38
101378.374
101378.37
101378.367
101378.365
101378.364
101378.365
101378.368
101378.371
101378.377
101378.384
101378.392
101378.402
101378.414
101378.427
101378.442
101378.458
101378.477
101378.497
101378.519
101378.543
101378.569
101378.596
101378.626
101378.658
101378.692
101378.728
101378.767
101378.809
101378.852
101378.899
101378.954
101379.02
101379.093
101379.165
101379.23
101379.291
101379.356
101379.426
101379.511
101379.611
101379.718
101379.832
101379.953
101380.078
101380.223
101380.387
101380.57
101380.754
101380.935
101381.147
101381.387
101381.65
101381.927
101382.225
101382.546
101382.892
101383.268
101383.673
101384.099
101384.538
101384.974
101385.459
101385.943
101386.051
101386.432
101387.066
101386.031
101383.284
101384.9
101390.527
101393.979
101391.159
101391.637
101390.58
101378.02
101378.012
101378.003
101377.996
101377.989
101377.984
101377.98
101377.977
101377.975
101377.975
101377.975
101377.977
101377.98
101377.984
101377.99
101377.997
101378.006
101378.016
101378.027
101378.04
101378.055
101378.071
101378.088
101378.107
101378.127
101378.15
101378.173
101378.199
101378.226
101378.254
101378.285
101378.316
101378.35
101378.39
101378.437
101378.489
101378.539
101378.58
101378.617
101378.657
101378.709
101378.772
101378.839
101378.911
101378.986
101379.065
101379.15
101379.252
101379.373
101379.487
101379.592
101379.718
101379.869
101380.039
101380.221
101380.417
101380.634
101380.873
101381.141
101381.443
101381.777
101382.14
101382.533
101382.968
101383.449
101383.989
101384.544
101385.179
101386.004
101386.619
101387.166
101388.638
101389.771
101390.347
101391.694
101393.493
101396.663
101398.715
101399.228
101401.979
101377.461
101377.455
101377.448
101377.443
101377.439
101377.435
101377.433
101377.431
101377.431
101377.431
101377.433
101377.436
101377.44
101377.445
101377.452
101377.459
101377.469
101377.479
101377.491
101377.504
101377.519
101377.535
101377.553
101377.572
101377.592
101377.614
101377.637
101377.662
101377.688
101377.716
101377.749
101377.785
101377.825
101377.861
101377.892
101377.92
101377.952
101377.991
101378.039
101378.088
101378.139
101378.193
101378.249
101378.31
101378.386
101378.478
101378.555
101378.62
101378.712
101378.824
101378.942
101379.07
101379.211
101379.369
101379.549
101379.755
101379.989
101380.251
101380.545
101380.877
101381.252
101381.677
101382.153
101382.689
101383.283
101383.976
101384.717
101385.527
101386.567
101387.68
101388.578
101389.625
101391.369
101394.124
101396.856
101400.64
101402.088
101402.188
101404.213
101405.911
101376.781
101376.776
101376.771
101376.767
101376.764
101376.762
101376.76
101376.76
101376.76
101376.762
101376.765
101376.769
101376.774
101376.781
101376.788
101376.797
101376.808
101376.82
101376.833
101376.848
101376.864
101376.882
101376.901
101376.921
101376.943
101376.966
101376.992
101377.02
101377.05
101377.081
101377.11
101377.138
101377.167
101377.2
101377.237
101377.278
101377.321
101377.365
101377.41
101377.453
101377.5
101377.562
101377.639
101377.694
101377.738
101377.809
101377.896
101377.984
101378.077
101378.182
101378.3
101378.436
101378.592
101378.77
101378.972
101379.205
101379.477
101379.792
101380.155
101380.574
101381.056
101381.606
101382.219
101382.922
101383.689
101384.588
101385.524
101386.584
101387.549
101388.869
101391.136
101394.046
101396.053
101397.494
101399.268
101401.32
101403.529
101405.191
101406.259
101407.287
101375.996
101375.992
101375.988
101375.984
101375.982
101375.98
101375.98
101375.98
101375.981
101375.984
101375.987
101375.993
101375.999
101376.007
101376.016
101376.026
101376.039
101376.052
101376.068
101376.085
101376.103
101376.122
101376.143
101376.166
101376.191
101376.219
101376.247
101376.277
101376.307
101376.34
101376.375
101376.413
101376.452
101376.492
101376.533
101376.575
101376.615
101376.66
101376.725
101376.795
101376.834
101376.87
101376.931
101377.003
101377.073
101377.148
101377.231
101377.325
101377.43
101377.549
101377.684
101377.84
101378.022
101378.238
101378.493
101378.793
101379.146
101379.558
101380.037
101380.594
101381.236
101381.976
101382.799
101383.732
101384.75
101385.927
101387.114
101388.591
101391.456
101393.65
101394.663
101395.712
101397.228
101399.133
101400.885
101402.586
101404.368
101406.448
101408.576
101410.334
101375.109
101375.104
101375.1
101375.097
101375.095
101375.093
101375.093
101375.094
101375.096
101375.099
101375.104
101375.11
101375.118
101375.127
101375.138
101375.151
101375.165
101375.18
101375.197
101375.216
101375.239
101375.265
101375.292
101375.321
101375.351
101375.384
101375.418
101375.454
101375.491
101375.53
101375.571
101375.614
101375.658
101375.699
101375.742
101375.803
101375.87
101375.909
101375.946
101376.007
101376.075
101376.139
101376.206
101376.279
101376.359
101376.446
101376.543
101376.653
101376.78
101376.927
101377.1
101377.304
101377.548
101377.838
101378.181
101378.584
101379.056
101379.608
101380.246
101380.987
101381.831
101382.804
101383.885
101385.096
101386.355
101387.972
101390.347
101391.782
101392.529
101394.014
101395.887
101397.609
101399.366
101401.102
101402.974
101404.664
101406.593
101408.811
101410.649
101412.331
101374.109
101374.105
101374.1
101374.097
101374.095
101374.094
101374.094
101374.096
101374.099
101374.104
101374.109
101374.116
101374.125
101374.136
101374.149
101374.165
101374.183
101374.204
101374.227
101374.251
101374.277
101374.306
101374.337
101374.37
101374.405
101374.443
101374.482
101374.524
101374.568
101374.613
101374.658
101374.704
101374.765
101374.832
101374.878
101374.921
101374.984
101375.051
101375.116
101375.182
101375.254
101375.33
101375.411
101375.501
101375.601
101375.714
101375.843
101375.992
101376.166
101376.371
101376.614
101376.903
101377.245
101377.645
101378.111
101378.653
101379.28
101380.001
101380.821
101381.754
101382.786
101383.962
101385.273
101386.744
101388.604
101389.965
101391.01
101392.701
101394.435
101396.06
101397.795
101399.661
101401.346
101403.087
101405.066
101406.891
101408.586
101410.537
101412.558
101413.988
101372.972
101372.968
101372.964
101372.961
101372.96
101372.96
101372.961
101372.964
101372.968
101372.975
101372.983
101372.994
101373.008
101373.022
101373.039
101373.058
101373.079
101373.103
101373.129
101373.158
101373.19
101373.224
101373.26
101373.299
101373.341
101373.385
101373.431
101373.477
101373.526
101373.588
101373.655
101373.705
101373.753
101373.818
101373.889
101373.957
101374.028
101374.102
101374.181
101374.266
101374.357
101374.457
101374.567
101374.691
101374.831
101374.993
101375.18
101375.399
101375.657
101375.96
101376.316
101376.73
101377.207
101377.756
101378.382
101379.094
101379.9
101380.803
101381.795
101382.847
101383.923
101385.174
101387.132
101389.081
101390.472
101391.89
101393.321
101394.63
101396.263
101398.374
101400.288
101402.026
101403.524
101405.285
101407.585
101409.758
101411.554
101413.129
101415.083
101417.613
101371.678
101371.674
101371.671
101371.67
101371.67
101371.672
101371.675
101371.681
101371.689
101371.698
101371.71
101371.724
101371.74
101371.759
101371.78
101371.804
101371.83
101371.859
101371.891
101371.926
101371.964
101372.005
101372.048
101372.094
101372.141
101372.192
101372.254
101372.317
101372.37
101372.426
101372.494
101372.567
101372.639
101372.714
101372.793
101372.876
101372.965
101373.06
101373.163
101373.276
101373.401
101373.54
101373.698
101373.878
101374.087
101374.329
101374.611
101374.941
101375.326
101375.772
101376.283
101376.865
101377.524
101378.266
101379.09
101379.989
101380.972
101382.005
101383.225
101384.757
101386.695
101388.719
101390.105
101390.977
101391.995
101393.66
101395.736
101397.805
101399.6
101400.92
101402.216
101404.096
101406.429
101408.552
101410.513
101412.482
101414.22
101415.892
101417.721
101419.388
101370.201
101370.2
101370.199
101370.201
101370.204
101370.209
101370.216
101370.225
101370.236
101370.25
101370.266
101370.285
101370.306
101370.33
101370.358
101370.388
101370.421
101370.457
101370.496
101370.538
101370.584
101370.63
101370.683
101370.744
101370.804
101370.859
101370.921
101370.992
101371.065
101371.14
101371.218
101371.301
101371.388
101371.48
101371.579
101371.685
101371.8
101371.926
101372.066
101372.221
101372.397
101372.598
101372.829
101373.095
101373.404
101373.763
101374.178
101374.658
101375.207
101375.833
101376.541
101377.34
101378.229
101379.218
101380.313
101381.506
101382.893
101384.586
101386.196
101387.626
101388.808
101390.01
101391.32
101392.955
101395.02
101396.679
101397.897
101399.419
101401.396
101403.062
101404.789
101406.66
101408.328
101410.034
101411.782
101413.732
101415.675
101417.122
101418.967
101420.772
101368.513
101368.515
101368.518
101368.523
101368.531
101368.54
101368.552
101368.566
101368.583
101368.603
101368.625
101368.651
101368.679
101368.711
101368.746
101368.784
101368.826
101368.871
101368.918
101368.97
101369.03
101369.089
101369.147
101369.212
101369.284
101369.358
101369.435
101369.516
101369.601
101369.691
101369.787
101369.888
101369.996
101370.113
101370.24
101370.378
101370.532
101370.703
101370.897
101371.117
101371.368
101371.658
101371.991
101372.375
101372.818
101373.326
101373.904
101374.558
101375.292
101376.109
101377.007
101377.994
101379.052
101380.147
101381.272
101382.681
101384.513
101386.173
101387.449
101388.614
101389.974
101391.561
101393.265
101395.125
101396.847
101398.372
101400.219
101402.021
101403.326
101404.929
101406.754
101408.341
101410.231
101412.158
101413.568
101415.257
101417.742
101419.938
101421.856
101423.489
101366.582
101366.589
101366.597
101366.608
101366.621
101366.637
101366.655
101366.676
101366.701
101366.728
101366.759
101366.793
101366.831
101366.872
101366.917
101366.965
101367.017
101367.077
101367.136
101367.196
101367.264
101367.337
101367.412
101367.491
101367.575
101367.662
101367.755
101367.853
101367.956
101368.067
101368.185
101368.312
101368.45
101368.601
101368.769
101368.956
101369.166
101369.405
101369.678
101369.989
101370.347
101370.757
101371.227
101371.764
101372.374
101373.061
101373.83
101374.685
101375.628
101376.661
101377.777
101378.984
101380.308
101381.627
101383.217
101384.745
101385.722
101386.589
101388.202
101390.32
101392.193
101393.932
101395.502
101396.977
101398.481
101400.248
101402.185
101404.109
101406.052
101407.559
101408.974
101410.531
101412.234
101414.341
101416.387
101418.463
101420.495
101422.055
101424.083
101426.42
101364.369
101364.382
101364.397
101364.415
101364.436
101364.46
101364.487
101364.517
101364.551
101364.588
101364.629
101364.674
101364.722
101364.775
101364.834
101364.895
101364.958
101365.027
101365.101
101365.179
101365.26
101365.346
101365.437
101365.532
101365.633
101365.739
101365.852
101365.972
101366.101
101366.239
101366.39
101366.555
101366.737
101366.94
101367.168
101367.426
101367.719
101368.052
101368.433
101368.868
101369.363
101369.925
101370.559
101371.272
101372.067
101372.947
101373.913
101374.969
101376.113
101377.342
101378.65
101380.015
101381.447
101382.936
101384.319
101385.719
101387.489
101389.512
101390.994
101392.117
101393.64
101395.671
101397.291
101398.505
101400.05
101402.162
101403.829
101405.468
101407.006
101408.525
101410.828
101413.227
101415.364
101417.258
101418.958
101420.46
101422.478
101424.904
101426.898
101428.628
101361.835
101361.855
101361.88
101361.907
101361.937
101361.971
101362.009
101362.05
101362.094
101362.144
101362.198
101362.256
101362.317
101362.382
101362.453
101362.529
101362.609
101362.693
101362.782
101362.875
101362.974
101363.078
101363.188
101363.304
101363.427
101363.558
101363.698
101363.85
101364.015
101364.195
101364.394
101364.616
101364.864
101365.143
101365.459
101365.818
101366.225
101366.686
101367.209
101367.797
101368.458
101369.194
101370.01
101370.906
101371.883
101372.935
101374.059
101375.261
101376.557
101377.926
101379.333
101380.783
101382.232
101383.69
101385.298
101386.797
101388.036
101389.717
101391.899
101393.723
101395.165
101396.531
101398.201
101400.068
101402.235
101404.304
101406.445
101408.392
101409.913
101411.54
101413.317
101415.081
101416.755
101418.346
101420.419
101422.808
101424.42
101426.121
101428.127
101430.191
101358.938
101358.967
101359.003
101359.042
101359.084
101359.129
101359.179
101359.233
101359.292
101359.354
101359.421
101359.493
101359.57
101359.652
101359.738
101359.829
101359.926
101360.027
101360.134
101360.247
101360.366
101360.492
101360.626
101360.769
101360.922
101361.087
101361.267
101361.464
101361.681
101361.923
101362.193
101362.496
101362.838
101363.225
101363.662
101364.156
101364.712
101365.335
101366.03
101366.8
101367.647
101368.57
101369.567
101370.63
101371.753
101372.907
101374.068
101375.229
101376.697
101378.595
101380.393
101382.005
101383.725
101385.593
101387.42
101389.255
101391.003
101392.343
101393.57
101395.335
101397.46
101399.318
101401.112
101402.993
101404.274
101405.325
101406.606
101408.544
101411.138
101413.007
101414.384
101416.351
101418.824
101420.917
101423.154
101425.632
101427.786
101429.531
101431.398
101433.837
101355.645
101355.686
101355.736
101355.787
101355.842
101355.902
101355.966
101356.034
101356.107
101356.185
101356.267
101356.355
101356.448
101356.546
101356.649
101356.758
101356.873
101356.994
101357.122
101357.258
101357.402
101357.556
101357.722
101357.902
101358.097
101358.311
101358.548
101358.811
101359.105
101359.436
101359.808
101360.229
101360.704
101361.239
101361.842
101362.517
101363.27
101364.105
101365.026
101366.035
101367.133
101368.322
101369.6
101370.97
101372.441
101374.009
101375.814
101377.773
101379.636
101381.239
101382.8
101384.344
101385.849
101387.361
101388.88
101390.419
101391.922
101393.428
101395.122
101396.912
101398.554
101400.072
101401.698
101403.524
101405.56
101408.091
101410.619
101412.522
101414.015
101415.817
101418.141
101420.568
101422.929
101424.883
101426.607
101428.44
101430.418
101432.527
101435.11
101438.235
101351.949
101352.003
101352.068
101352.134
101352.204
101352.279
101352.358
101352.442
101352.531
101352.624
101352.723
101352.827
101352.937
101353.053
101353.175
101353.304
101353.44
101353.584
101353.738
101353.902
101354.079
101354.27
101354.479
101354.709
101354.962
101355.244
101355.56
101355.914
101356.312
101356.762
101357.268
101357.838
101358.478
101359.193
101359.989
101360.87
101361.839
101362.896
101364.043
101365.277
101366.594
101367.989
101369.455
101370.983
101372.548
101374.183
101375.738
101377.213
101378.595
101380.268
101382.496
101384.618
101386.316
101387.811
101389.549
101391.503
101393.501
101395.382
101397.095
101398.723
101400.414
101402.142
101404.032
101406.183
101408.559
101410.449
101412.112
101413.929
101415.841
101418.077
101420.472
101422.35
101424.311
101426.775
101428.557
101430.375
101432.423
101434.34
101436.676
101438.931
101347.862
101347.931
101348.013
101348.095
101348.181
101348.271
101348.366
101348.466
101348.571
101348.681
101348.797
101348.918
101349.046
101349.18
101349.323
101349.473
101349.634
101349.805
101349.99
101350.19
101350.408
101350.648
101350.912
101351.206
101351.534
101351.901
101352.314
101352.778
101353.299
101353.885
101354.54
101355.27
101356.079
101356.972
101357.951
101359.017
101360.169
101361.405
101362.723
101364.115
101365.578
101367.113
101368.715
101370.376
101372.103
101373.867
101375.784
101377.835
101379.75
101381.327
101382.715
101384.239
101386.18
101388.358
101390.373
101392.352
101394.32
101396.234
101398.166
101400.068
101402.006
101404.057
101405.768
101407.368
101409.404
101411.707
101414.108
101416.407
101418.488
101420.225
101422.512
101425.126
101426.857
101428.362
101430.368
101432.878
101435.238
101437.298
101439.472
101441.151
101343.471
101343.557
101343.656
101343.755
101343.858
101343.964
101344.075
101344.192
101344.313
101344.44
101344.574
101344.714
101344.862
101345.019
101345.186
101345.365
101345.558
101345.767
101345.995
101346.245
101346.522
101346.83
101347.173
101347.558
101347.989
101348.474
101349.018
101349.627
101350.307
101351.064
101351.903
101352.826
101353.837
101354.938
101356.13
101357.413
101358.788
101360.251
101361.808
101363.424
101365.064
101366.739
101368.412
101370.058
101372.027
101374.182
101376.026
101377.664
101379.767
101382.554
101385.136
101386.702
101388.109
101389.989
101391.97
101394
101396.067
101398.054
101399.929
101401.804
101403.714
101405.592
101407.732
101409.978
101411.911
101414.026
101416.715
101419.335
101421.491
101423.562
101425.978
101428.113
101429.998
101432.066
101434.302
101436.379
101438.252
101440.267
101442.062
101443.533
101338.842
101338.944
101339.061
101339.178
101339.297
101339.422
101339.552
101339.687
101339.829
101339.978
101340.136
101340.303
101340.481
101340.673
101340.879
101341.104
101341.35
101341.62
101341.919
101342.252
101342.623
101343.039
101343.506
101344.029
101344.614
101345.269
101345.997
101346.803
101347.692
101348.664
101349.719
101350.856
101352.068
101353.348
101354.681
101356.04
101357.421
101358.962
101360.921
101363.271
101365.689
101368.023
101370.34
101372.65
101374.516
101376.312
101378.653
101381.375
101383.446
101384.522
101385.429
101387.065
101389.727
101392.027
101394.088
101396.209
101398.373
101400.562
101402.527
101404.406
101406.459
101408.484
101410.594
101413.152
101415.734
101418.219
101420.661
101422.602
101424.291
101426.038
101427.953
101430.021
101432.058
101434.121
101436.222
101438.206
101440.404
101443.045
101444.819
101446.075
101373.231
101373.234
101373.236
101373.236
101373.235
101373.231
101373.226
101373.219
101373.209
101373.198
101373.185
101373.169
101373.151
101373.131
101373.109
101373.084
101373.056
101373.025
101372.992
101372.956
101372.916
101372.874
101372.828
101372.778
101372.725
101372.668
101372.607
101372.542
101372.472
101372.398
101372.319
101372.235
101372.146
101372.051
101371.95
101371.844
101371.731
101371.612
101371.486
101371.352
101371.209
101371.06
101370.903
101370.737
101370.562
101370.376
101370.181
101369.974
101369.754
101369.521
101369.272
101369.006
101368.721
101368.414
101368.083
101367.724
101367.332
101366.9
101366.421
101365.886
101365.284
101364.604
101363.833
101362.96
101361.978
101360.883
101359.677
101358.36
101356.924
101355.351
101353.615
101351.677
101349.515
101347.13
101344.452
101341.464
101338.317
101334.712
101330.994
101327.334
101371.935
101371.939
101371.942
101371.943
101371.942
101371.938
101371.933
101371.926
101371.916
101371.904
101371.889
101371.873
101371.853
101371.832
101371.807
101371.78
101371.749
101371.716
101371.68
101371.64
101371.597
101371.55
101371.499
101371.445
101371.386
101371.324
101371.256
101371.184
101371.108
101371.026
101370.938
101370.845
101370.747
101370.642
101370.53
101370.412
101370.287
101370.154
101370.014
101369.866
101369.71
101369.543
101369.368
101369.183
101368.988
101368.782
101368.565
101368.334
101368.089
101367.829
101367.551
101367.254
101366.936
101366.593
101366.222
101365.818
101365.376
101364.888
101364.347
101363.742
101363.062
101362.295
101361.426
101360.443
101359.333
101358.088
101356.704
101355.18
101353.508
101351.669
101349.593
101347.185
101344.361
101341.705
101339.222
101336.46
101333.277
101329.485
101325.754
101321.28
101370.929
101370.934
101370.938
101370.94
101370.939
101370.936
101370.931
101370.924
101370.914
101370.902
101370.887
101370.87
101370.85
101370.828
101370.802
101370.774
101370.742
101370.707
101370.669
101370.627
101370.582
101370.533
101370.48
101370.422
101370.361
101370.294
101370.223
101370.147
101370.066
101369.979
101369.886
101369.787
101369.681
101369.569
101369.45
101369.323
101369.189
101369.046
101368.894
101368.734
101368.564
101368.384
101368.194
101367.992
101367.778
101367.552
101367.311
101367.055
101366.783
101366.491
101366.18
101365.846
101365.487
101365.1
101364.68
101364.223
101363.723
101363.173
101362.565
101361.889
101361.136
101360.293
101359.353
101358.305
101357.136
101355.834
101354.386
101352.783
101350.997
101349.173
101347.334
101345.436
101343.198
101339.862
101335.263
101331.182
101327.725
101323.43
101317.667
101311.794
101370.233
101370.238
101370.243
101370.246
101370.246
101370.244
101370.24
101370.233
101370.224
101370.213
101370.199
101370.183
101370.163
101370.141
101370.117
101370.089
101370.058
101370.023
101369.986
101369.945
101369.9
101369.851
101369.798
101369.741
101369.68
101369.614
101369.544
101369.468
101369.387
101369.3
101369.208
101369.109
101369.004
101368.893
101368.774
101368.648
101368.515
101368.373
101368.223
101368.064
101367.896
101367.718
101367.53
101367.33
101367.119
101366.892
101366.653
101366.401
101366.131
101365.842
101365.532
101365.199
101364.839
101364.448
101364.022
101363.554
101363.037
101362.461
101361.819
101361.098
101360.289
101359.383
101358.366
101357.22
101355.939
101354.513
101352.956
101351.261
101349.653
101347.994
101345.688
101342.558
101339.446
101336.588
101333.845
101330.572
101325.786
101320.382
101314.57
101308.409
101369.84
101369.846
101369.852
101369.855
101369.857
101369.856
101369.853
101369.847
101369.84
101369.829
101369.817
101369.802
101369.784
101369.763
101369.74
101369.714
101369.684
101369.652
101369.616
101369.576
101369.533
101369.487
101369.436
101369.381
101369.322
101369.258
101369.19
101369.116
101369.037
101368.953
101368.863
101368.767
101368.665
101368.556
101368.441
101368.318
101368.187
101368.048
101367.901
101367.746
101367.581
101367.406
101367.222
101367.027
101366.821
101366.602
101366.37
101366.126
101365.861
101365.578
101365.28
101364.964
101364.624
101364.255
101363.853
101363.413
101362.926
101362.379
101361.756
101361.041
101360.211
101359.25
101358.271
101357.314
101356.31
101355.106
101353.517
101351.641
101349.344
101347.155
101345.114
101342.553
101339.131
101334.811
101329.671
101324.623
101320.096
101315.389
101310.351
101304.785
101369.749
101369.756
101369.763
101369.768
101369.77
101369.771
101369.769
101369.765
101369.76
101369.752
101369.741
101369.728
101369.713
101369.695
101369.675
101369.652
101369.626
101369.597
101369.565
101369.529
101369.491
101369.449
101369.403
101369.354
101369.3
101369.243
101369.181
101369.114
101369.043
101368.967
101368.885
101368.798
101368.705
101368.606
101368.501
101368.389
101368.27
101368.143
101368.009
101367.866
101367.715
101367.554
101367.384
101367.203
101367.011
101366.807
101366.59
101366.358
101366.106
101365.832
101365.54
101365.227
101364.889
101364.522
101364.126
101363.705
101363.26
101362.788
101362.266
101361.662
101360.986
101360.226
101359.249
101357.982
101356.475
101354.894
101353.328
101351.798
101350.289
101348.325
101346.175
101343.772
101340.659
101337.176
101333.248
101328.462
101322.881
101316.841
101309.756
101303.774
101369.929
101369.937
101369.944
101369.95
101369.953
101369.955
101369.955
101369.953
101369.95
101369.944
101369.936
101369.926
101369.914
101369.899
101369.882
101369.863
101369.841
101369.816
101369.789
101369.759
101369.726
101369.69
101369.65
101369.607
101369.561
101369.511
101369.457
101369.399
101369.337
101369.271
101369.2
101369.124
101369.043
101368.957
101368.866
101368.769
101368.666
101368.557
101368.442
101368.32
101368.192
101368.057
101367.914
101367.764
101367.605
101367.439
101367.264
101367.079
101366.883
101366.675
101366.454
101366.216
101365.958
101365.675
101365.359
101364.997
101364.579
101364.108
101363.596
101363.038
101362.407
101361.689
101360.86
101359.888
101358.769
101357.5
101356.104
101354.416
101352.366
101350.085
101347.441
101344.778
101342.084
101338.972
101335.293
101331.069
101326.246
101320.971
101315.526
101308.98
101370.357
101370.365
101370.373
101370.379
101370.384
101370.387
101370.389
101370.389
101370.388
101370.385
101370.38
101370.373
101370.364
101370.353
101370.341
101370.326
101370.309
101370.29
101370.269
101370.245
101370.218
101370.19
101370.158
101370.124
101370.086
101370.046
101370.002
101369.956
101369.905
101369.851
101369.794
101369.732
101369.667
101369.597
101369.523
101369.445
101369.362
101369.274
101369.181
101369.083
101368.98
101368.871
101368.756
101368.636
101368.51
101368.377
101368.237
101368.091
101367.936
101367.772
101367.598
101367.412
101367.213
101366.995
101366.756
101366.488
101366.183
101365.835
101365.434
101364.978
101364.455
101363.85
101363.146
101362.327
101361.377
101360.283
101359.027
101357.568
101355.852
101353.881
101351.562
101348.987
101346.225
101343.08
101339.463
101335.336
101330.694
101325.544
101319.679
101313.257
101370.986
101370.994
101371.003
101371.009
101371.015
101371.02
101371.023
101371.025
101371.025
101371.024
101371.022
101371.018
101371.013
101371.006
101370.998
101370.988
101370.976
101370.962
101370.947
101370.929
101370.91
101370.889
101370.865
101370.84
101370.812
101370.781
101370.748
101370.713
101370.675
101370.634
101370.591
101370.544
101370.495
101370.443
101370.387
101370.329
101370.267
101370.202
101370.134
101370.062
101369.987
101369.909
101369.827
101369.742
101369.653
101369.561
101369.464
101369.364
101369.26
101369.15
101369.033
101368.908
101368.773
101368.626
101368.463
101368.281
101368.074
101367.836
101367.559
101367.235
101366.852
101366.396
101365.852
101365.202
101364.427
101363.51
101362.429
101361.162
101359.689
101357.986
101356.028
101353.769
101351.2
101348.278
101344.941
101341.131
101336.806
101331.784
101326.252
101320.836
101371.78
101371.788
101371.796
101371.803
101371.809
101371.814
101371.818
101371.822
101371.824
101371.826
101371.826
101371.825
101371.823
101371.82
101371.815
101371.81
101371.803
101371.795
101371.786
101371.775
101371.763
101371.749
101371.734
101371.717
101371.699
101371.679
101371.657
101371.634
101371.609
101371.583
101371.554
101371.524
101371.492
101371.458
101371.422
101371.385
101371.346
101371.306
101371.264
101371.221
101371.176
101371.131
101371.085
101371.037
101370.99
101370.942
101370.893
101370.845
101370.796
101370.747
101370.696
101370.644
101370.587
101370.525
101370.456
101370.376
101370.281
101370.166
101370.025
101369.849
101369.628
101369.35
101369.001
101368.566
101368.025
101367.36
101366.548
101365.565
101364.385
101362.976
101361.313
101359.371
101357.113
101354.504
101351.5
101348.015
101343.928
101339.269
101334.185
101329.189
101372.688
101372.695
101372.702
101372.709
101372.715
101372.72
101372.725
101372.73
101372.733
101372.736
101372.738
101372.74
101372.741
101372.741
101372.74
101372.739
101372.736
101372.733
101372.729
101372.725
101372.719
101372.713
101372.705
101372.697
101372.688
101372.678
101372.667
101372.656
101372.643
101372.63
101372.616
101372.602
101372.586
101372.571
101372.555
101372.539
101372.523
101372.507
101372.491
101372.476
101372.463
101372.45
101372.44
101372.431
101372.425
101372.422
101372.423
101372.427
101372.435
101372.449
101372.467
101372.489
101372.515
101372.543
101372.573
101372.602
101372.627
101372.644
101372.649
101372.634
101372.591
101372.51
101372.378
101372.182
101371.905
101371.528
101371.03
101370.39
101369.578
101368.565
101367.328
101365.842
101364.074
101361.989
101359.521
101356.653
101353.213
101349.308
101344.655
101339.84
101373.669
101373.674
101373.68
101373.685
101373.691
101373.696
101373.7
101373.705
101373.709
101373.713
101373.717
101373.72
101373.723
101373.726
101373.728
101373.73
101373.731
101373.733
101373.733
101373.734
101373.734
101373.734
101373.734
101373.734
101373.733
101373.733
101373.732
101373.731
101373.731
101373.73
101373.73
101373.731
101373.732
101373.733
101373.736
101373.74
101373.745
101373.753
101373.762
101373.775
101373.79
101373.809
101373.833
101373.862
101373.896
101373.937
101373.984
101374.04
101374.104
101374.177
101374.26
101374.354
101374.458
101374.573
101374.698
101374.831
101374.971
101375.116
101375.261
101375.402
101375.531
101375.641
101375.721
101375.758
101375.738
101375.643
101375.455
101375.151
101374.706
101374.093
101373.296
101372.291
101371.043
101369.517
101367.647
101365.412
101362.689
101359.391
101355.486
101350.72
101374.668
101374.672
101374.675
101374.679
101374.683
101374.687
101374.691
101374.695
101374.699
101374.703
101374.707
101374.711
101374.715
101374.72
101374.724
101374.729
101374.733
101374.738
101374.743
101374.749
101374.754
101374.76
101374.766
101374.773
101374.78
101374.788
101374.796
101374.806
101374.816
101374.827
101374.839
101374.853
101374.867
101374.884
101374.903
101374.926
101374.953
101374.982
101375.016
101375.054
101375.097
101375.146
101375.201
101375.263
101375.333
101375.412
101375.502
101375.603
101375.716
101375.844
101375.986
101376.143
101376.317
101376.509
101376.717
101376.943
101377.185
101377.441
101377.71
101377.987
101378.267
101378.545
101378.81
101379.052
101379.26
101379.416
101379.503
101379.502
101379.387
101379.132
101378.722
101378.14
101377.356
101376.336
101375.036
101373.409
101371.39
101368.893
101365.792
101362.244
101375.651
101375.651
101375.652
101375.653
101375.655
101375.657
101375.659
101375.662
101375.666
101375.669
101375.673
101375.677
101375.682
101375.688
101375.693
101375.7
101375.707
101375.714
101375.722
101375.731
101375.741
101375.751
101375.763
101375.776
101375.789
101375.804
101375.821
101375.839
101375.859
101375.881
101375.905
101375.932
101375.962
101375.995
101376.029
101376.067
101376.108
101376.154
101376.204
101376.26
101376.321
101376.389
101376.463
101376.552
101376.658
101376.775
101376.903
101377.045
101377.201
101377.373
101377.563