/*--------------------------------*- C++ -*----------------------------------*\
  =========                 |
  \\      /  F ield         | OpenFOAM: The Open Source CFD Toolbox
   \\    /   O peration     | Website:  https://openfoam.org
    \\  /    A nd           | Version:  8
     \\/     M anipulation  |
\*---------------------------------------------------------------------------*/
FoamFile
{
    version     2.0;
    format      ascii;
    class       surfaceScalarField;
    location    "0.031";
    object      phi;
}
// * * * * * * * * * * * * * * * * * * * * * * * * * * * * * * * * * * * * * //

dimensions      [1 0 -1 0 0 0 0];

internalField   nonuniform List<scalar> 
84340
(
-5.84576451e-08
3.04632288e-07
-2.46198174e-07
-2.31058103e-07
9.26989744e-07
-7.54427384e-07
-5.19860117e-07
1.58459198e-06
-1.295837e-06
-9.28535262e-07
2.28041677e-06
-1.87179628e-06
-1.4620955e-06
3.0168002e-06
-2.48330122e-06
-2.12655173e-06
3.7955377e-06
-3.13114869e-06
-2.92856628e-06
4.61790465e-06
-3.8159629e-06
-3.87511837e-06
5.48478405e-06
-4.53831018e-06
-4.97320814e-06
6.39676226e-06
-5.2987561e-06
-6.22960688e-06
7.3541789e-06
-6.09786915e-06
-7.65065426e-06
8.35715518e-06
-6.93620223e-06
-9.24209646e-06
9.40560709e-06
-7.81426477e-06
-1.10089584e-05
1.04992545e-05
-8.73249801e-06
-1.29554388e-05
1.16376295e-05
-9.69125989e-06
-1.50848112e-05
1.28200779e-05
-1.06908219e-05
-1.73993373e-05
1.40457731e-05
-1.17313687e-05
-1.99001601e-05
1.53137149e-05
-1.28130192e-05
-2.25871944e-05
1.66227312e-05
-1.39358291e-05
-2.54589902e-05
1.79714754e-05
-1.5099817e-05
-2.85125739e-05
1.9358411e-05
-1.63049695e-05
-3.17432647e-05
2.0781792e-05
-1.75512486e-05
-3.51444581e-05
2.22396336e-05
-1.88385924e-05
-3.87073762e-05
2.37296663e-05
-2.01669058e-05
-4.24207909e-05
2.52492895e-05
-2.15360375e-05
-4.62707001e-05
2.67954946e-05
-2.2945754e-05
-5.02399686e-05
2.83647831e-05
-2.43956895e-05
-5.4307926e-05
2.99530444e-05
-2.58852696e-05
-5.84498841e-05
3.15553997e-05
-2.74136323e-05
-6.26365815e-05
3.31659917e-05
-2.89794958e-05
-6.68336007e-05
3.47778129e-05
-3.05810072e-05
-7.1001022e-05
3.63827271e-05
-3.2215535e-05
-7.50931956e-05
3.79712901e-05
-3.38793634e-05
-7.90583569e-05
3.95322509e-05
-3.55673598e-05
-8.28374592e-05
4.1051692e-05
-3.72728865e-05
-8.63584532e-05
4.25086271e-05
-3.89879657e-05
-8.95423592e-05
4.38866038e-05
-4.07030628e-05
-9.230663e-05
4.51681255e-05
-4.24042605e-05
-9.45772668e-05
4.63355165e-05
-4.40653383e-05
-9.62368828e-05
4.73294972e-05
-4.56704032e-05
-9.71231395e-05
4.80889185e-05
-4.72032464e-05
-9.70447395e-05
4.85639225e-05
-4.86429874e-05
-9.57889461e-05
4.86741263e-05
-4.99306554e-05
-9.31210902e-05
4.83438274e-05
-5.10125074e-05
-8.87812059e-05
4.74714728e-05
-5.1812264e-05
-8.24674993e-05
4.59425114e-05
-5.22572255e-05
-7.3861961e-05
4.36413441e-05
-5.22479599e-05
-6.26116107e-05
4.04424889e-05
-5.16940047e-05
-4.82685033e-05
3.61278038e-05
-5.04721202e-05
-3.03849195e-05
3.0552914e-05
-4.84377674e-05
-8.60801423e-06
2.36440394e-05
-4.54222088e-05
1.78590437e-05
1.47420573e-05
-4.12104018e-05
4.99023936e-05
3.6546072e-06
-3.5699153e-05
8.84487825e-05
-1.00306502e-05
-2.85168697e-05
0.000134584931
-2.64673267e-05
-1.96697847e-05
0.000189557977
-4.66955757e-05
-8.27832092e-06
0.000254717474
-7.10557874e-05
5.89572643e-06
0.000331619299
-0.000100101729
2.31995404e-05
0.000422064822
-0.00013454631
4.41008385e-05
0.000527502625
-0.000175228713
6.97912371e-05
0.00064990905
-0.000222928956
0.000100523378
0.000791311932
-0.000278469014
0.000137067272
0.000953702217
-0.000342689854
0.000180301269
0.00113909668
-0.000416587795
0.000231195229
0.0013494328
-0.00050100702
0.000290673244
0.00158665414
-0.000596973353
0.000359753952
0.0018522405
-0.000704945734
0.000439360775
0.00214546493
-0.000823455108
0.000530230512
0.00247081685
-0.00096266055
0.00063730648
0.00283731159
-0.00111494649
0.00074844626
0.00321406997
-0.00123858428
0.000861816499
0.00358891634
-0.00142909243
0.00105423131
0.00408093361
-0.00169764461
0.00120560641
0.00464743268
-0.00178479502
0.00121826836
0.00501176914
-0.00187256102
0.00150819006
0.00535266187
-0.00225040526
0.00190946109
0.0059150926
-0.0025475442
0.00198505821
0.00661961711
-0.00262076863
0.00191620379
0.00704900627
-0.00268161647
0.00225218052
0.00721150176
-0.00293951106
0.00277695426
-0.00315337796
0.00299273575
0.00737210382
-4.67861463e-08
3.51364014e-07
-1.84551292e-07
1.06467607e-06
-4.14606084e-07
1.81455503e-06
-7.39664145e-07
2.60537154e-06
-1.16348327e-06
3.44050555e-06
-1.69062116e-06
4.32255196e-06
-2.32621888e-06
5.25336907e-06
-3.07563658e-06
6.23405881e-06
-3.94417441e-06
7.26514727e-06
-4.93682984e-06
8.34667136e-06
-6.05809053e-06
9.47824236e-06
-7.31176024e-06
1.06590924e-05
-8.7008094e-06
1.1888108e-05
-1.02272399e-05
1.31638526e-05
-1.18919657e-05
1.44845842e-05
-1.36946762e-05
1.58482517e-05
-1.56337029e-05
1.72524968e-05
-1.77058617e-05
1.86946322e-05
-1.99062699e-05
2.01716119e-05
-2.22281372e-05
2.16799928e-05
-2.46625251e-05
2.32158799e-05
-2.71980584e-05
2.47748521e-05
-2.98206065e-05
2.63518839e-05
-3.25128988e-05
2.7941235e-05
-3.52540834e-05
2.95363149e-05
-3.80192296e-05
3.1129547e-05
-4.07787963e-05
3.27122089e-05
-4.34981082e-05
3.42742885e-05
-4.61367536e-05
3.58041902e-05
-4.8647326e-05
3.72879132e-05
-5.09763282e-05
3.87112295e-05
-5.30624837e-05
4.00569167e-05
-5.48379192e-05
4.13071218e-05
-5.62312718e-05
4.24444422e-05
-5.71614598e-05
4.34381689e-05
-5.75144829e-05
4.42389383e-05
-5.71440914e-05
4.47969897e-05
-5.58719844e-05
4.5062608e-05
-5.35087425e-05
4.49653883e-05
-4.98532378e-05
4.44324793e-05
-4.46657728e-05
4.33754426e-05
-3.77001229e-05
4.17073937e-05
-2.8663036e-05
3.93055753e-05
-1.72186816e-05
3.60258875e-05
-3.03642941e-06
3.17589471e-05
1.4320355e-05
2.62831939e-05
3.51367942e-05
1.96246079e-05
6.01843505e-05
1.10787895e-05
9.02276263e-05
5.08135834e-07
0.00012610913
-1.22389795e-05
0.000168798041
-2.79484333e-05
0.000219403793
-4.69527022e-05
0.000279061191
-6.96896632e-05
0.000349322541
-9.67302478e-05
0.000431394879
-0.000128769571
0.000526847396
-0.000166509918
0.000637423376
-0.000210679471
0.000764918856
-0.000262043525
0.000911165143
-0.00032147695
0.00107793115
-0.000389696882
0.00126699396
-0.000467534061
0.00147998133
-0.000555679414
0.0017181919
-0.000654800866
0.00198273219
-0.000765549774
0.00227431056
-0.000888554832
0.0025941821
-0.00102482093
0.00293919339
-0.00116847147
0.00330289612
-0.00132636982
0.0037014223
-0.00151348182
0.00413806438
-0.00167523837
0.00452636183
-0.00181740604
0.00489881292
-0.00207011619
0.00542672182
-0.0023127295
0.00593862173
-0.00238449084
0.00622704857
-0.0025388666
0.00645996684
-0.00278050374
0.00679401574
-0.0029548556
0.00719585584
-0.00308349642
0.00742394803
-0.00316764288
-0.00327702185
0.00754756794
-3.56298025e-08
3.86917863e-07
-1.40079622e-07
1.16901429e-06
-3.1384221e-07
1.98818667e-06
-5.58491207e-07
2.84987248e-06
-8.76459962e-07
3.75831088e-06
-1.27079238e-06
4.71670669e-06
-1.74472633e-06
5.72711164e-06
-2.30160491e-06
6.79073252e-06
-2.94458649e-06
7.90791044e-06
-3.67638709e-06
9.07823987e-06
-4.49906759e-06
1.03006769e-05
-5.41384726e-06
1.1573612e-05
-6.42093792e-06
1.28949242e-05
-7.51938744e-06
1.42620134e-05
-8.70692491e-06
1.56718183e-05
-9.97980242e-06
1.71208113e-05
-1.13326129e-05
1.86049748e-05
-1.27580922e-05
2.01197646e-05
-1.42468846e-05
2.1660043e-05
-1.57872726e-05
2.32200052e-05
-1.73648518e-05
2.47930693e-05
-1.89621258e-05
2.63717223e-05
-2.05580333e-05
2.79473734e-05
-2.21274364e-05
2.95102064e-05
-2.36405751e-05
3.10490077e-05
-2.50629757e-05
3.25514873e-05
-2.6355269e-05
3.40040258e-05
-2.74728143e-05
3.53913427e-05
-2.83658704e-05
3.66967406e-05
-2.8979994e-05
3.79015139e-05
-2.92501876e-05
3.8980878e-05
-2.90913271e-05
3.98974893e-05
-2.8401129e-05
4.06163316e-05
-2.70503545e-05
4.1093048e-05
-2.48905394e-05
4.12776994e-05
-2.17617379e-05
4.11094477e-05
-1.74846725e-05
4.05191885e-05
-1.18479311e-05
3.94250832e-05
-4.63107309e-06
3.77476905e-05
4.42399476e-06
3.53765171e-05
1.56106437e-05
3.21878297e-05
2.92421703e-05
2.80748392e-05
4.57020781e-05
2.28445589e-05
6.5201144e-05
1.65256355e-05
8.85053297e-05
8.45349051e-06
0.000116275937
-1.48874556e-06
0.00014927144
-1.3372355e-05
0.000188358007
-2.80093476e-05
0.00023451727
-4.56528449e-05
0.000288955471
-6.66790099e-05
0.000352662859
-9.16578402e-05
0.000426884558
-0.000121176567
0.000513057725
-0.00015586526
0.000612744932
-0.000196420102
0.000727554637
-0.000243582291
0.00085912504
-0.000298083596
0.00100913009
-0.000360688246
0.00117922659
-0.000432144092
0.00137097632
-0.000513231329
0.00158588674
-0.000604612146
0.00182509949
-0.000706751782
0.00208923443
-0.000819819101
0.00237826417
-0.000943835465
0.00269172345
-0.00107901386
0.00302769834
-0.00122453494
0.0033853818
-0.00138250996
0.00376327436
-0.00154637058
0.00414853584
-0.00171163895
0.00453015014
-0.00189510574
0.0049476272
-0.00209272731
0.00537020981
-0.0022400037
0.00569697437
-0.00239689876
0.00599113122
-0.00260690715
0.00636195382
-0.00275533619
0.00666091946
-0.00283785918
0.00681837205
-0.00293798962
0.00693834987
-0.00307486704
0.00705632916
-0.00320150733
0.00720789206
-0.00331923201
-0.00341739097
0.00734824468
-2.81379373e-08
4.1497447e-07
-1.09954724e-07
1.25071431e-06
-2.45072691e-07
2.12316953e-06
-4.33857165e-07
3.03850539e-06
-6.77296064e-07
4.0015831e-06
-9.76738612e-07
5.01596814e-06
-1.33357123e-06
6.08374891e-06
-1.74887171e-06
7.20582324e-06
-2.22314852e-06
8.38196258e-06
-2.75640268e-06
9.61125389e-06
-3.3477355e-06
1.08917533e-05
-3.99516652e-06
1.22207697e-05
-4.6954464e-06
1.35949131e-05
-5.44387811e-06
1.50101357e-05
-6.23412989e-06
1.64617414e-05
-7.05802698e-06
1.79443599e-05
-7.90531847e-06
1.94518972e-05
-8.76337346e-06
2.09774293e-05
-9.61683614e-06
2.25130935e-05
-1.04472566e-05
2.40499913e-05
-1.1232756e-05
2.55781111e-05
-1.19482653e-05
2.70867505e-05
-1.25650308e-05
2.85636332e-05
-1.30504075e-05
2.99950537e-05
-1.33675442e-05
3.13655904e-05
-1.34713321e-05
3.26546963e-05
-1.33075664e-05
3.38396548e-05
-1.28126427e-05
3.4895786e-05
-1.19112997e-05
3.57947359e-05
-1.05121205e-05
3.65016432e-05
-8.5080062e-06
3.69760389e-05
-5.78073373e-06
3.71694598e-05
-2.19152064e-06
3.70263239e-05
2.41967213e-06
3.64810205e-05
8.23367502e-06
3.54628172e-05
1.54479684e-05
3.38942315e-05
2.42899141e-05
3.16762698e-05
3.50321113e-05
2.86818636e-05
4.79865063e-05
2.47922173e-05
6.3383081e-05
1.99788084e-05
8.15337178e-05
1.40359837e-05
0.000103119189
6.4881068e-06
0.000128697738
-2.73531028e-06
0.000158923405
-1.37014406e-05
0.000194625529
-2.72501622e-05
0.000236635418
-4.3500258e-05
0.000286084569
-6.28232582e-05
0.000343803541
-8.57301869e-05
0.000410894023
-0.000112745365
0.000488660574
-0.000144447755
0.000578473777
-0.000181473479
0.000681776974
-0.000224482413
0.000800078457
-0.000274169697
0.000934907109
-0.000331251964
0.00108777102
-0.000396449806
0.00126015373
-0.00047047026
0.00145346676
-0.000554005743
0.00166887853
-0.000647560536
0.00190714178
-0.000751499331
0.00216855695
-0.000866031878
0.00245285159
-0.000991050992
0.00275881941
-0.00112579134
0.0030841602
-0.00126918075
0.00342619453
-0.00142105266
0.00378053696
-0.00157888213
0.00414179732
-0.00174377536
0.00450688812
-0.00191146713
0.00487460003
-0.00207935747
0.00521769797
-0.00223821168
0.00552768507
-0.00240272321
0.00582988858
-0.00254221751
0.00608660839
-0.00265363322
0.00624344937
-0.00276376758
0.00636984257
-0.00288174969
0.0065232605
-0.00299129938
0.00667743657
-0.00309218914
0.00679394098
-0.00319139146
0.00688394147
-0.00329152834
0.00697030151
-0.00340560896
-0.00351974306
0.00707264311
-2.52301191e-08
4.40070827e-07
-9.78148748e-08
1.32310657e-06
-2.16492112e-07
2.24162364e-06
-3.80417498e-07
3.2021803e-06
-5.88947693e-07
4.20983803e-06
-8.41420392e-07
5.26814232e-06
-1.13704079e-06
6.37904823e-06
-1.47444359e-06
7.54288239e-06
-1.85154456e-06
8.75869705e-06
-2.26495748e-06
1.00242771e-05
-2.71004088e-06
1.13364232e-05
-3.18087229e-06
1.26911632e-05
-3.66985255e-06
1.40834304e-05
-4.1674643e-06
1.55072588e-05
-4.66203105e-06
1.69557934e-05
-5.13947284e-06
1.84212603e-05
-5.58306245e-06
1.98949181e-05
-5.97332783e-06
2.13670981e-05
-6.2877517e-06
2.28268919e-05
-6.49991091e-06
2.42614973e-05
-6.57825853e-06
2.56557773e-05
-6.48634736e-06
2.69941281e-05
-6.18188927e-06
2.82584332e-05
-5.61544127e-06
2.94278333e-05
-4.72904548e-06
3.04783897e-05
-3.45706277e-06
3.13818742e-05
-1.72313255e-06
3.21048492e-05
5.63119292e-07
3.26086222e-05
3.50867899e-06
3.28482228e-05
7.23811028e-06
3.2771213e-05
1.18915194e-05
3.23215821e-05
1.76237936e-05
3.14360875e-05
2.46128637e-05
3.00360992e-05
3.30593504e-05
2.80333188e-05
4.32012513e-05
2.53196342e-05
5.53408448e-05
2.17532838e-05
6.96938613e-05
1.73218118e-05
8.65487737e-05
1.18254302e-05
0.000106490632
4.84877466e-06
0.000130015808
-3.54804515e-06
0.000157724852
-1.36748955e-05
0.00019033477
-2.61238054e-05
0.000228595091
-4.09977855e-05
0.000273549115
-5.86577845e-05
0.000325861832
-7.95653966e-05
0.00038654756
-0.000104188704
0.000456770844
-0.000133049503
0.000537747111
-0.000166709667
0.000630774404
-0.000205776165
0.00073721156
-0.000250888687
0.000858439466
-0.000302705477
0.000995848872
-0.000361896203
0.00115078971
-0.000429115283
0.00132450257
-0.000504969921
0.00151808343
-0.000590036222
0.00173233285
-0.000684725374
0.00196759878
-0.00078927723
0.00222367301
-0.000903640014
0.0024995983
-0.00102742968
0.00279370286
-0.00116014121
0.00310365507
-0.00130100785
0.003426116
-0.00144825671
0.00375630925
-0.00159937841
0.00408899347
-0.00175374121
0.00441854864
-0.00190844179
0.00473801505
-0.0020632464
0.0050393503
-0.00221280726
0.00531167341
-0.00235168576
0.00554515698
-0.00247170148
0.00572203168
-0.00257960573
0.00586543107
-0.00268562885
0.00600081599
-0.00278903129
0.00612558892
-0.00288855174
0.00622921611
-0.00298539357
0.006322148
-0.00308424937
0.00641055932
-0.00318061589
0.00650290073
-0.00328374723
0.00660016332
-0.00338880418
0.00669527508
-0.00350073099
-0.00361093887
0.00678646605
-2.57968542e-08
4.65761824e-07
-9.93407274e-08
1.39649968e-06
-2.18346541e-07
2.36045576e-06
-3.80572813e-07
3.36421204e-06
-5.83574663e-07
4.41262596e-06
-8.24439396e-07
5.50877441e-06
-1.09952585e-06
6.65388327e-06
-1.40437109e-06
7.84745684e-06
-1.73339963e-06
9.08743443e-06
-2.07941908e-06
1.03699838e-05
-2.43354278e-06
1.16902113e-05
-2.78465311e-06
1.30419139e-05
-3.11937193e-06
1.44177638e-05
-3.421851e-06
1.58093254e-05
-3.67342752e-06
1.72069285e-05
-3.85224385e-06
1.85996058e-05
-3.93266917e-06
1.99748419e-05
-3.88509421e-06
2.13189884e-05
-3.67538351e-06
2.26166109e-05
-3.26439315e-06
2.38499011e-05
-2.60763698e-06
2.49983788e-05
-1.65296778e-06
2.60387781e-05
-3.39192842e-07
2.69439377e-05
1.40559085e-06
2.76822865e-05
3.66567063e-06
2.82175014e-05
6.53579679e-06
2.85108938e-05
1.01228446e-05
2.85168995e-05
1.45493014e-05
2.81812145e-05
1.99554949e-05
2.74410265e-05
2.65013311e-05
2.62243206e-05
3.43727008e-05
2.44490993e-05
4.37920584e-05
2.2015559e-05
5.50287857e-05
1.87981383e-05
6.82928889e-05
1.47679114e-05
8.38665908e-05
9.74456366e-06
0.000102237571
3.38089231e-06
0.000123852013
-4.29410971e-06
0.000149229674
-1.35538216e-05
0.000178982555
-2.49058157e-05
0.000213885076
-3.84523848e-05
0.000254739826
-5.45315876e-05
0.000302157854
-7.35439071e-05
0.000357064794
-9.59069517e-05
0.000420490755
-0.000122086135
0.00049351585
-0.000152593073
0.000577298426
-0.000187974062
0.000673054567
-0.000228808645
0.000782042991
-0.000275701307
0.000905523554
-0.000329260195
0.00104471439
-0.000390083239
0.00120074012
-0.000458735211
0.00137455944
-0.000535719824
0.00156690586
-0.000621466363
0.00177818008
-0.000716248972
0.00200828713
-0.000820148006
0.0022565609
-0.000933003656
0.00252160386
-0.00105432452
0.00280123093
-0.0011832712
0.00309236048
-0.00131856319
0.00339104015
-0.00145882465
0.00369266517
-0.00160263652
0.00399238138
-0.00174797644
0.00428437924
-0.00189137977
0.0045623643
-0.0020317297
0.0048215764
-0.00216765727
0.00504955104
-0.00229122459
0.00523937415
-0.00240263451
0.00539036982
-0.0025026863
0.00551884475
-0.00260018268
0.00563306111
-0.00269382917
0.00573535957
-0.00278793378
0.00582669165
-0.00288037068
0.0059131614
-0.00297503099
0.00599321197
-0.0030654539
0.00606974903
-0.00316079686
0.00614888745
-0.0032597636
0.00622611076
-0.00336097733
0.00630402165
-0.00346672109
0.0063891807
-0.00358589256
-0.00370047767
0.0064787203
-2.78120463e-08
4.93393204e-07
-1.06034732e-07
1.47446548e-06
-2.30966481e-07
2.48509188e-06
-3.98565686e-07
3.53148069e-06
-6.0411409e-07
4.61781185e-06
-8.4191911e-07
5.74618668e-06
-1.1050256e-06
6.91656741e-06
-1.38492118e-06
8.12690045e-06
-1.6712436e-06
9.3732746e-06
-1.95184418e-06
1.06500707e-05
-2.21212838e-06
1.19499493e-05
-2.4345727e-06
1.32637787e-05
-2.59863935e-06
1.45812157e-05
-2.68040987e-06
1.58904442e-05
-2.65195105e-06
1.71777802e-05
-2.48089788e-06
1.84278252e-05
-2.13010807e-06
1.96232855e-05
-1.55666617e-06
2.07447379e-05
-7.10459653e-07
2.17695515e-05
4.66238493e-07
2.26723047e-05
2.03880174e-06
2.34248706e-05
4.08259501e-06
2.39939915e-05
6.68348922e-06
2.43419985e-05
9.93945985e-06
2.44252169e-05
1.39622004e-05
2.41936048e-05
1.88823455e-05
2.35895331e-05
2.4851067e-05
2.25468987e-05
3.20410099e-05
2.09899249e-05
4.06530458e-05
1.88275724e-05
5.09261625e-05
1.59497089e-05
6.30642803e-05
1.23093965e-05
7.73275726e-05
7.75059981e-06
9.4142517e-05
1.98146354e-06
0.000113903022
-4.99441678e-06
0.000137072026
-1.34264074e-05
0.00016416289
-2.37120849e-05
0.000195862263
-3.59957433e-05
0.000232879593
-5.05735714e-05
0.000275767063
-6.77958845e-05
0.000325346857
-8.80349705e-05
0.000382519583
-0.000111707322
0.000448242856
-0.000139270428
0.000523548241
-0.000171215847
0.000609524896
-0.000208066565
0.000707294939
-0.000250367169
0.000817988461
-0.000298671923
0.000942706185
-0.000353531013
0.00108246967
-0.000415469742
0.00123816682
-0.000484962626
0.00141048215
-0.000562404197
0.00159981746
-0.00064807655
0.00180620708
-0.000742115686
0.00202917481
-0.000844440204
0.00226765151
-0.000954731455
0.00251983345
-0.00107233541
0.00278316387
-0.00119633925
0.00305432499
-0.00132549053
0.0033292395
-0.00145819035
0.00360309552
-0.00159242363
0.00387048103
-0.00172621437
0.00412552136
-0.00185768092
0.00436374174
-0.00198620073
0.00458131186
-0.00210895363
0.0047726034
-0.00222302484
0.0049335231
-0.00232858088
0.00506491775
-0.00242262367
0.00517525483
-0.00251297574
0.00527322667
-0.0026006627
0.00536054237
-0.00268750323
0.00544323055
-0.00277652183
0.00552135793
-0.00286606676
0.00559599466
-0.00295501407
0.00566796219
-0.0030470048
0.00574093822
-0.0031384345
0.00581478905
-0.00323465219
0.0058914381
-0.00333641599
0.00597176756
-0.00344130772
0.00605079562
-0.00354574812
0.0061277497
-0.00366284217
-0.00378102331
0.00620830093
-2.77856226e-08
5.21058819e-07
-1.04527853e-07
1.55103796e-06
-2.24671339e-07
2.6050405e-06
-3.81813191e-07
3.68840453e-06
-5.68320182e-07
4.80407896e-06
-7.74996757e-07
5.95260193e-06
-9.90768339e-07
7.1320558e-06
-1.2023535e-06
8.33817968e-06
-1.39385379e-06
9.56444485e-06
-1.54637532e-06
1.08022362e-05
-1.63775362e-06
1.20409437e-05
-1.64223157e-06
1.32678431e-05
-1.52971397e-06
1.44682524e-05
-1.26512924e-06
1.56253793e-05
-8.07932881e-07
1.67200672e-05
-1.11647013e-07
1.77309841e-05
8.77080842e-07
1.86339611e-05
2.21951544e-06
1.94016631e-05
3.98542076e-06
2.00029598e-05
6.25465104e-06
2.04023397e-05
9.11909946e-06
2.05596357e-05
1.26840247e-05
2.04282254e-05
1.70700622e-05
1.9955063e-05
2.24151032e-05
1.90792183e-05
2.88762119e-05
1.77314755e-05
3.6635102e-05
1.58295573e-05
4.59030401e-05
1.32778053e-05
5.68710894e-05
1.00206437e-05
6.979977e-05
5.89758816e-06
8.50434464e-05
7.04672246e-07
0.00010295028
-5.59887312e-06
0.000123927167
-1.32278303e-05
0.000148425477
-2.25184975e-05
0.000177037424
-3.36081191e-05
0.000210375852
-4.67667055e-05
0.000248964604
-6.23028265e-05
0.000293515838
-8.05491007e-05
0.000344816054
-0.000101876052
0.000403708554
-0.00012669081
0.000471102807
-0.00015543182
0.000547959464
-0.000188566756
0.00063527219
-0.000226586114
0.000734045509
-0.000269992326
0.000845264107
-0.00031928853
0.000969854845
-0.000374961501
0.00110863942
-0.000437460326
0.00126227509
-0.000507170772
0.001431186
-0.000584385003
0.00161548482
-0.000669266136
0.00181490445
-0.000761828776
0.0020286724
-0.000861849473
0.00225542533
-0.000968873421
0.0024931511
-0.00108217058
0.00273915619
-0.00120074097
0.00299001697
-0.00132320044
0.0032416488
-0.00144797514
0.00348957466
-0.00157342031
0.00372896136
-0.0016975808
0.00395566218
-0.00181912806
0.00416434422
-0.00193489996
0.00435111763
-0.00204445766
0.00451208308
-0.00214716922
0.00464695705
-0.00224383077
0.0047583733
-0.00233444405
0.0048500396
-0.00242025007
0.00493146517
-0.00250405273
0.00500818727
-0.00258970155
0.00508223423
-0.00267471336
0.00515270072
-0.00275797296
0.00521813989
-0.00284196428
0.00528022443
-0.00292815474
0.00534183925
-0.00301663205
0.005406341
-0.00311150899
0.00547471527
-0.00320680985
0.00554513612
-0.00330507265
0.00561725542
-0.00340853307
0.00569261824
-0.00351666546
0.00577138407
-0.00362450724
0.00584772181
-0.00373917215
-0.00385709731
0.00592380608
-2.39792009e-08
5.44837264e-07
-8.71655071e-08
1.61394203e-06
-1.81294e-07
2.69884637e-06
-2.96685702e-07
3.80343686e-06
-4.21767923e-07
4.92876782e-06
-5.42667096e-07
6.07307529e-06
-6.42804421e-07
7.23173502e-06
-7.02478816e-07
8.39736335e-06
-6.98383511e-07
9.55982541e-06
-6.03114695e-07
1.07064082e-05
-3.84603655e-07
1.18218369e-05
-5.59951458e-09
1.28882051e-05
5.76825274e-07
1.38851538e-05
1.41196409e-06
1.4789525e-05
2.55615323e-06
1.55751188e-05
4.07385921e-06
1.62124734e-05
6.03893781e-06
1.66680302e-05
8.53577609e-06
1.6903922e-05
1.1660726e-05
1.68770538e-05
1.5523767e-05
1.65382871e-05
2.02505613e-05
1.58317709e-05
2.59839773e-05
1.46936771e-05
3.28885e-05
1.30493429e-05
4.11486411e-05
1.08178094e-05
5.09412581e-05
7.9375123e-06
6.25287287e-05
4.24066738e-06
7.61974863e-05
-3.92437436e-07
9.22578482e-05
-6.04128927e-06
0.000111067854
-1.29140992e-05
0.000133023927
-2.12531951e-05
0.000158634607
-3.12114645e-05
0.000188435077
-4.30303389e-05
0.000222895184
-5.69807823e-05
0.000262642504
-7.33577672e-05
0.000308362655
-9.24893491e-05
0.000360793404
-0.000114736249
0.000420729406
-0.000140487978
0.00048901151
-0.000170161237
0.000566512714
-0.000204195311
0.000654120274
-0.000243042905
0.000752710958
-0.000287161206
0.000863118769
-0.000336997944
0.000986095941
-0.000392973784
0.00112226375
-0.000455460905
0.0012720551
-0.000524757699
0.0014356498
-0.000601060187
0.00161290519
-0.00068443166
0.00180328908
-0.000774774771
0.00200580945
-0.000871792525
0.0022189217
-0.000974946865
0.00244049969
-0.00108343306
0.00266780506
-0.00119618418
0.00289753071
-0.00131190139
0.00312595897
-0.0014291742
0.00334909571
-0.00154634196
0.00356277841
-0.00166166249
0.00376315006
-0.00177379644
0.00394708194
-0.00188151691
0.00411028045
-0.00198233058
0.00425032527
-0.00207494855
0.0043677095
-0.00216184529
0.00446367084
-0.002243134
0.00454316717
-0.0023233315
0.00461306981
-0.00240435121
0.00467974773
-0.0024869313
0.00474519581
-0.00256950378
0.00480700899
-0.0026515174
0.00486431354
-0.00273202068
0.00491896883
-0.0028126317
0.00497455082
-0.00289754968
0.00503172215
-0.00298532831
0.00509058383
-0.0030754947
0.00514862054
-0.00316954524
0.00520796349
-0.00326615054
0.0052683087
-0.00336541347
0.00532968135
-0.00346989833
0.00539432249
-0.00358129405
0.005461904
-0.00369207496
0.00552747314
-0.00380472587
-0.00392986428
0.00560025438
-1.50043615e-08
5.597266e-07
-4.85019758e-08
1.64727898e-06
-8.82810223e-08
2.73844225e-06
-1.19994222e-07
3.83494574e-06
-1.26573706e-07
4.93512264e-06
-8.77235226e-08
6.03398009e-06
2.05849752e-08
7.12316035e-06
2.26664762e-07
8.19099499e-06
5.63617862e-07
9.22255977e-06
1.0698861e-06
1.01998016e-05
1.78987295e-06
1.11014836e-05
2.77456391e-06
1.19031175e-05
4.08249265e-06
1.25767956e-05
5.78048252e-06
1.30910706e-05
7.94505533e-06
1.34100436e-05
1.06635117e-05
1.34934736e-05
1.40353878e-05
1.32955665e-05
1.8173996e-05
1.27646792e-05
2.32081613e-05
1.18422034e-05
2.92850487e-05
1.04606613e-05
3.65705806e-05
8.54544264e-06
4.52267755e-05
6.03662323e-06
5.54911423e-05
2.78405606e-06
6.76096041e-05
-1.30163412e-06
8.18583165e-05
-6.31225669e-06
9.85511996e-05
-1.24533549e-05
0.000118036754
-1.98792158e-05
0.000140754467
-2.87603161e-05
0.000167148801
-3.9309844e-05
0.000197658043
-5.17639497e-05
0.000232828512
-6.63835572e-05
0.000273254683
-8.34582508e-05
0.000319578248
-0.000103306216
0.000372490576
-0.000126272104
0.00043272464
-0.000152725565
0.000501044174
-0.000183058082
0.000578229324
-0.000217675581
0.000665056741
-0.00025699127
0.000762273066
-0.000301414423
0.00087056319
-0.000351335992
0.000990509727
-0.000407110896
0.00112254546
-0.000469037027
0.00126689908
-0.000537330951
0.00142353561
-0.000612101201
0.00159209404
-0.00069332014
0.00177182637
-0.000780796796
0.00196155201
-0.000874161809
0.00215959956
-0.000972826859
0.00236378032
-0.00107597772
0.00257140508
-0.00118257595
0.00277933098
-0.00129136319
0.00298406505
-0.00140092239
0.00318189788
-0.00150973828
0.00336912432
-0.00161640464
0.00354251726
-0.00171973884
0.00370006647
-0.00181921552
0.00383896993
-0.00191270344
0.00395744377
-0.00199999424
0.00405685691
-0.00208174735
0.00414171137
-0.00215980701
0.0042156255
-0.00223576299
0.00428441578
-0.00231192778
0.00434745781
-0.00238637739
0.00440373068
-0.002460627
0.00445437745
-0.00253758089
0.00450264866
-0.00261777869
0.00455151512
-0.00270038686
0.00460587521
-0.00278638302
0.00466232559
-0.00286908401
0.00471692805
-0.00295215322
0.00477054595
-0.00303894605
0.0048251427
-0.00313009008
0.00488051762
-0.00322491677
0.00493921084
-0.00332483732
0.00500157
-0.00342776436
0.00506334424
-0.00353166144
0.00512761804
-0.00364555444
0.00519629489
-0.00376074002
0.00526221151
-0.00387062917
-0.00399043443
0.00532279563
-1.89302373e-10
5.59732488e-07
1.45991646e-08
1.63223541e-06
6.19837474e-08
2.69076791e-06
1.62615597e-07
3.73399221e-06
3.40836576e-07
4.75655016e-06
6.25270462e-07
5.74916589e-06
1.04940893e-06
6.69861288e-06
1.65221601e-06
7.58774974e-06
2.47876506e-06
8.39554238e-06
3.58102646e-06
9.09704043e-06
5.01868847e-06
9.66328888e-06
6.85990955e-06
1.00613294e-05
9.18278385e-06
1.02533183e-05
1.20762761e-05
1.01969368e-05
1.56416126e-05
9.84402496e-06
1.99938001e-05
9.14056113e-06
2.52636277e-05
8.02496906e-06
3.15994907e-05
6.42799807e-06
3.91512051e-05
4.28961897e-06
4.81241683e-05
1.48677777e-06
5.87339649e-05
-2.06532728e-06
7.12232141e-05
-6.45366289e-06
8.58661745e-05
-1.18600105e-05
0.000102971852
-1.84084894e-05
0.000122918179
-2.62598384e-05
0.000146064209
-3.56007243e-05
0.000172821661
-4.6638099e-05
0.000203661733
-5.96019183e-05
0.000239097205
-7.47469548e-05
0.00027968446
-9.2352962e-05
0.00032602276
-0.000112723747
0.000378748479
-0.000136186
0.000438527071
-0.000163086987
0.000506041767
-0.000193789134
0.000581977831
-0.000228664132
0.000667001176
-0.000268084107
0.000761732862
-0.000312410138
0.000866716328
-0.000361977806
0.000982378578
-0.000417079955
0.0011089856
-0.000477946513
0.00124659295
-0.000544721984
0.00139499314
-0.000617441196
0.00155366244
-0.000696004482
0.00172171096
-0.00078015423
0.00189784169
-0.000869455697
0.00208033302
-0.000963293156
0.00226701498
-0.00106084876
0.00245530142
-0.0011611182
0.00264226113
-0.00126294223
0.00282476905
-0.00136508859
0.00299968032
-0.00146627909
0.00316402193
-0.00156526859
0.00331522266
-0.00166094357
0.00345125873
-0.00175244532
0.00357080213
-0.00183928661
0.00367334852
-0.00192176604
0.00376043654
-0.00199979563
0.00383463371
-0.00207419529
0.00389971937
-0.00214683698
0.00396038381
-0.00222047555
0.00401709249
-0.00229247539
0.00406975677
-0.00236459574
0.00412034626
-0.00243697033
0.00416815244
-0.00250843661
0.00421274193
-0.00258217416
0.00425421433
-0.00265925429
0.00429243926
-0.00273861415
0.00433089688
-0.00282484292
0.00437670744
-0.00291489557
0.00442887858
-0.00300432384
0.00448347609
-0.00309354125
0.00454033383
-0.00318694379
0.00459805426
-0.00328263128
0.00465594809
-0.00338272206
0.00471798899
-0.00348979452
0.00478137628
-0.00359503762
0.00484780513
-0.00371196996
0.00491360987
-0.00382652995
0.00498053914
-0.00393754221
-0.00405042385
0.005040544
2.10568233e-08
5.38591219e-07
1.04367842e-07
1.54880829e-06
2.74594889e-07
2.52040972e-06
5.60444329e-07
3.44799708e-06
9.95426149e-07
4.32140821e-06
1.61856231e-06
5.12585479e-06
2.4750874e-06
5.84189717e-06
3.6172143e-06
6.44541535e-06
5.1049791e-06
6.9075517e-06
7.0069927e-06
7.19478102e-06
9.40186057e-06
7.26815339e-06
1.23789976e-05
7.08390063e-06
1.60400957e-05
6.59190196e-06
2.05007253e-05
5.73596031e-06
2.58917481e-05
4.45262367e-06
3.23499859e-05
2.68191037e-06
4.00519575e-05
3.22548781e-07
4.91855909e-05
-2.70612214e-06
5.99627694e-05
-6.48809076e-06
7.26222492e-05
-1.11732814e-05
8.74317416e-05
-1.68754501e-05
0.000104715701
-2.3738308e-05
0.000124780703
-3.19257585e-05
0.000147990865
-4.16194607e-05
0.000174751488
-5.30213416e-05
0.000205504642
-6.63548334e-05
0.000240730702
-8.18651966e-05
0.000280947033
-9.98193767e-05
0.000326703965
-0.000120505109
0.000378578937
-0.000144229257
0.000437167904
-0.000171314143
0.000503072993
-0.00020209263
0.000576885814
-0.000236901468
0.000659167052
-0.000276072156
0.000750420453
-0.000319919449
0.000851061627
-0.000368727335
0.000961381824
-0.000422732533
0.00108150746
-0.000482105785
0.00121135619
-0.000546931193
0.00135059197
-0.000617184964
0.00149858118
-0.000692714028
0.00165435395
-0.000773216967
0.00181657523
-0.000858228976
0.00198353257
-0.000947115002
0.00215315601
-0.00103908271
0.00232304347
-0.0011331842
0.00249054166
-0.0012283505
0.00265287766
-0.00132345775
0.00280730233
-0.00141737045
0.00295130045
-0.00150909027
0.00308287359
-0.00159785582
0.00320069273
-0.00168309137
0.00330408211
-0.00176433657
0.00339311055
-0.00184147728
0.00346850571
-0.00191468554
0.00353122666
-0.0019844914
0.00358716999