/*--------------------------------*- C++ -*----------------------------------*\
  =========                 |
  \\      /  F ield         | OpenFOAM: The Open Source CFD Toolbox
   \\    /   O peration     | Website:  https://openfoam.org
    \\  /    A nd           | Version:  8
     \\/     M anipulation  |
\*---------------------------------------------------------------------------*/
FoamFile
{
    version     2.0;
    format      ascii;
    class       volScalarField;
    location    "0.031";
    object      T;
}
// * * * * * * * * * * * * * * * * * * * * * * * * * * * * * * * * * * * * * //

dimensions      [0 0 0 1 0 0 0];

internalField   nonuniform List<scalar> 
42400
(
472.213232
470.622406
468.99001
467.315255
465.597407
463.835799
462.029853
460.1791
458.283203
456.341984
454.355454
452.32384
450.247625
448.127576
445.964785
443.760707
441.517195
439.236544
436.921521
434.575407
432.202024
429.805767
427.391624
424.965194
422.53269
420.10094
417.67737
415.269975
412.887282
410.538291
408.232408
405.979359
403.789096
401.671687
399.637211
397.695623
395.856642
394.129636
392.523526
391.046654
389.706656
388.510342
387.463549
386.571017
385.836231
385.261287
384.846728
384.591328
384.493787
384.546084
384.742276
385.071034
385.517862
386.063676
386.685259
387.347731
388.017311
388.670893
389.308891
389.642832
389.619649
389.268335
388.461377
387.410682
386.035265
384.259492
381.923688
378.968676
375.427432
371.336901
366.370475
361.076158
355.988123
349.634287
342.505611
336.705
331.125084
325.205509
317.976472
313.279498
472.246079
470.721672
469.157452
467.552688
465.906706
464.218908
462.488794
460.715978
458.900219
457.041443
455.139778
453.195582
451.209479
449.182393
447.115591
445.010716
442.869826
440.695439
438.490562
436.258735
434.004058
431.73122
429.445523
427.152895
424.859897
422.573719
420.302158
418.053596
415.836948
413.661605
411.537355
409.474294
407.482721
405.573017
403.755537
402.040459
400.437621
398.956347
397.605259
396.392054
395.323278
394.404122
393.638204
393.027334
392.57121
392.267206
392.10998
392.091733
392.198889
392.419864
392.732887
393.1108
393.524108
393.945181
394.36398
394.594589
394.563784
394.263954
393.49133
392.515683
391.260265
389.65542
387.582681
384.961625
381.757298
377.949652
373.558196
368.567995
363.072724
357.343844
351.096084
344.422096
338.296958
332.307751
325.804144
319.650846
314.605883
310.081249
306.003253
302.296055
472.288772
470.850699
469.375111
467.861356
466.308851
464.717095
463.085693
461.414378
459.703035
457.951731
456.160747
454.330605
452.462109
450.556377
448.614879
446.639476
444.632459
442.596585
440.535113
438.451839
436.351126
434.237926
432.117802
429.996935
427.882127
425.780784
423.700894
421.650987
419.640078
417.6776
415.773317
413.937216
412.179376
410.509807
408.938279
407.474103
406.125893
404.901303
403.806766
402.847209
402.025739
401.343245
400.798218
400.386332
400.100491
399.929412
399.857236
399.863549
399.925167
400.017414
400.12178
400.126904
399.969179
399.543955
398.788692
397.824421
396.625728
395.128373
393.250859
390.884941
387.993082
384.549071
380.544862
375.990894
370.917607
365.372113
359.458574
353.234429
346.764475
340.359386
334.115347
327.801568
321.861732
316.731427
312.052955
307.904298
304.288727
301.429798
300.232129
300.035
472.338151
470.999937
469.626872
468.218408
466.774069
465.293474
463.776361
462.222604
460.632244
459.005516
457.342881
455.645056
453.913049
452.148195
450.35219
448.527127
446.675533
444.800401
442.905223
440.994017
439.071347
437.142345
435.212714
433.288731
431.37723
429.485584
427.621657
425.793747
424.010503
422.280825
420.613736
419.018223
417.503041
416.076502
414.746212
413.518804
412.399639
411.39247
410.499056
409.718803
409.04855
408.481972
408.008759
407.615115
407.285207
407.000456
406.743383
406.415607
405.971949
405.359259
404.514186
403.478146
402.250302
400.772928
398.983516
396.78789
394.132271
390.982996
387.318193
383.133509
378.442868
373.281287
367.701739
361.769079
355.569912
349.187868
342.762278
336.41025
330.213427
324.313287
318.961167
314.090217
309.799649
306.173664
303.363795
301.126345
300.100149
299.900978
299.862236
299.859537
472.39063
471.158547
469.894456
468.597922
467.268594
465.906224
464.510696
463.082039
461.620463
460.126381
458.60044
457.043554
455.456931
453.842109
452.200986
450.535851
448.849413
447.144824
445.425707
443.696169
441.960808
440.224722
438.49349
436.773157
435.070193
433.391439
431.744032
430.135302
428.572651
427.063392
425.614567
424.232726
422.923682
421.692227
420.541824
419.474263
418.489275
417.584308
416.754173
415.990673
415.2832
414.619034
413.960398
413.269064
412.507736
411.633194
410.5966
409.438004
408.118143
406.591237
404.805073
402.687567
400.184462
397.259813
393.884716
390.041821
385.727112
380.951481
375.742257
370.143351
364.217426
358.045248
351.719053
345.331653
338.994104
332.807993
326.898766
321.386926
316.37669
311.926567
308.145833
305.065387
302.77611
301.00021
300.096642
299.912077
299.87496
299.861726
299.855113
299.851511
472.442161
471.314296
470.157225
468.970631
467.754287
466.508082
465.232036
463.926328
462.591316
461.227567
459.83588
458.417313
456.973211
455.505231
454.015368
452.50597
450.979762
449.439857
447.88976
446.333367
444.774955
443.219157
441.670922
440.135466
438.61819
437.124585
435.66011
434.230045
432.83931
431.492262
430.19245
428.94236
427.743116
426.594145
425.492942
424.434789
423.412355
422.41242
421.415894
420.399528
419.336491
418.196547
416.971202
415.643233
414.180719
412.547568
410.700849
408.582665
406.152612
403.375794
400.221424
396.665681
392.693798
388.301598
383.496966
378.300929
372.748657
366.889208
360.787712
354.520797
348.176324
341.854873
335.66346
329.702502
324.079842
318.903489
314.260799
310.23067
306.873815
304.227725
302.268358
300.921039
300.094421
299.924368
299.87915
299.863802
299.858131
299.852662
299.841369
299.826411
472.488114
471.453187
470.39156
469.303019
468.187446
467.044835
465.875312
464.679155
463.456813
462.208924
460.936341
459.640149
458.32168
456.982533
455.624579
454.249978
452.861168
451.460867
450.052055
448.637943
447.221938
445.807583
444.398484
442.998219
441.610217
440.237623
438.883131
437.548793
436.235802
434.944245
433.672827
432.418628
431.176806
429.940235
428.697816
427.435519
426.137118
424.788395
423.37184
421.866582
420.248043
418.486926
416.546663
414.390408
411.986237
409.302769
406.310665
402.984495
399.304342
395.257257
390.838665
386.053593
380.917695
375.458036
369.713632
363.734809
357.584602
351.33807
345.080268
338.902067
332.89939
327.173276
321.82794
316.959846
312.652183
308.977549
305.973436
303.6499
301.966698
300.85924
300.195192
299.957878
299.893407
299.8756
299.866204
299.856272
299.840078
299.821731
299.811036
299.80741
472.523495
471.560123
470.571978
469.558915
468.520877
467.457908
466.370166
465.257937
464.121648
462.961878
461.779375
460.575056
459.350019
458.105543
456.843081
455.564251
454.270817
452.964661
451.647739
450.322028
448.989458
447.651826
446.310687
444.967233
443.622144
442.275421
440.926202
439.572561
438.21132
436.837831
435.445748
434.02679
432.570552
431.064286
429.494335
427.84464
426.095535
424.223002
422.203516
420.012013
417.622417
415.008367
412.144191
409.005981
405.572682
401.827314
397.758149
393.359867
388.63462
383.592982
378.254818
372.649907
366.818558
360.811843
354.691646
348.529591
342.406626
336.410859
330.636083
325.17564
320.120414
315.554579
311.553534
308.176238
305.450484
303.36918
301.883032
300.907131
300.334888
300.044518
299.939713
299.90281
299.881197
299.862573
299.839613
299.820556
299.813742
299.811001
299.809006
299.807961
472.543566
471.620781
470.674296
469.703978
468.709759
467.691645
466.649721
465.584154
464.495202
463.383211
462.248615
461.091929
459.91374
458.714698
457.495507
456.256889
454.999545
453.724115
452.431114
451.120864
449.793401
448.448372
447.084902
445.701446
444.295606
442.863916
441.401516
439.90186
438.357804
436.760613
435.099861
433.363347
431.537003
429.604978
427.549779
425.352439
422.992804
420.449963
417.702812
414.730709
411.514169
408.035588
404.280234
400.237179
395.900234
391.268882
386.349168
381.154551
375.706706
370.036227
364.183329
358.198455
352.14271
346.086775
340.110104
334.298421
328.741871
323.531206
318.754746
314.486187
310.783268
307.681983
305.192941
303.2989
301.943744
301.041553
300.491258
300.18579
300.031487
299.957245
299.909725
299.868392
299.838324
299.819614
299.814018
299.812264
299.812407
299.8116
299.809213
299.808411
472.544849
471.624628
470.680704
469.712868
468.720955
467.704833
466.664412
465.599632
464.510463
463.396893
462.258914
461.096508
459.90962
458.698123
457.461783
456.200221
454.912853
453.598821
452.256904
450.88541
449.482043
448.043739
446.566469
445.044474
443.471944
441.842538
440.149036
438.383398
436.535398
434.593446
432.54464
430.374823
428.06872
425.610139
422.982255
420.167973
417.150382
413.913295
410.441659
406.722365
402.744972
398.502472
393.992094
389.216127
384.182753
378.906884
373.41098
367.725852
361.891365
355.957
349.982364
344.037915
338.201506
332.556663
327.191284
322.192456
317.642373
313.609187
310.142417
307.266748
304.975139
303.235122
301.98077
301.128406
300.582946
300.253144
300.066954
299.951354
299.88699
299.847893
299.82593
299.820614
299.817719
299.814653
299.813634
299.812339
299.812068
299.811651
299.810293
299.809059
472.527579
471.572409
470.59255
469.587692
468.557524
467.501731
466.419981
465.311912
464.177121
463.015143
461.825441
460.607371
459.359621
458.080226
456.767338
455.419066
454.03313
452.606797
451.13682
449.619387
448.050088
446.423895
444.735166
442.978315
441.145982
439.229385
437.218764
435.103386
432.871558
430.510708
428.007516
425.348096
422.51824
419.503726
416.290706
412.865975
409.217555
405.335282
401.211431
396.841405
392.224475
387.364583
382.271188
376.96014
371.454558
365.785662
359.993496
354.127435
348.246338
342.418175
336.719949
331.233726
326.043432
321.230314
316.868332
313.018346
309.722905
306.997301
304.829274
303.177927
301.978022
301.148757
300.603385
300.261238
300.05258
299.928833
299.858397
299.840105
299.831381
299.82666
299.822494
299.819921
299.817081
299.814827
299.813063
299.812434
299.812366
299.813095
299.81498
299.814521
472.490757
471.461086
470.404646
469.320944
468.20944
467.069525
465.900504
464.701369
463.470578
462.206754
460.908268
459.573192
458.199791
456.786425
455.330686
453.829449
452.279119
450.675584
449.014158
447.289512
445.495663
443.625912
441.672788
439.62805
437.482657
435.226784
432.849869
430.340695
427.687506
424.878167
421.900379
418.741942
415.39099
411.836341
408.068002
404.077676
399.859341
395.409914
390.729983
385.824615
380.704231
375.385518
369.892339
364.256583
358.518839
352.728809
346.945284
341.235487
335.673636
330.338563
325.310275
320.664911
316.470062
312.777818
309.619816
307.002154
304.908672
303.299905
302.113864
301.275288
300.707424
300.33815
300.107587
299.967517
299.890606
299.860803
299.848588
299.838044
299.829766
299.824437
299.819852
299.81658
299.815048
299.814391
299.813732
299.813093
299.813192
299.815634
299.819467
299.820244
472.435779
471.29488
470.124113
468.92274
467.68991
466.424631
465.125321
463.790649
462.419416
461.009782
459.559617
458.066467
456.527515
454.939543
453.29888
451.60136
449.842271
448.01633
446.11765
444.139686
442.07524
439.916447
437.654779
435.281071
432.785563
430.157982
427.387636
424.463563
421.374714
418.110168
414.659309
411.012261
407.160295
403.096314
398.815426
394.315596
389.598383
384.669761
379.541005
374.229601
368.760149
363.165164
357.485677
351.7715
346.080988
340.480189
335.041098
329.839057
324.94924
320.441746
316.376505
312.798731
309.734753
307.188042
305.138586
303.544407
302.346405
301.478027
300.871952
300.465152
300.203386
300.041592
299.945521
299.894498
299.869129
299.853542
299.841095
299.82971
299.82196
299.818581
299.817026
299.81541
299.814913
299.814866
299.816792
299.817867
299.817965
299.817824
299.82102
299.821254
472.367049
471.087121
469.77353
468.425298
467.041278
465.620018
464.160152
462.659895
461.117182
459.529623
457.894466
456.20856
454.468315
452.669669
450.80805
448.878352
446.87489
444.791397
442.621001
440.356228
437.98901
435.510713
432.912179
430.183802
427.315621
424.297455
421.119081
417.770354
414.241525
410.523581
406.608652
402.490492
398.165035
393.631055
388.890902
383.951313
378.824285
373.527957
368.087458
362.535627
356.91351
351.270489
345.663903
340.157975
334.82193
329.727237
324.943895
320.536307
316.559093
313.051735
310.034923
307.50918
305.455094
303.835465
302.599117
301.685188
301.031275
300.578693
300.276655
300.083051
299.965047
299.896364
299.857896
299.838645
299.827936
299.820777
299.816848
299.817218
299.818297
299.818316
299.81804
299.818111
299.818641
299.818614
299.819901
299.821808
299.824086
299.824145
299.823436
299.823341
472.287773
470.8475
469.369235
467.851766
466.293658
464.693271
463.048808
461.358071
459.618515
457.827214
455.980821
454.075531
452.107049
450.070561
447.960705
445.771558
443.496622
441.128826
438.660534
436.083575
433.38929
430.568598
427.61209
424.510166
421.253169
417.831561
414.236224
410.458795
406.492057
402.330417
397.970462
393.411604
388.656803
383.713359
378.593743
373.316432
367.906688
362.397183
356.82839
351.248594
345.713404
340.28462
335.028347
330.012285
325.302257
320.958036
317.029021
313.550491
310.541404
308.001259
305.912669
304.241781
302.942188
301.960948
301.242917
300.734536
300.38654
300.156131
300.00901
299.918617
299.866214
299.83986
299.830929
299.825154
299.820593
299.817575
299.817118
299.817596
299.818057
299.818827
299.818573
299.818797
299.820121
299.82065
299.820865
299.821387
299.824463
299.827984
299.829519
299.830485
472.19991
470.581932
468.921191
467.216256
465.465459
463.666908
461.818371
459.917235
457.960489
455.944683
453.865897
451.719705
449.501152
447.204733
444.824384
442.353476
439.78483
437.110741
434.323027
431.413093
428.372028
425.190735
421.860041
418.370929
414.714811
410.88385
406.871352
402.672231
398.283553
393.705163
388.940376
383.996737
378.886802
373.628915
368.247912
362.775666
357.251395
351.721592
346.239471
340.863817
335.657167
330.68331
326.00413
321.675994
317.745992
314.248203
311.201227
308.605957
306.446918
304.696223
303.315325
302.256102
301.46743
300.89842
300.501866
300.235629
300.064182
299.958635
299.896499
299.861474
299.84309
299.833933
299.827944
299.823483
299.81909
299.816385
299.8153
299.815426
299.816484
299.818262
299.818815
299.817688
299.817777
299.817929
299.81847
299.818821
299.820167
299.825825
299.829734
299.833682
472.104761
470.294352
468.436057
466.528249
464.569014
462.556105
460.486905
458.358387
456.167072
453.909001
451.579698
449.17415
446.686792
444.111505
441.441621
438.669949
435.788817
432.79014
429.665514
426.406329
423.003899
419.449693
415.735593
411.854208
407.799256
403.566013
399.15184
394.556774
389.784196
384.841539
379.74102
374.50036
369.143422
363.700705
358.209592
352.714259
347.265134
341.917799
336.731282
331.765727
327.07957
322.726382
318.7516
315.18954
312.060997
309.371584
307.11217
305.259408
303.777635
302.622549
301.747273
301.104279
300.647643
300.334529
300.12781
299.996192
299.915668
299.868568
299.842579
299.828322
299.820809
299.816775
299.815048
299.814797
299.815206
299.816005
299.816592
299.816813
299.81772
299.818459
299.819444
299.819752
299.819225
299.817696
299.818033
299.818674
299.818024
299.821994
299.825973
299.829955
472.003356
469.987867
467.919028
465.794989
463.613562
461.372184
459.067872
456.697186
454.256193
451.740444
449.144947
446.464164
443.692012
440.821881
437.846677
434.758878
431.550629
428.213841
424.740339
421.122072
417.351362
413.421207
409.325647
405.060193
400.622326
396.012065
391.232587
386.290898
381.198517
375.972145
370.634255
365.213549
359.745194
354.270743
348.837651
343.498305
338.308501
333.325392
328.604846
324.198521
320.150894
316.496661
313.258542
310.446039
308.054954
306.067442
304.454334
303.177559
302.193611
301.455659
300.917033
300.534221
300.26976
300.093541
299.980365
299.909741
299.866182
299.839254
299.824232
299.818931
299.814623
299.812345
299.811598
299.812238
299.814058
299.815336
299.81629
299.817418
299.818578
299.819177
299.819738
299.820852
299.822797
299.823871
299.823884
299.824609
299.823197
299.822857
299.825468
299.827549
471.896591
469.665188
467.374691
465.023024
462.607731
460.125933
457.574294
454.948982
452.245649
449.459411
446.584843
443.615997
440.54643
437.369256
434.077228
430.662837
427.118452
423.436515
419.609775
415.631577
411.496205
407.199289
402.738275
398.112956
393.326056
388.38386
383.296854
378.080351
372.755058
367.347508
361.890308
356.422096
350.987155
345.634574
340.41694
335.388515
330.602996
326.110966
321.956825
318.176474
314.79477
311.824591
309.266198
307.10793
305.32751
303.891787
302.761642
301.894268
301.246504
300.776133
300.444135
300.215518
300.061702
299.960986
299.897494
299.85942
299.837663
299.828305
299.82279
299.817253
299.814759
299.813369
299.812287
299.812469
299.814381
299.815013
299.815357
299.816135
299.816768
299.817385
299.81804
299.819224
299.821126
299.825823
299.829951
299.833171
299.836967
299.837747
299.839795
299.839175
471.78556
469.329617
466.808618
464.220266
461.561846
458.830185
456.021624
453.131991
450.156589
447.090199
443.927103
440.661121
437.285683
433.793921
430.178788
426.433241
422.550455
418.524087
414.3486
410.019635
405.534454
400.892428
396.095588
391.149212
386.06243
380.848819
375.526953
370.120841
364.660202
359.180493
353.722628
348.332305
343.058905
337.953933
333.069046
328.453729
324.152939
320.204882
316.637539
313.468072
310.702682
308.335992
306.351158
304.722045
303.415604
302.394471
301.616463
301.03886
300.622444
300.332431
300.137668
300.011957
299.93223
299.882901
299.853607
299.838075
299.832638
299.827373
299.823431
299.82054
299.819292
299.819342
299.819002
299.818052
299.817514
299.815708
299.814564
299.815629
299.816022
299.815798
299.81683
299.818761
299.821295
299.824849
299.828536
299.831561
299.83419
299.83626
299.836926
299.840219
472.598645
471.787071
470.95424
470.099689
469.222946
468.323535
467.400972
466.454766
465.484415
464.489405
463.469211
462.423289
461.351076
460.251988
459.125411
457.970704
456.787185
455.574131
454.330765
453.056248
451.749668
450.410025
449.036214
447.627007
446.181028
444.69673
443.172361
441.60593
439.995166
438.337471
436.629865
434.868928
433.050734
431.170771
429.223854
427.20434
425.106015
422.921997
420.644777
418.266308
415.777148
413.166775
410.424025
407.537398
404.492224
401.256142
397.82184
394.194948
390.368911
386.343075
382.123825
377.726635
373.17807
368.518136
363.803547
359.10761
354.519241
350.139309
346.073675
342.422757
339.268509
336.661086
334.608769
333.07497
331.98429
331.236342
330.723207
330.345358
330.021774
329.693072
329.320887
328.887487
328.394594
327.856417
327.289925
326.71624
326.210734
325.866983
325.688366
325.631715
472.60056
471.792872
470.96406
470.11368
469.241279
468.346397
467.428563
466.487298
465.522109
464.532487
463.517906
462.477814
461.411636
460.318762
459.198544
458.050292
456.873259
455.666635
454.42954
453.161004
451.859956
450.525206
449.155427
447.74913
446.30464
444.820068
443.29328
441.721858
440.103068
438.433812
436.710594
434.929471
433.086015
431.175281
429.191783
427.129117
424.980192
422.737172
420.391444
417.93358
415.353495
412.640805
409.778139
406.742066
403.520151
400.116617
396.52125
392.728003
388.735194
384.547192
380.176185
375.643947
370.984106
366.24612
361.495079
356.811536
352.289158
348.02952
344.133697
340.691106
337.767217
335.392772
333.557595
332.211111
331.270098
330.632748
330.19534
329.866304
329.57367
329.265286
328.906114
328.478995
327.989216
327.464362
326.936159
326.500645
326.140675
325.963725
326.050656
326.511011
472.599258
471.788952
470.957481
470.104416
469.229316
468.331731
467.411199
466.467248
465.499387
464.507107
463.489878
462.44714
461.378302
460.282732
459.15975
458.008624
456.828555
455.618666
454.377997
453.105479
451.799928
450.46002
449.084275
447.67103
446.218413
444.724316
443.186358
441.601853
439.967763
438.280657
436.536661
434.731395
432.859934
430.916764
428.895759
426.790156
424.592554
422.29493
419.888757
417.360232
414.691494
411.869387
408.885765
405.736996
402.411376
398.899718
395.195198
391.294581
387.199558
382.918264
378.466844
373.870893
369.170426
364.42011
359.689464
355.061832
350.631071
346.495569
342.74982
339.474552
336.724445
334.518093
332.831556
331.601812
330.742814
330.159146
329.757241
329.455743
329.191318
328.918437
328.606174
328.237283
327.812931
327.357633
326.985556
326.731786
326.646528
326.869863
327.329628
328.134754
472.594479
471.774524
470.93318
470.070029
469.18464
468.27657
467.345362
466.390548
465.41164
464.408131
463.379488
462.325148
461.244514
460.136941
459.001737
457.838147
456.645343
455.422416
454.16836
452.882055
451.56225
450.207545
448.816369
447.386962
445.917353
444.405336
442.848435
441.243881
439.588579
437.879081
436.111563
434.281259
432.38233
430.408101
428.350773
426.202507
423.954908
421.598336
419.12174
416.517375
413.779633
410.896565
407.856918
404.650282
401.267163
397.699762
393.942849
389.994862
385.859157
381.545381
377.070855
372.462971
367.764039
363.030326
358.332614
353.755818
349.396249
345.355674
341.728967
338.573289
335.927028
333.793166
332.154388
330.984015
330.192522
329.666601
329.30897
329.043569
328.816004
328.589431
328.340323
328.056583
327.741123
327.420753
327.170687
327.098935
327.308951
327.915336
328.908191
330.271979
472.585928
471.748697
470.889654
470.008385
469.104467
468.177458
467.226908
466.25235
465.2533
464.229257
463.179693
462.104056
461.001756
459.872162
458.714596
457.528322
456.312535
455.066361
453.788838
452.478915
451.135388
449.75668
448.340993
446.886282
445.390512
443.851357
442.26616
440.631887
438.94507
437.201743
435.397362
433.527264
431.586681
429.570381
427.472848
425.287088
423.00504
420.618156
418.11745
415.493652
412.737241
409.838416
406.78747
403.575216
400.193515
396.63596
392.898689
388.981378
384.888392
380.630062
376.223981
371.698231
367.096786
362.470492
357.904131
353.469358
349.246285
345.317503
341.760178
338.640504
335.998336
333.844563
332.157604
330.883094
329.937483
329.330396
328.943448
328.682856
328.481609
328.299712
328.114882
327.918998
327.719332
327.541268
327.459694
327.544715
327.901316
328.631109
329.801757
331.409734
472.573326
471.710627
470.825474
469.917457
468.986151
468.031115
467.051898
466.048032
465.019038
463.964416
462.883649
461.776192
460.64147
459.478873
458.287746
457.067302
455.816571
454.534567
453.220253
451.872451
450.489872
449.071292
447.615355
446.120557
444.584923
443.00625
441.382076
439.709644
437.985871
436.207309
434.370118
432.47003
430.502319
428.46175
426.342533
424.138274
421.841963
419.446012
416.942292
414.322227
411.576915
408.697309
405.674486
402.50001
399.166398
395.667696
392.000166
388.163005
384.158937
379.993927
375.697982
371.292027
366.804949
362.284645
357.795018
353.413685
349.224211
345.311484
341.755243
338.622692
335.958746
333.779666
332.069658
330.784483
329.860232
329.192054
328.739997
328.440884
328.236238
328.079569
327.945056
327.824645
327.722903
327.653342
327.677137
327.879121
328.377445
329.269451
330.521043
332.013726
472.556406
471.659504
470.739275
469.795305
468.827162
467.834397
466.816553
465.773158
464.703726
463.607759
462.484738
461.334126
460.155315
458.94757
457.710204
456.442556
455.14401
453.813806
452.451045
451.054745
449.623826
448.157102
446.653261
445.110844
443.528221
441.903568
440.234845
438.519764
436.75576
434.93996
433.06914
431.139694
429.147588
427.088326
424.956913
422.747821
420.454977
418.07176
415.591022
413.005141
410.306114
407.485692
404.535572
401.447643
398.214284
394.828699
391.285285
387.580084
383.736671
379.757758
375.64511
371.420496
367.108062
362.751567
358.405774
354.136168
350.016726
346.126054
342.541839
339.33381
336.55514
334.235792
332.376891
330.950659
329.906029
329.184784
328.741801
328.408315
328.155507
327.99346
327.891066
327.806337
327.728912
327.709671
327.781619
328.038768
328.473348
329.218203
330.53589
332.013957
472.534926
471.5946
470.629832
469.640196
468.625247
467.584528
466.517572
465.423897
464.303017
463.154434
461.97763
460.771995
459.53701
458.272228
456.977084
455.650978
454.29328
452.90332
451.480382
450.023695
448.532425
447.005667
445.442428
443.84162
442.202037
440.522341
438.801039
437.036455
435.226702
433.369653
431.462897
429.503707
427.48899
425.41525
423.278543
421.074437
418.79798
416.443686
414.005528
411.476963
408.850992
406.120255
403.277192
400.314273
397.224322
394.00098
390.639328
387.136695
383.505008
379.750362
375.877271
371.891263
367.812999
363.677727
359.530338
355.425285
351.425402
347.599319
344.017431
340.746433
337.842954
335.3473
333.277528
331.627365
330.367417
329.44965
328.808791
328.39832
328.176637
328.006645
327.874667
327.796573
327.774379
327.809611
327.933538
328.125617
328.472108
329.068594
330.237534
331.721048
472.508729
471.515441
470.496345
469.451001
468.378951
467.279725
466.152847
464.997833
463.814197
462.601441
461.359049
460.086624
458.783698
457.449804
456.084474
454.687237
453.257618
451.795138
450.299306
448.769619
447.205556
445.606573
443.972097
442.301513
440.594157
438.849297
437.066117
435.243694
433.38097
431.47672
429.529515
427.537681
425.49925
423.411911
421.272957
419.079236
416.827099
414.512363
412.130282
409.675538
407.142262
404.524082
401.814227
399.005682
396.091413
393.064682
389.919434
386.650766
383.270923
379.786042
376.196509
372.499352
368.708071
364.844401
360.943913
357.05064
353.216538
349.499941
345.962839
342.666948
339.66882
337.014523
334.734596
332.840626
331.323907
330.156743
329.296113
328.691489
328.278783
328.033549
327.896276
327.835549
327.836619
327.897211
328.013573
328.157278
328.524579
329.084012
329.939628
331.083245
472.477816
471.422031
470.338825
469.227738
468.088297
466.92002
465.722423
464.495022
463.23734
461.948917
460.629348
459.278214
457.895121
456.479697
455.031598
453.550506
452.036136
450.488232
448.906573
447.29097
445.64127
443.95735
442.23912
440.486514
438.699484
436.877991
435.021986
433.131391
431.206077
429.245826
427.250299
425.218986
423.151159
421.045811
418.901599
416.716776
414.489133
412.215937
409.893884
407.519069
405.086969
402.592473
400.029945
397.39334
394.676393
391.872887
388.977026
385.983944
382.869766
379.671595
376.396301
373.036086
369.585418
366.057026
362.469506
358.85595
355.2566
351.718162
348.292264
345.032978
341.993434
339.221761
336.756837
334.624529
332.835077
331.382219
330.244412
329.388257
328.772222
328.356699
328.099305
327.961424
327.935456
327.96093
328.049134
328.166595
328.465557
328.946823
329.663947
330.421782
472.442474
471.315238
470.158732
468.972473
467.755971
466.508732
465.230266
463.920099
462.577779
461.20289
459.795038
458.353866
456.879062
455.370366
453.82757
452.250529
450.639166
448.993476
447.313532
445.59949
443.851598
442.070192
440.255705
438.408661
436.529674
434.619443
432.678731
430.708358
428.709166
426.681995
424.627638
422.546797
420.440026
418.307666
416.149781
413.966077
411.75583
409.517813
407.250223
404.950627
402.615925
400.242331
397.825391
395.360046
392.840729
390.261533
387.616426
384.899554
382.105508
379.207087
376.248569
373.236212
370.164052
367.018493
363.810533
360.555985
357.279655
354.016234
350.805355
347.690307
344.716067
341.926699
339.362321
337.055977
335.03087
333.29843
331.857625
330.695777
329.790732
329.11411
328.633299
328.317391
328.141216
328.087206
328.112826
328.206504
328.441212
328.820733
329.438462
329.980737
472.403376
471.197094
469.959489
468.690055
467.388283
466.053668
464.685719
463.283966
461.847968
460.377327
458.871691
457.330771
455.754343
454.142258
452.494458
450.810976
449.091955
447.33765
445.548443
443.724851
441.867534
439.977306
438.055136
436.102155
434.119651
432.109072
430.072006
428.010173
425.925392
423.819557
421.69459
419.552389
417.394772
415.223406
413.039726
410.844857
408.639521
406.423957
404.197829
401.960157
399.709256
397.442702
395.157322
392.84923
390.513914
388.146382
385.741411
383.293918
380.799511
378.25517
375.630429
372.929811
370.202037
367.443374
364.647694
361.804962
358.928666
356.036266
353.15215
350.308394
347.539463
344.880828
342.367144
340.03019
337.896764
335.986831
334.312193
332.875961
331.672922
330.690317
329.909108
329.309178
328.868991
328.560333
328.376969
328.356641
328.48498
328.660506
329.054228
329.342677
472.361721
471.071219
469.747203
468.389135
466.99648
465.568715
464.105336
462.605874
461.069898
459.497035
457.886979
456.239501
454.554466
452.831842
451.071713
449.274298
447.439955
445.569204
443.662736
441.721428
439.746354
437.738799
435.700264
433.632476
431.537385
429.417166
427.274205
425.111084
422.93056
420.735522
418.528958
416.31389
414.09332
411.870146
409.647086
407.426582
405.210704
403.001053
400.798669
398.603936
396.416508
394.235253
392.058224
389.882661
387.705051
385.521213
383.326426
381.115599
378.883499
376.625031
374.335508
372.014344
369.632659
367.199774
364.767487
362.328412
359.875968
357.403143
354.924849
352.459083
350.025331
347.647348
345.352035
343.165214
341.110473
339.207949
337.473225
335.916521
334.542289
333.348987
332.329048
331.471788
330.764057
330.176019
329.700749
329.318187
329.030925
328.987486
329.198737
329.448424
472.319255
470.942889
469.530762
468.082297
466.596925
465.074098
463.513295
461.91404
460.275912
458.598559
456.881712
455.125204
453.328983
451.493127
449.617863
447.703583
445.750861
443.760472
441.733408
439.670894
437.574407
435.445685
433.286745
431.099883
428.887681
426.653002
424.398983
422.129014
419.84671
417.555875
415.260455
412.964478
410.671983
408.386946
406.113186
403.854274
401.613429
399.393417
397.196452
395.024106
392.877225
390.755858
388.659215
386.585631
384.53259
382.496791
380.474275
378.460572
376.450904
374.440433
372.424554
370.399232