/*--------------------------------*- C++ -*----------------------------------*\
  =========                 |
  \\      /  F ield         | OpenFOAM: The Open Source CFD Toolbox
   \\    /   O peration     | Website:  https://openfoam.org
    \\  /    A nd           | Version:  8
     \\/     M anipulation  |
\*---------------------------------------------------------------------------*/
FoamFile
{
    version     2.0;
    format      ascii;
    class       volVectorField;
    location    "0.031";
    object      U;
}
// * * * * * * * * * * * * * * * * * * * * * * * * * * * * * * * * * * * * * //

dimensions      [0 1 -1 0 0 0 0];

internalField   nonuniform List<vector> 
42400
(
(-0.0169147395 0.0161800694 -8.09148485e-27)
(-0.0504450199 0.0473618589 2.60407956e-26)
(-0.0843302223 0.0778300757 2.53456334e-26)
(-0.118605652 0.107580114 0)
(-0.153257457 0.136610615 0)
(-0.188262663 0.16488111 -5.93217979e-28)
(-0.223585746 0.192326165 0)
(-0.259182089 0.218870615 6.56750316e-28)
(-0.295001902 0.244436773 0)
(-0.330991971 0.268947968 7.27914753e-28)
(-0.367095851 0.292330574 7.66665704e-28)
(-0.403253668 0.314515322 -8.07714381e-28)
(-0.439402046 0.3354383 1.02854167e-26)
(-0.475474337 0.355041874 1.56652262e-26)
(-0.511401111 0.373275641 -9.46251093e-28)
(-0.547110818 0.390097404 0)
(-0.582530475 0.405474099 0)
(-0.617586229 0.419382615 0)
(-0.65220371 0.431810439 0)
(-0.686308118 0.442756116 0)
(-0.719824017 0.452229513 0)
(-0.752674834 0.460251896 -2.77367668e-27)
(-0.784782083 0.466855841 8.24102915e-26)
(-0.816064288 0.472084971 1.88743938e-25)
(-0.846435618 0.475993517 1.07227303e-25)
(-0.875804192 0.478645692 -3.49121295e-27)
(-0.904070004 0.480114872 -3.70480136e-27)
(-0.931122351 0.480482593 7.8699682e-27)
(-0.95683662 0.479837409 0)
(-0.981070609 0.478273604 0)
(-1.0036612 0.475889165 -1.95177248e-25)
(-1.02441923 0.472780728 -2.14217971e-25)
(-1.04311905 0.46903608 1.0831025e-26)
(-1.05950007 0.464730726 2.56248827e-25)
(-1.07331344 0.459956427 2.67955367e-25)
(-1.08433319 0.45483413 0)
(-1.09195831 0.449852124 0)
(-1.09597219 0.444363039 0)
(-1.09573794 0.438597689 0)
(-1.09063051 0.432553343 4.80466803e-25)
(-1.08073603 0.426789769 4.54506682e-25)
(-1.06362875 0.421480152 4.65739839e-25)
(-1.03860641 0.41586419 1.07939207e-24)
(-1.00414273 0.409693462 -5.17563517e-26)
(-0.957652493 0.403468397 -6.95026226e-25)
(-0.899167996 0.39636303 -9.26080473e-25)
(-0.826254671 0.389123673 6.68697103e-26)
(-0.736922757 0.381567963 9.62661478e-25)
(-0.629025624 0.373607828 7.64912884e-26)
(-0.500704682 0.36495821 1.26037824e-24)
(-0.347709649 0.355878878 4.79822884e-33)
(-0.169723097 0.346526696 -3.19821796e-24)
(0.0432167388 0.338376004 -2.02858127e-24)
(0.284022565 0.331550488 2.35689672e-25)
(0.575634494 0.322514194 0)
(0.916205536 0.311448021 0)
(1.31055635 0.300375997 0)
(1.7665662 0.289957782 -3.41465647e-25)
(2.29079976 0.27992732 -3.63911268e-25)
(2.88793961 0.270268223 0)
(3.56338138 0.261337345 8.25345671e-24)
(4.32220282 0.253233835 9.44489504e-24)
(5.16821442 0.246219323 -9.72912409e-24)
(6.10412641 0.241022539 -1.02720802e-23)
(7.13129089 0.238080811 0)
(8.24664715 0.240686015 0)
(9.43566744 0.244644316 -8.15671464e-24)
(10.7407795 0.20958984 -7.48636897e-24)
(12.0442848 0.266657745 -2.75263471e-25)
(13.2224305 0.478537444 0)
(14.9151646 0.116159546 0)
(16.4847841 -0.19648801 9.81892975e-26)
(16.9632121 1.23778748 5.18794624e-25)
(18.2398496 1.3071347 0)
(20.5430673 -0.511457324 1.58088717e-25)
(21.8374705 -0.555928838 3.9882175e-23)
(22.0358716 0.77917953 1.73290011e-24)
(22.2315936 2.18733554 -2.33217207e-24)
(23.6126724 0.757516209 1.65977345e-24)
(23.88412 -0.124876575 -3.14821552e-24)
(-0.0208591965 0.0184712536 0)
(-0.0616794413 0.053930051 2.08448189e-26)
(-0.102437313 0.0885237852 1.95612939e-26)
(-0.143255479 0.122334131 0)
(-0.184188209 0.155419293 0)
(-0.22525131 0.187781042 1.16644404e-26)
(-0.26642407 0.219377964 9.93843807e-27)
(-0.307657592 0.250142519 1.02458111e-27)
(-0.348883095 0.279991745 0)
(-0.390017959 0.308834441 1.1338794e-27)
(-0.430969759 0.336576475 1.19307509e-27)
(-0.471639126 0.363124816 7.92921814e-27)
(-0.511921915 0.388390582 2.63353672e-26)
(-0.551710871 0.412291379 1.7452308e-26)
(-0.590896927 0.434753097 -2.42452621e-26)
(-0.629370155 0.455711303 -2.54013263e-26)
(-0.667020357 0.475112276 0)
(-0.703737297 0.492913727 3.44474101e-27)
(-0.739410551 0.509085245 0)
(-0.773929005 0.523608528 0)
(-0.807180029 0.536477413 0)
(-0.839048339 0.54769779 6.74661383e-26)
(-0.869414583 0.557287413 1.56517687e-25)
(-0.898153637 0.565275669 8.98545397e-26)
(-0.925132538 0.571703301 0)
(-0.950208011 0.576622023 -1.04781896e-26)
(-0.973223376 0.580093629 -5.49220612e-27)
(-0.994004481 0.582188133 1.15972676e-26)
(-1.01235322 0.582981255 1.45896101e-25)
(-1.02803843 0.582553181 1.591312e-25)
(-1.04081892 0.580993709 -1.38244308e-26)
(-1.05045784 0.578387975 -1.44559823e-26)
(-1.05667624 0.574878817 2.45258129e-25)
(-1.05906522 0.570795748 2.60701084e-25)
(-1.057385 0.565761591 -3.20012173e-25)
(-1.05094138 0.560203769 -3.38509299e-25)
(-1.03945842 0.553958902 0)
(-1.0224804 0.547739954 2.11867823e-26)
(-0.997961719 0.541306228 0)
(-0.965059629 0.534071772 4.89109402e-26)
(-0.921656422 0.526567301 4.70233186e-25)
(-0.867692505 0.518157323 4.90535495e-25)
(-0.801210557 0.509523938 5.74871785e-26)
(-0.720510125 0.500599478 -6.08025098e-26)
(-0.623701526 0.491195525 1.29966122e-25)
(-0.508464724 0.481252227 -6.77849266e-26)
(-0.373978546 0.470677036 7.2828982e-26)
(-0.215335211 0.459991826 9.03050642e-25)
(-0.0306996853 0.450405607 1.1275272e-24)
(0.178543167 0.442428568 0)
(0.430386838 0.432308977 -9.88032555e-26)
(0.725434159 0.420075394 2.06882724e-25)
(1.06714221 0.407304549 1.39164551e-24)
(1.46161049 0.395008515 2.05291309e-24)
(1.91577848 0.383082631 2.58132957e-25)
(2.43465368 0.371345822 4.76725831e-24)
(3.02376134 0.360138618 5.37184252e-24)
(3.68840029 0.349748719 -2.839754e-25)
(4.43341619 0.340405077 -2.87405614e-25)
(5.26252108 0.333211808 7.3391145e-24)
(6.17786656 0.329522279 8.00725647e-24)
(7.17901623 0.33014475 2.59578232e-25)
(8.26314892 0.334907645 -2.43750236e-25)
(9.42477926 0.343163774 0)
(10.6560984 0.35200623 -8.5120771e-24)
(11.94504 0.367895719 -1.55626869e-23)
(13.2418586 0.411669997 -7.59994981e-24)
(14.6165987 0.399125134 0)
(16.0453223 0.319016734 3.59227644e-26)
(17.1176987 0.631278652 3.20610664e-25)
(18.3038412 0.831634034 8.48637495e-24)
(20.0458773 0.028909556 1.05711948e-23)
(21.0416569 0.0380495049 -5.28309892e-24)
(21.2064217 1.59117538 -4.77897194e-24)
(22.225544 1.26685624 4.86575735e-26)
(23.3889807 0.164056902 1.49649736e-23)
(23.7711607 0.187215109 2.14512982e-23)
(24.0164873 0.466353941 -2.18561386e-24)
(23.9187934 1.08140189 -1.60445437e-23)
(23.8386808 0.885958219 -1.43813224e-23)
(-0.024205485 0.0198167538 2.42074463e-27)
(-0.0711923309 0.0577784171 4.84915383e-28)
(-0.117747441 0.0947961784 -5.12890132e-28)
(-0.164077228 0.131020866 5.38016293e-28)
(-0.210287723 0.166552169 0)
(-0.256426164 0.201423699 -8.20542904e-27)
(-0.302491801 0.23561796 1.1736592e-33)
(-0.348425869 0.269076118 2.90351798e-27)
(-0.394136778 0.301712232 -1.33913524e-28)
(-0.439508866 0.333424669 -6.96566285e-27)
(-0.4844096 0.364103995 -5.60526498e-27)
(-0.528695273 0.393639007 1.6314765e-27)
(-0.572215302 0.42192135 1.71752332e-27)
(-0.614815298 0.448848956 -2.02702928e-26)
(-0.656339158 0.474328543 -2.53809627e-26)
(-0.696630318 0.498277349 6.01822344e-27)
(-0.735532267 0.520624253 3.25315633e-26)
(-0.772888438 0.541310437 8.60962287e-26)
(-0.808541536 0.560289691 4.9758597e-26)
(-0.842332423 0.577528486 4.94430119e-27)
(-0.874098589 0.593005902 -5.20320964e-27)
(-0.903672127 0.606713512 -5.47489706e-27)
(-0.930877042 0.618655156 0)
(-0.955526173 0.628846673 1.20651209e-26)
(-0.977417273 0.637315265 -9.91037744e-26)
(-0.996328645 0.644097102 6.67173708e-29)
(-1.01202004 0.649234621 1.18243896e-25)
(-1.02423888 0.652771555 1.27863992e-25)
(-1.03272038 0.65474833 1.4242296e-25)
(-1.03707459 0.655332564 -1.48123952e-25)
(-1.03720002 0.654467637 -1.6873407e-26)
(-1.0325851 0.652391716 3.89879014e-25)
(-1.02278396 0.649331921 2.58576548e-25)
(-1.0075912 0.645165135 0)
(-0.985881848 0.64042421 0)
(-0.956308528 0.634665968 -2.23167054e-26)
(-0.917865741 0.627708294 0)
(-0.86887094 0.619928963 5.00879638e-26)
(-0.809155759 0.61114332 3.33264097e-25)
(-0.736998622 0.601840093 1.09463144e-25)
(-0.650752964 0.592029211 -3.26166312e-25)
(-0.548632809 0.581591656 0)
(-0.42843938 0.570352933 0)
(-0.287812131 0.558379674 5.42733258e-25)
(-0.12659837 0.546231593 7.53023333e-25)
(0.0621088437 0.535597455 7.49564292e-26)
(0.272725397 0.526746174 0)
(0.526975008 0.515243714 0)
(0.82329734 0.501590182 9.20131479e-25)
(1.164483 0.488107017 1.07095161e-24)
(1.55728273 0.475371983 -9.70067626e-26)
(2.0065805 0.463134821 0)
(2.51776187 0.451528387 -1.28421704e-24)
(3.09642311 0.440797574 -1.74002183e-24)
(3.74807916 0.431235938 -3.86047571e-24)
(4.47776723 0.423590845 -4.24955099e-24)
(5.28922181 0.418887353 -5.10897692e-24)
(6.18439779 0.418074506 -2.54807528e-32)
(7.16313266 0.421912507 2.9352286e-32)
(8.22268099 0.431095516 -1.49443573e-23)
(9.35805988 0.446293542 -7.65864776e-24)
(10.5598306 0.468724983 7.57147645e-24)
(11.8144875 0.497943439 7.48618576e-24)
(13.1089348 0.534629668 0)
(14.4232624 0.573658638 7.67884793e-24)
(15.7563664 0.607279921 1.52645444e-23)
(17.0259707 0.676347866 7.52005492e-24)
(18.2378588 0.777715136 0)
(19.5338367 0.697714241 -4.27787881e-26)
(20.6572254 0.657747584 7.94374569e-24)
(21.3463176 1.15492503 7.41291809e-24)
(22.217068 1.18888005 0)
(23.3667286 0.514908164 0)
(23.884574 0.582645141 9.08590508e-25)
(23.8525942 1.27485025 -9.46936688e-25)
(23.823232 1.41251201 1.24978946e-23)
(23.9155883 0.972316801 7.2099106e-24)
(23.9807775 0.818799673 0)
(24.0343031 0.766767915 -2.12502455e-24)
(24.0076074 0.888302168 8.08619905e-24)
(-0.0270219652 0.0204174939 3.6635347e-28)
(-0.0791928822 0.0594519222 5.76381813e-28)
(-0.130617857 0.097478823 5.52058109e-27)
(-0.18157002 0.134697775 -3.22008835e-27)
(-0.232213598 0.171248604 -3.55327402e-27)
(-0.282626049 0.207189429 0)
(-0.332783632 0.242507634 -2.5510869e-27)
(-0.38262766 0.277151407 -1.17448847e-27)
(-0.432041344 0.311038688 3.54865813e-27)
(-0.480870728 0.344063679 6.93430249e-27)
(-0.528938812 0.376107683 1.43768396e-26)
(-0.576052413 0.40704796 4.72595594e-34)
(-0.622008425 0.436763672 2.05790757e-27)
(-0.666598361 0.465140132 2.77498464e-33)
(-0.709611217 0.492071815 -2.28237011e-27)
(-0.750834905 0.517464332 4.0112507e-26)
(-0.790056515 0.541235587 -4.65562561e-26)
(-0.827061525 0.563316403 -5.29073195e-27)
(-0.861632136 0.583650872 5.53303021e-26)
(-0.893545205 0.602196554 5.84438915e-27)
(-0.922569901 0.618924064 -1.23291136e-26)
(-0.948461173 0.633811775 -7.91397938e-26)
(-0.97095713 0.64684242 -8.76309895e-26)
(-0.989781779 0.658004657 7.12349932e-27)
(-1.00464491 0.667285503 0)
(-1.01525473 0.674735332 7.79686329e-27)
(-1.02132557 0.680423343 0)
(-1.02253563 0.684457975 1.56315623e-25)
(-1.01852648 0.687027594 3.17826436e-25)
(-1.00899097 0.688144512 1.77329005e-25)
(-0.993060308 0.687968236 -1.57870547e-25)
(-0.969671423 0.68625713 -1.84331203e-25)
(-0.937993046 0.682967702 4.38594729e-26)
(-0.896844325 0.678185173 2.32013055e-26)
(-0.84525998 0.672071919 -2.43203269e-25)
(-0.782569809 0.664837519 -2.91079889e-25)
(-0.707310488 0.656689971 0)
(-0.617844236 0.647657565 3.26518791e-25)
(-0.512216365 0.637692986 3.02314247e-25)
(-0.388536521 0.626552253 5.83486608e-26)
(-0.245000651 0.614386891 6.25680704e-26)
(-0.0804787554 0.602168052 0)
(0.110875681 0.591658019 0)
(0.321654649 0.5826795 0)
(0.57871186 0.570881093 7.61745329e-26)
(0.874916211 0.557022483 7.39493536e-25)
(1.21456317 0.544092643 7.4744127e-25)
(1.60380306 0.532335532 0)
(2.04699463 0.521414697 0)
(2.54950593 0.511541251 1.03275755e-24)
(3.11706097 0.503053958 1.11375438e-24)
(3.75501917 0.496560565 1.425616e-24)
(4.46822964 0.492810982 1.64215389e-24)
(5.26030663 0.492601585 -1.95323393e-25)
(6.13327358 0.496655407 -2.36303264e-24)
(7.08724078 0.505643817 -2.35592469e-24)
(8.1203391 0.520337587 -5.82484773e-24)
(9.22808038 0.5416395 -6.54039364e-24)
(10.4038313 0.569797149 0)
(11.6365685 0.605237557 5.03826682e-26)
(12.9109874 0.648798902 -7.18341028e-24)
(14.2081131 0.703185643 -1.44579711e-23)
(15.504458 0.765272059 6.28510855e-26)
(16.7866888 0.834292551 9.76368523e-26)
(18.0188237 0.906327436 -7.9721595e-24)
(19.2167043 0.969266971 7.80137469e-24)
(20.3162501 1.0138987 7.80675437e-24)
(21.2847774 1.13051924 -4.64747105e-25)
(22.1264516 1.21909971 -6.36515071e-24)
(23.0184752 1.10489478 -1.11719462e-23)
(23.600268 1.10244375 6.84252653e-26)
(23.8506799 1.36101244 -1.36229081e-23)
(23.9175663 1.35840083 -1.08424819e-23)
(23.9456638 1.2156058 0)
(23.9559741 1.15886368 -7.99961726e-24)
(23.9566915 1.21192631 -2.64630236e-23)
(23.9581972 1.26546897 4.43930413e-25)
(23.9563642 1.19779094 6.3761482e-24)
(24.0294268 1.08923121 5.64918983e-24)
(24.0516595 0.979185057 7.87797011e-24)
(-0.0295730055 0.0205777263 2.07024531e-27)
(-0.0864298176 0.0598070708 0)
(-0.142246502 0.0979350885 0)
(-0.197352205 0.135192396 1.11942415e-30)
(-0.251946535 0.171742513 0)
(-0.306121349 0.20766498 0)
(-0.35987187 0.242964334 0)
(-0.413090288 0.277584356 -3.62923268e-27)
(-0.465607766 0.311438515 0)
(-0.517255429 0.344419025 2.02121049e-27)
(-0.567795621 0.376409861 1.82280838e-26)
(-0.616977719 0.407283273 2.80634953e-33)
(-0.664539165 0.436913376 -2.11297927e-26)
(-0.710208917 0.465181072 0)
(-0.753710808 0.491977256 -2.61253931e-27)
(-0.794765341 0.517204898 5.50858081e-27)
(-0.833089757 0.540779808 0)
(-0.868392373 0.562627926 5.59491858e-26)
(-0.900368668 0.582684691 6.43304759e-27)
(-0.928703418 0.600898983 -1.34972878e-25)
(-0.953092516 0.617197992 -8.38015099e-26)
(-0.973203445 0.631653023 7.36148255e-27)
(-0.988752403 0.644255665 0)
(-0.999410393 0.655063847 -1.18033387e-25)
(-1.0048183 0.66417696 -1.31439004e-25)
(-1.00438458 0.671481719 -1.33841368e-25)
(-0.99742698 0.676964299 -1.52497507e-25)
(-0.983298169 0.680621733 1.62274843e-25)
(-0.961228141 0.682456205 1.64724739e-25)
(-0.930259599 0.682502012 0)
(-0.88960436 0.68092561 -2.02268196e-25)
(-0.838548348 0.677932016 -2.17399124e-25)
(-0.775876294 0.673619602 2.41423954e-26)
(-0.700280235 0.668046977 -2.18657652e-25)
(-0.610194025 0.661263339 -2.58630246e-25)
(-0.503697245 0.653317144 -5.50806521e-26)
(-0.378979093 0.644032977 2.86323605e-26)
(-0.233690045 0.633239535 -3.69019992e-25)
(-0.0656774108 0.622467336 -4.56629215e-25)
(0.122626535 0.613971854 3.99840728e-25)
(0.336677148 0.605831961 5.97662281e-25)
(0.59469424 0.594748671 4.33228032e-25)
(0.889708829 0.582597013 0)
(1.22678937 0.571832522 -7.85114424e-26)
(1.61167335 0.562468936 -5.8722846e-25)
(2.04837231 0.554241699 -8.31447523e-26)
(2.54213541 0.54761529 1.66029172e-32)
(3.09851015 0.543166573 -7.84222689e-25)
(3.72255296 0.541547854 0)
(4.41874525 0.543399719 -9.16540247e-26)
(5.19054531 0.549405535 -1.52496843e-24)
(6.04006481 0.560249426 -1.57483653e-24)
(6.9678556 0.576625806 -3.23719664e-25)
(7.97254195 0.599258696 -2.48563202e-24)
(9.05053375 0.628833472 -2.56400928e-24)
(10.1955173 0.665999468 -2.99932937e-24)
(11.3989926 0.710560455 -9.45822492e-24)
(12.6475798 0.762873191 -6.57434742e-24)
(13.9241864 0.823049773 -6.84943324e-24)
(15.2106227 0.889936953 -7.17630364e-24)
(16.4858832 0.961586212 0)
(17.7253133 1.04204396 1.238017e-25)
(18.8992954 1.12716953 -7.59598414e-24)
(20.0010371 1.2114183 -8.0800671e-24)
(20.9943876 1.28937683 -4.16322268e-26)
(21.8918999 1.36617638 0)
(22.6484762 1.40445557 1.05068096e-23)
(23.3264002 1.41045934 1.22265545e-23)
(23.7525934 1.48556756 6.72466913e-25)
(23.9105164 1.49237507 -6.99594498e-25)
(23.9364045 1.48093128 -2.94915928e-26)
(23.9441261 1.45707532 -1.42188384e-24)
(23.9414466 1.4833822 -9.07155418e-24)
(23.9397503 1.44172715 -8.84210649e-24)
(23.9371596 1.37715849 -6.90491609e-25)
(23.9542287 1.35945481 0)
(23.9797018 1.28547458 -1.09953657e-23)
(24.0028402 1.29135782 -1.01251966e-23)
(24.0148877 1.23745157 0)
(24.038825 1.19239761 -1.02311498e-23)
(-0.032117958 0.0205261523 -3.32973311e-27)
(-0.093625407 0.0595043834 -4.40928313e-27)
(-0.153766741 0.0972418039 -5.41336093e-27)
(-0.212911607 0.133984788 -8.28219709e-28)
(-0.271278711 0.169909215 2.23497209e-27)
(-0.328958684 0.20510297 -1.84349751e-27)
(-0.385924146 0.239580523 2.5176569e-27)
(-0.442053311 0.27330199 -9.17870839e-30)
(-0.497159327 0.306179134 2.16462906e-27)
(-0.550946985 0.338096744 4.56248247e-27)
(-0.603130732 0.368933006 -6.10812161e-27)
(-0.653419704 0.398563622 -3.41637216e-26)
(-0.701468955 0.426873391 -2.86127702e-26)
(-0.746927342 0.453744199 -3.22506209e-26)
(-0.789435726 0.479071532 2.96770393e-27)
(-0.828627818 0.502766794 5.43927071e-26)
(-0.864149702 0.524719119 0)
(-0.895607551 0.544929187 0)
(-0.922652752 0.563353678 7.26258101e-26)
(-0.944874591 0.579945007 1.80419827e-25)
(-0.9617664 0.594676988 1.00254042e-25)
(-0.972888963 0.607494688 1.12597259e-25)
(-0.977666844 0.618417762 2.650966e-33)
(-0.975477331 0.62743224 -1.43831001e-25)
(-0.965615923 0.634521534 1.37151791e-25)
(-0.947474438 0.639842649 3.19013156e-25)
(-0.920327952 0.643470548 1.62787745e-25)
(-0.883253333 0.645446348 -1.10076238e-26)
(-0.83522286 0.645825092 1.14962928e-26)
(-0.775089824 0.644671713 -2.4009822e-26)
(-0.701556372 0.64206541 0)
(-0.613062528 0.638098174 2.73030374e-25)
(-0.507804461 0.632906667 -2.72764778e-26)
(-0.384080129 0.626479123 -2.5434433e-25)
(-0.239988051 0.618619638 0)
(-0.0716423882 0.61034147 -4.26813621e-25)
(0.117053795 0.603853187 -3.01560449e-25)
(0.331499906 0.597750596 0)
(0.58825904 0.589239698 0)
(0.88103997 0.580152588 -4.19884154e-25)
(1.21499536 0.572660141 -4.79368906e-25)
(1.59483222 0.566768324 1.5388035e-25)
(2.02463005 0.562498325 0)
(2.50942022 0.560451842 5.21111589e-25)
(3.0543274 0.5611878 1.27016997e-24)
(3.66400025 0.565355293 6.8299634e-25)
(4.34262033 0.573623183 8.81457494e-26)
(5.09356384 0.586695356 -2.48874167e-27)
(5.91909128 0.605346942 0)
(6.82005941 0.630356533 -1.47284796e-24)
(7.79553544 0.662443555 -1.49443228e-25)
(8.84243861 0.702214612 1.95481295e-24)
(9.95525774 0.750106925 -1.06483811e-25)
(11.1258008 0.806422267 -2.80276832e-24)
(12.3436692 0.870441143 -5.84247083e-24)
(13.5945935 0.941603781 -2.1689807e-33)
(14.8605669 1.01927997 3.22930565e-24)
(16.1209385 1.10264567 0)
(17.3524784 1.19016449 0)
(18.5344177 1.2791279 9.52058308e-26)
(19.6461332 1.36261011 1.21300933e-25)
(20.6659934 1.44482538 0)
(21.5637157 1.52439773 9.00171554e-24)
(22.342177 1.59791948 8.71931027e-24)
(22.9808883 1.64213018 -9.32966366e-24)
(23.5100681 1.68773645 -2.5065371e-23)
(23.8518604 1.71012813 -1.1662036e-23)
(23.9350176 1.71334772 -7.5084407e-24)
(23.9452364 1.7296463 -7.34626195e-24)
(23.9264194 1.75116186 -7.75012005e-25)
(23.9254859 1.7051441 1.09866883e-23)
(23.9321609 1.68643069 7.34539728e-24)
(23.9414667 1.62826575 -1.086648e-23)
(23.9438201 1.62022851 -1.00408971e-23)
(23.9503662 1.57029311 -1.09906243e-23)
(23.9480054 1.5195377 -1.24649422e-23)
(23.9692774 1.4917937 -1.06394148e-23)
(23.9969988 1.4087804 8.44347677e-32)
(24.0470012 1.30965017 2.50501994e-23)
(24.0577888 1.2683379 2.32157308e-23)
(-0.0348508097 0.0203897137 1.7599391e-27)
(-0.101291873 0.0589175399 8.41161794e-28)
(-0.1659416 0.0960221615 3.85560719e-27)
(-0.229192939 0.131954567 -1.46903933e-33)
(-0.291265123 0.1668948 -1.92087975e-27)
(-0.35222961 0.200932937 -2.44584907e-27)
(-0.412023364 0.234084811 2.84779838e-27)
(-0.470473769 0.266312317 1.14427323e-27)
(-0.527323215 0.297540678 5.66098356e-27)
(-0.582255612 0.32766825 7.78312618e-27)
(-0.634899532 0.356571163 9.93745517e-27)
(-0.684819338 0.384125311 9.73387412e-27)
(-0.731602308 0.410209514 1.62517486e-26)
(-0.774806424 0.434748718 2.39203461e-26)
(-0.814001969 0.457617981 3.32260743e-27)
(-0.848705913 0.478757862 3.49222313e-27)
(-0.878410087 0.498138506 7.30442345e-26)
(-0.902647661 0.515669999 8.41754127e-26)
(-0.920848754 0.531331094 -8.06331742e-27)
(-0.93242992 0.545121462 -8.53305485e-27)
(-0.936800363 0.557077001 1.05765784e-25)
(-0.933282883 0.567198496 1.18427042e-25)
(-0.92113794 0.575508116 0)
(-0.899513333 0.582054818 1.03312294e-26)
(-0.867501139 0.586873841 0)
(-0.824074801 0.590036975 0)
(-0.76807825 0.591635497 1.18526278e-26)
(-0.698205945 0.591775257 -2.42609304e-25)
(-0.612946796 0.590575256 -2.21733017e-25)
(-0.510579022 0.588189535 2.15433524e-25)
(-0.389396085 0.584633741 2.49274863e-25)
(-0.247430234 0.579771229 2.90118276e-26)
(-0.0811961774 0.574480706 -2.99114101e-26)
(0.106238445 0.57053198 0)
(0.320245432 0.566990117 3.24422144e-26)
(0.57346422 0.561954281 0)
(0.862478603 0.556690651 0)
(1.19165208 0.553087866 3.74481155e-26)
(1.56524019 0.551350095 0)
(1.98705658 0.551647797 0)
(2.4617783 0.554579311 5.34968302e-25)
(2.9940865 0.560753663 6.73095418e-25)
(3.58830646 0.57086049 0)
(4.24840588 0.585630212 0)
(4.9777089 0.605840425 0)
(5.77854602 0.632321363 8.59819278e-26)
(6.65200416 0.665872503 8.0484854e-26)
(7.59757432 0.707220767 1.2431177e-24)
(8.61280601 0.756972632 1.55238323e-24)
(9.69299401 0.815562184 1.83443074e-24)
(10.8309011 0.883195263 2.17448801e-24)
(12.0166344 0.959815943 2.50836271e-24)
(13.2378871 1.04455809 2.78298167e-24)
(14.4792638 1.13623914 0)
(15.7219009 1.23354387 0)
(16.9452437 1.33455274 -3.22409104e-24)
(18.1268556 1.4366255 -6.8135468e-24)
(19.2443391 1.5376171 -3.63272351e-24)
(20.2740475 1.63420373 -3.83244183e-24)
(21.1984129 1.72471385 -3.73060636e-24)
(22.0019637 1.79833233 8.66880562e-24)
(22.6815947 1.85661893 1.81722067e-23)
(23.2197353 1.89891507 2.12867911e-25)
(23.624985 1.9292021 -1.07946866e-23)
(23.9087783 1.94697566 2.62571389e-25)
(23.9677302 1.94765801 -5.8062439e-25)
(23.9618691 1.97621593 1.0008004e-23)
(23.9395813 1.97841177 -4.41980802e-32)
(23.9318335 1.94044604 -1.22022495e-23)
(23.9415383 1.9093164 -4.64265492e-25)
(23.9466914 1.88438051 1.09004817e-23)
(23.9560523 1.86472584 1.01137585e-23)
(23.9630123 1.81809773 0)
(23.9631809 1.79608416 5.36579965e-25)
(23.9686488 1.76354163 0)
(23.9813439 1.70945109 1.26564585e-23)
(23.9872821 1.67415964 1.85747145e-23)
(23.9841188 1.65321323 8.74460084e-24)
(24.0368637 1.57438399 8.83751705e-24)
(24.0528019 1.47690948 2.412278e-23)
(-0.0377473656 0.0201393159 1.69892012e-27)
(-0.109309926 0.0579876964 5.13746538e-27)
(-0.178502378 0.094221744 -1.00809129e-27)
(-0.245718972 0.129087157 -2.65503335e-27)
(-0.311156955 0.162759102 -9.49537705e-28)
(-0.374846248 0.195323911 -2.68085492e-28)
(-0.436666642 0.226796048 -2.4943364e-27)
(-0.496375321 0.257137901 -8.03473397e-27)
(-0.553634589 0.286276006 -1.08667023e-26)
(-0.608035654 0.314116006 -1.43128174e-26)
(-0.659110974 0.340569652 0)
(-0.706365779 0.365514669 -6.46028985e-27)
(-0.749253078 0.388866351 3.40342428e-27)
(-0.787217816 0.410514937 0)
(-0.819635128 0.43041784 0)
(-0.845905879 0.44850517 0)
(-0.865388344 0.464749692 0)
(-0.877400568 0.479140487 -4.37417787e-27)
(-0.881209081 0.491681021 0)
(-0.876021303 0.502398528 -7.07354474e-26)
(-0.861011633 0.511324441 -7.80817685e-26)
(-0.835199041 0.518537854 1.40657111e-25)
(-0.797561327 0.524100304 1.67004611e-25)
(-0.746936211 0.528115153 -1.71766819e-25)
(-0.682028727 0.530696275 -2.12719405e-25)
(-0.60136907 0.531977386 -2.17601711e-25)
(-0.503319057 0.532123718 -2.15047753e-25)
(-0.386197681 0.531179566 -2.68692404e-25)
(-0.247996058 0.529135653 -5.8046829e-25)
(-0.0856736893 0.526789909 -3.42037217e-25)
(0.098749909 0.525471176 0)
(0.309753193 0.524555641 -3.22953352e-26)
(0.558520501 0.522776494 -3.43808242e-26)
(0.842019864 0.521234875 0)
(1.16455113 0.521513655 3.67634742e-26)
(1.5300468 0.523879105 0)
(1.94216144 0.528603795 0)
(2.40514397 0.536304767 5.55791383e-25)
(2.92328662 0.547636172 -4.24963177e-26)
(3.50063674 0.563337245 -6.21772535e-25)
(4.14094431 0.584188771 7.36455567e-25)
(4.84742386 0.610992823 7.73742434e-25)
(5.62243391 0.644587195 4.41724069e-26)
(6.46725736 0.685771247 0)
(7.38179048 0.735270033 1.06685156e-24)
(8.36422424 0.793691555 1.41257591e-24)
(9.41072884 0.861474156 0)
(10.5151618 0.938822837 0)
(11.6688376 1.02565885 -2.20216262e-24)
(12.8604262 1.12156852 -2.54994407e-24)
(14.0760095 1.225686 2.82027094e-24)
(15.2991952 1.33631425 2.95607217e-24)
(16.5107597 1.45167673 -3.0709756e-24)
(17.6899906 1.56967902 7.82915157e-33)
(18.8144557 1.68756793 3.38675252e-24)
(19.8632401 1.80223607 1.74588412e-26)
(20.8164138 1.90982789 0)
(21.6565974 2.00809317 1.40112014e-25)
(22.3688702 2.09383417 -3.80732356e-24)
(22.9490136 2.16726961 2.19187659e-25)
(23.3899871 2.21600847 4.13209811e-24)
(23.717802 2.24219591 0)
(23.9277365 2.26710125 2.89029058e-25)
(23.9912276 2.2536367 0)
(23.9886858 2.24357405 1.57986952e-25)
(23.9672316 2.21803841 -2.34902987e-25)
(23.9686724 2.18643431 -6.12377036e-25)
(23.9719546 2.14668871 -9.23422324e-24)
(23.9664664 2.15234373 -1.19518288e-23)
(23.9646283 2.12596648 -4.2739067e-25)
(23.9713336 2.08123747 -1.09719875e-23)
(23.9749653 2.0383617 -7.63622301e-24)
(23.9807881 1.98150115 -1.08992692e-23)
(23.976236 1.96807978 -9.7523644e-24)
(23.9739197 1.93104918 -1.39977465e-23)
(23.9825433 1.89132562 -9.82321609e-24)
(24.0070303 1.84333618 9.90781944e-24)
(24.0103849 1.80467833 1.03128393e-23)
(24.0458963 1.77165847 -1.35207275e-24)
(24.0452485 1.72582695 1.49795319e-24)
(-0.040546506 0.01963225 1.32975377e-27)
(-0.116881059 0.0563218178 -4.92741637e-27)
(-0.190084773 0.0912345683 -1.14859039e-27)
(-0.260527007 0.124605566 -1.18153275e-33)
(-0.328357351 0.156599158 1.27326162e-27)
(-0.393539363 0.187295096 -1.34369471e-27)
(-0.455872613 0.216706546 6.22811079e-27)
(-0.515019281 0.244807575 2.25895681e-33)
(-0.570534688 0.271522762 -2.27634878e-26)
(-0.621881684 0.296775447 -1.64247465e-26)
(-0.668466132 0.320462503 3.48827882e-27)
(-0.709617166 0.34251368 -2.7756562e-26)
(-0.744652052 0.362844331 -2.50235523e-26)
(-0.772844838 0.381398658 -3.40341344e-26)
(-0.793435473 0.398140343 -3.95988921e-26)
(-0.805627278 0.413054832 4.5668504e-26)
(-0.808571818 0.426155008 5.2047752e-26)
(-0.801376614 0.437458309 -4.89849282e-27)
(-0.783055288 0.447039688 0)
(-0.752547639 0.454960365 -6.83039092e-26)
(-0.708693646 0.461323657 -8.18785889e-26)
(-0.65020904 0.466253925 -1.19459444e-26)
(-0.575654569 0.469896445 9.88412297e-26)
(-0.483445646 0.472411848 1.18183683e-25)
(-0.371982761 0.473883573 -2.71745018e-26)
(-0.239274801 0.474471545 0)
(-0.0827277724 0.474940936 1.48211613e-26)
(0.0962960532 0.476097884 1.78063586e-28)
(0.303441678 0.477502338 -2.96785964e-25)
(0.545472505 0.478651451 -3.32844812e-25)
(0.821519627 0.480552894 3.8941179e-25)
(1.13552368 0.484366529 3.55998627e-25)
(1.49105779 0.490421687 -7.60067897e-26)
(1.89158144 0.499094417 -4.22747093e-25)
(2.34101113 0.511047218 -2.91561134e-32)
(2.84329671 0.526971407 5.46645246e-25)
(3.40220829 0.547622779 -6.43995007e-25)
(4.02127077 0.573797261 -6.630358e-25)
(4.70357585 0.606303497 -9.0325373e-26)
(5.45149115 0.645979016 4.58129207e-26)
(6.26646713 0.693623413 4.4421091e-26)
(7.14875383 0.749963234 -1.05522438e-24)
(8.09710382 0.815608683 -2.3836882e-24)
(9.10847245 0.891002834 -1.40326804e-24)
(10.1777344 0.976360525 -1.70261671e-24)
(11.2974438 1.07160263 -1.9002374e-24)
(12.4576714 1.17629785 0)
(13.6459402 1.28961178 2.52702547e-24)
(14.8473197 1.41037555 2.93900249e-24)
(16.0448644 1.53655554 3.12158209e-24)
(17.2191031 1.66611419 6.53625216e-24)
(18.3494097 1.79663946 6.795442e-24)
(19.414939 1.92482887 7.08091664e-24)
(20.396726 2.04785503 7.36095136e-24)
(21.2756724 2.16264413 3.79305758e-24)
(22.0374041 2.266858 -2.68530064e-25)
(22.6756737 2.35825658 0)
(23.1832374 2.42990471 -3.97559962e-24)
(23.5772665 2.49572906 -4.3357187e-24)
(23.814981 2.52986814 0)
(23.9496552 2.56898904 -6.1001783e-24)
(23.9741324 2.58135324 -5.48706367e-24)
(23.9731464 2.55440132 0)
(23.9834026 2.50132074 -3.33331131e-25)
(23.9864468 2.46090939 0)
(23.9907807 2.45981067 -9.04448777e-24)
(23.9937357 2.42176271 -6.93726508e-25)
(23.9938104 2.40992616 8.29759463e-24)
(23.9805577 2.35728415 -7.19995833e-25)
(23.9736278 2.30962075 -8.08690547e-25)
(23.9645933 2.27088757 -1.19533284e-23)
(23.9556549 2.26870017 -1.05515923e-23)
(23.9543925 2.2161049 -6.34299739e-25)
(23.9608833 2.16233219 -5.02562354e-25)
(23.9636222 2.11670771 -5.86145403e-26)
(23.9836665 2.05807819 -6.23939998e-25)
(23.9968334 1.98497789 1.3494761e-23)
(23.9983954 1.93809841 3.56612739e-23)
(24.0290176 1.91058831 9.80926203e-24)
(24.0569059 1.7962271 -1.46713353e-24)
(-0.0428885991 0.0187332271 0)
(-0.122894424 0.0535320952 -1.24298857e-27)
(-0.198780746 0.086440674 1.30980522e-27)
(-0.270862967 0.117684818 -4.2076955e-27)
(-0.339211792 0.147413577 1.45498348e-27)
(-0.403687544 0.175702032 1.53262382e-27)
(-0.463967855 0.202564382 -1.13908159e-26)
(-0.519581763 0.22796599 0)
(-0.569926992 0.251862064 3.5680534e-27)
(-0.61431756 0.27418222 -2.27194102e-26)
(-0.651989866 0.294862087 -2.34470155e-26)
(-0.682121424 0.313846545 3.24667471e-26)
(-0.703839561 0.331096512 4.37658756e-27)
(-0.716223015 0.346594609 -8.35234327e-26)
(-0.718294039 0.360354946 -1.00823905e-25)
(-0.709039521 0.372391806 -5.19421259e-26)
(-0.68732968 0.382797172 -5.31848063e-27)
(-0.65199189 0.391637384 -7.22714167e-26)
(-0.601738793 0.399041106 -7.47162318e-26)
(-0.535160684 0.405159113 6.07725532e-27)
(-0.450727376 0.410163593 -6.41279533e-27)
(-0.34683416 0.414168164 -2.67327693e-26)
(-0.221558775 0.417414765 -1.25489965e-25)
(-0.0729517275 0.420659414 -2.72549354e-25)
(0.0984150638 0.424247663 -1.32705707e-25)
(0.299838929 0.427930139 -1.60177712e-26)
(0.532936491 0.431841185 -1.30583722e-25)
(0.799537921 0.436942458 1.73786824e-26)
(1.10307506 0.443968307 -1.80691767e-26)
(1.44672949 0.453324107 -1.86599198e-25)
(1.83381353 0.465508589 0)
(2.26792731 0.481205151 -5.02511563e-25)
(2.75270352 0.501123479 -4.21179286e-26)
(3.29164966 0.526031101 6.17393842e-25)
(3.88808114 0.556733786 6.77239e-25)
(4.54496654 0.594045071 7.42128447e-25)
(5.26466659 0.638802892 -4.63303179e-26)
(6.04876197 0.691809517 0)