/*--------------------------------*- C++ -*----------------------------------*\
  =========                 |
  \\      /  F ield         | OpenFOAM: The Open Source CFD Toolbox
   \\    /   O peration     | Website:  https://openfoam.org
    \\  /    A nd           | Version:  8
     \\/     M anipulation  |
\*---------------------------------------------------------------------------*/
FoamFile
{
    version     2.0;
    format      ascii;
    class       volScalarField;
    location    "0.029";
    object      p;
}
// * * * * * * * * * * * * * * * * * * * * * * * * * * * * * * * * * * * * * //

dimensions      [1 -1 -2 0 0 0 0];

internalField   nonuniform List<scalar> 
42400
(
101348.659
101348.651
101348.642
101348.632
101348.623
101348.614
101348.604
101348.595
101348.585
101348.576
101348.566
101348.556
101348.547
101348.537
101348.527
101348.518
101348.508
101348.498
101348.489
101348.479
101348.469
101348.46
101348.45
101348.44
101348.43
101348.42
101348.41
101348.4
101348.39
101348.38
101348.371
101348.361
101348.351
101348.342
101348.333
101348.33
101348.334
101348.341
101348.341
101348.33
101348.317
101348.308
101348.31
101348.321
101348.336
101348.354
101348.376
101348.402
101348.428
101348.466
101348.522
101348.591
101348.648
101348.688
101348.749
101348.83
101348.917
101349.002
101349.088
101349.172
101349.253
101349.33
101349.408
101349.485
101349.55
101349.588
101349.609
101349.57
101349.489
101349.552
101349.483
101348.713
101349.194
101349.916
101349.125
101348.424
101348.935
101352.108
101356.881
101356.354
101348.402
101348.396
101348.389
101348.382
101348.375
101348.368
101348.361
101348.354
101348.348
101348.341
101348.334
101348.327
101348.32
101348.314
101348.308
101348.301
101348.295
101348.289
101348.283
101348.277
101348.272
101348.266
101348.261
101348.256
101348.251
101348.245
101348.24
101348.236
101348.231
101348.226
101348.221
101348.217
101348.215
101348.219
101348.225
101348.226
101348.217
101348.206
101348.2
101348.202
101348.208
101348.216
101348.225
101348.237
101348.251
101348.263
101348.288
101348.335
101348.386
101348.404
101348.418
101348.465
101348.527
101348.589
101348.656
101348.727
101348.803
101348.885
101348.978
101349.087
101349.21
101349.344
101349.487
101349.642
101349.815
101350.003
101350.229
101350.463
101350.629
101350.984
101351.55
101351.462
101351.831
101352.743
101352.97
101354.879
101358.949
101360.915
101362.338
101365.922
101348.126
101348.121
101348.116
101348.112
101348.107
101348.102
101348.097
101348.093
101348.088
101348.084
101348.079
101348.075
101348.071
101348.068
101348.064
101348.061
101348.058
101348.056
101348.054
101348.052
101348.05
101348.049
101348.048
101348.047
101348.047
101348.047
101348.047
101348.048
101348.049
101348.052
101348.058
101348.065
101348.068
101348.065
101348.06
101348.058
101348.062
101348.07
101348.078
101348.087
101348.097
101348.108
101348.116
101348.136
101348.173
101348.198
101348.206
101348.229
101348.269
101348.315
101348.36
101348.408
101348.462
101348.524
101348.594
101348.68
101348.785
101348.905
101349.041
101349.199
101349.387
101349.608
101349.867
101350.167
101350.52
101350.93
101351.416
101351.984
101352.561
101353.21
101354.244
101354.887
101355.613
101358.954
101361.143
101362.317
101364.603
101367.387
101370.354
101371.082
101347.835
101347.832
101347.828
101347.825
101347.821
101347.818
101347.815
101347.812
101347.809
101347.806
101347.804
101347.802
101347.801
101347.8
101347.799
101347.799
101347.8
101347.801
101347.802
101347.804
101347.807
101347.81
101347.814
101347.818
101347.822
101347.827
101347.834
101347.842
101347.849
101347.855
101347.861
101347.866
101347.874
101347.884
101347.896
101347.908
101347.921
101347.935
101347.948
101347.959
101347.979
101348.014
101348.036
101348.044
101348.066
101348.1
101348.136
101348.174
101348.215
101348.262
101348.316
101348.383
101348.466
101348.562
101348.673
101348.803
101348.958
101349.145
101349.371
101349.635
101349.947
101350.31
101350.744
101351.243
101351.825
101352.538
101353.371
101354.318
101355.117
101355.908
101357.689
101361.683
101363.688
101363.019
101363.945
101367.379
101369.155
101370.094
101372.035
101373.916
101347.528
101347.525
101347.521
101347.518
101347.515
101347.513
101347.511
101347.508
101347.506
101347.505
101347.504
101347.504
101347.505
101347.506
101347.508
101347.51
101347.514
101347.518
101347.523
101347.529
101347.534
101347.54
101347.548
101347.557
101347.569
101347.58
101347.593
101347.605
101347.619
101347.634
101347.65
101347.667
101347.684
101347.702
101347.72
101347.738
101347.754
101347.777
101347.814
101347.839
101347.85
101347.875
101347.91
101347.944
101347.979
101348.019
101348.064
101348.118
101348.183
101348.26
101348.349
101348.455
101348.583
101348.738
101348.926
101349.152
101349.421
101349.735
101350.104
101350.528
101351.025
101351.573
101352.23
101352.935
101353.691
101354.402
101355.234
101357
101359.899
101362.565
101364.037
101364.39
101365.268
101366.731
101368.628
101370.884
101372.98
101375.053
101377.14
101380.017
101347.19
101347.187
101347.183
101347.18
101347.177
101347.175
101347.173
101347.171
101347.17
101347.17
101347.17
101347.171
101347.173
101347.176
101347.181
101347.186
101347.191
101347.197
101347.205
101347.216
101347.228
101347.242
101347.257
101347.273
101347.289
101347.306
101347.324
101347.344
101347.364
101347.385
101347.408
101347.431
101347.454
101347.475
101347.503
101347.543
101347.571
101347.588
101347.617
101347.654
101347.69
101347.727
101347.769
101347.815
101347.868
101347.93
101348.001
101348.085
101348.185
101348.307
101348.456
101348.637
101348.857
101349.123
101349.44
101349.813
101350.252
101350.758
101351.345
101351.998
101352.76
101353.548
101354.479
101355.361
101356.624
101359.012
101361.568
101363.114
101363.846
101364.959
101366.476
101367.876
101369.604
101372.071
101374.31
101376.188
101377.825
101379.618
101381.759
101383.72
101346.807
101346.803
101346.799
101346.795
101346.793
101346.79
101346.789
101346.788
101346.788
101346.788
101346.79
101346.792
101346.796
101346.8
101346.806
101346.814
101346.824
101346.836
101346.849
101346.863
101346.879
101346.896
101346.914
101346.934
101346.956
101346.978
101347.003
101347.028
101347.055
101347.082
101347.108
101347.14
101347.182
101347.214
101347.237
101347.271
101347.312
101347.351
101347.392
101347.436
101347.483
101347.536
101347.595
101347.662
101347.741
101347.835
101347.947
101348.083
101348.248
101348.448
101348.692
101348.988
101349.343
101349.765
101350.263
101350.845
101351.518
101352.284
101353.155
101354.114
101355.195
101356.397
101357.869
101360.295
101361.932
101362.546
101363.573
101365.127
101366.971
101368.817
101370.38
101372.393
101374.436
101375.851
101377.54
101379.685
101381.261
101382.941
101384.983
101386.871
101346.348
101346.344
101346.339
101346.336
101346.333
101346.331
101346.33
101346.33
101346.332
101346.334
101346.337
101346.343
101346.35
101346.359
101346.369
101346.38
101346.393
101346.408
101346.425
101346.443
101346.463
101346.485
101346.509
101346.534
101346.562
101346.591
101346.621
101346.65
101346.684
101346.728
101346.766
101346.794
101346.831
101346.876
101346.92
101346.965
101347.012
101347.063
101347.118
101347.178
101347.246
101347.323
101347.412
101347.516
101347.639
101347.787
101347.965
101348.179
101348.439
101348.752
101349.128
101349.575
101350.101
101350.718
101351.434
101352.256
101353.186
101354.24
101355.403
101356.718
101358.039
101359.763
101361.127
101362.093
101363.812
101365.732
101367.292
101368.68
101370.186
101371.809
101373.363
101374.959
101376.921
101378.86
101380.5
101382.239
101384.29
101386.199
101388.147
101390.243
101345.795
101345.791
101345.788
101345.785
101345.784
101345.783
101345.784
101345.786
101345.79
101345.795
101345.802
101345.811
101345.821
101345.833
101345.846
101345.862
101345.88
101345.9
101345.922
101345.946
101345.972
101346
101346.03
101346.062
101346.094
101346.131
101346.177
101346.219
101346.253
101346.294
101346.343
101346.392
101346.442
101346.495
101346.552
101346.612
101346.678
101346.75
101346.83
101346.919
101347.022
101347.141
101347.28
101347.444
101347.639
101347.87
101348.147
101348.476
101348.867
101349.327
101349.862
101350.481
101351.193
101352.006
101352.919
101353.939
101355.05
101356.273
101357.562
101358.874
101360.401
101361.849
101363.451
101365.059
101366.555
101368.174
101369.714
101371.187
101372.639
101374.256
101376.211
101378.372
101380.415
101382.423
101384.411
101386.381
101388.434
101390.649
101392.789
101394.735
101345.119
101345.117
101345.115
101345.115
101345.116
101345.119
101345.123
101345.129
101345.137
101345.146
101345.157
101345.17
101345.185
101345.203
101345.223
101345.245
101345.269
101345.296
101345.325
101345.357
101345.391
101345.426
101345.466
101345.513
101345.558
101345.598
101345.645
101345.699
101345.754
101345.81
101345.87
101345.934
101346.001
101346.074
101346.153
101346.24
101346.336
101346.443
101346.565
101346.705
101346.867
101347.055
101347.276
101347.534
101347.838
101348.194
101348.61
101349.094
101349.65
101350.283
101351
101351.807
101352.708
101353.712
101354.833
101356.042
101357.355
101358.719
101360.2
101361.579
101362.846
101364.315
101366.069
101367.89
101369.777
101371.759
101373.835
101376.12
101378.511
101380.59
101382.44
101383.937
101385.377
101387.039
101388.962
101390.697
101392.468
101394.971
101397.373
101399.495
101344.293
101344.294
101344.296
101344.3
101344.305
101344.312
101344.321
101344.332
101344.345
101344.36
101344.377
101344.397
101344.42
101344.445
101344.473
101344.504
101344.537
101344.573
101344.611
101344.654
101344.703
101344.751
101344.797
101344.85
101344.909
101344.97
101345.032
101345.099
101345.17
101345.245
101345.325
101345.412
101345.506
101345.609
101345.723
101345.85
101345.994
101346.158
101346.346
101346.563
101346.816
101347.109
101347.45
101347.845
101348.303
101348.828
101349.427
101350.104
101350.861
101351.695
101352.601
101353.56
101354.547
101355.518
101356.701
101358.308
101360.128
101361.992
101363.719
101365.524
101367.477
101369.595
101371.509
101373.384
101375.23
101376.584
101377.84
101379.34
101381.015
101382.763
101384.283
101386.071
101388.635
101390.863
101392.494
101393.843
101395.634
101398.151
101400.579
101402.511
101343.28
101343.285
101343.293
101343.302
101343.313
101343.326
101343.341
101343.359
101343.38
101343.403
101343.429
101343.458
101343.49
101343.526
101343.564
101343.605
101343.65
101343.702
101343.753
101343.805
101343.863
101343.926
101343.992
101344.061
101344.133
101344.21
101344.292
101344.378
101344.471
101344.571
101344.679
101344.797
101344.927
101345.072
101345.235
101345.419
101345.63
101345.873
101346.153
101346.476
101346.85
101347.282
101347.779
101348.349
101348.999
101349.735
101350.566
101351.499
101352.54
101353.692
101354.966
101356.372
101357.89
101359.535
101361.048
101362.435
101363.871
101365.339
101367.041
101368.83
101370.486
101372.135
101373.842
101375.53
101377.064
101378.583
101380.298
101382.255
101384.034
101385.98
101388.356
101390.355
101391.814
101393.138
101395.304
101398.403
101401.04
101402.313
101403.913
101406.067
101342.036
101342.047
101342.061
101342.077
101342.095
101342.117
101342.141
101342.168
101342.198
101342.232
101342.268
101342.309
101342.352
101342.4
101342.453
101342.508
101342.564
101342.627
101342.694
101342.764
101342.838
101342.916
101342.999
101343.086
101343.178
101343.275
101343.38
101343.491
101343.612
101343.744
101343.888
101344.048
101344.227
101344.428
101344.657
101344.918
101345.217
101345.56
101345.955
101346.408
101346.926
101347.518
101348.189
101348.947
101349.795
101350.74
101351.783
101352.923
101354.158
101355.476
101356.862
101358.324
101359.841
101361.417
101363.14
101364.691
101366.072
101367.424
101369.014
101370.76
101372.279
101373.875
101375.685
101377.416
101379.241
101381.492
101383.742
101386.102
101387.977
101389.635
101391.451
101393.119
101394.855
101397.508
101399.729
101401.391
101403.15
101404.922
101406.647
101408.831
101340.51
101340.529
101340.552
101340.577
101340.605
101340.637
101340.672
101340.71
101340.752
101340.798
101340.848
101340.903
101340.961
101341.021
101341.087
101341.158
101341.233
101341.312
101341.395
101341.482
101341.575
101341.673
101341.776
101341.885
101342.002
101342.126
101342.26
101342.406
101342.565
101342.74
101342.934
101343.151
101343.396
101343.674
101343.989
101344.348
101344.757
101345.222
101345.749
101346.346
101347.017
101347.767
101348.601
101349.52
101350.525
101351.618
101352.798
101354.057
101355.419
101356.87
101358.374
101359.914
101361.4
101362.843
101364.382
101365.94
101367.419
101369.238
101371.404
101373.308
101375.247
101377.226
101379.508
101381.233
101382.961
101384.847
101386.402
101388.115
101390.064
101392.248
101394.301
101396.308
101398.416
101400.54
101402.308
101404.108
101406.467
101408.398
101410.078
101412.782
101338.652
101338.68
101338.714
101338.751
101338.791
101338.835
101338.882
101338.935
101338.991
101339.051
101339.116
101339.185
101339.259
101339.338
101339.421
101339.509
101339.602
101339.701
101339.804
101339.914
101340.029
101340.152
101340.283
101340.422
101340.572
101340.735
101340.912
101341.107
101341.323
101341.563
101341.833
101342.136
101342.479
101342.867
101343.306
101343.801
101344.36
101344.986
101345.684
101346.458
101347.309
101348.237
101349.238
101350.306
101351.419
101352.58
101353.771
101355.031
101356.576
101358.427
101360.362
101362.333
101364.323
101366.301
101368.343
101370.434
101372.785
101374.721
101375.967
101377.45
101378.895
101380.317
101381.634
101383.187
101384.941
101386.682
101389.277
101391.298
101393.135
101394.983
101397.023
101399.319
101401.513
101403.734
101406.1
101407.995
101409.786
101412.172
101415.2
101418.36
101336.416
101336.456
101336.503
101336.554
101336.607
101336.666
101336.728
101336.795
101336.867
101336.944
101337.026
101337.113
101337.205
101337.302
101337.405
101337.514
101337.629
101337.75
101337.878
101338.014
101338.16
101338.315
101338.483
101338.664
101338.862
101339.08
101339.32
101339.587
101339.887
101340.222
101340.601
101341.027
101341.508
101342.049
101342.657
101343.337
101344.094
101344.931
101345.85
101346.854
101347.942
101349.113
101350.364
101351.685
101353.049
101354.607
101356.718
101359.169
101361.024
101362.557
101364.217
101365.987
101367.516
101368.84
101370.442
101372.105
101373.634
101375.128
101376.781
101378.425
101379.841
101381.671
101384.09
101386.264
101388.413
101390.506
101391.774
101393.729
101396.536
101398.829
101401.117
101403.68
101405.715
101407.276
101409.294
101411.94
101413.466
101414.746
101416.967
101418.585
101333.763
101333.816
101333.879
101333.945
101334.014
101334.088
101334.167
101334.25
101334.339
101334.433
101334.533
101334.638
101334.749
101334.867
101334.991
101335.122
101335.26
101335.408
101335.565
101335.734
101335.915
101336.112
101336.327
101336.563
101336.824
101337.115
101337.439
101337.802
101338.211
101338.671
101339.189
101339.771
101340.424
101341.152
101341.963
101342.859
101343.844
101344.92
101346.087
101347.346
101348.695
101350.132
101351.654
101353.246
101354.903
101356.514
101358.099
101359.838
101361.631
101363.135
101364.406
101365.631
101367.214
101369.644
101371.63
101373.359
101375.187
101377.074
101379.082
101381.099
101382.997
101385.216
101387.677
101389.587
101391.45
101393.805
101396.309
101398.681
101400.522
101402.232
101404.174
101406.074
101408.386
101411.054
101413.441
101415.308
101416.688
101418.418
101420.518
101422.567
101330.683
101330.752
101330.832
101330.913
101330.998
101331.088
101331.183
101331.283
101331.389
101331.5
101331.617
101331.74
101331.869
101332.006
101332.151
101332.305
101332.469
101332.645
101332.835
101333.04
101333.264
101333.51
101333.782
101334.084
101334.421
101334.798
101335.221
101335.697
101336.231
101336.83
101337.5
101338.246
101339.074
101339.988
101340.99
101342.082
101343.264
101344.536
101345.895
101347.337
101348.855
101350.442
101352.079
101353.779
101355.584
101357.551
101359.162
101360.485
101362.046
101363.89
101365.742
101367.713
101369.454
101370.919
101372.798
101375.168
101377.379
101379.496
101381.488
101383.519
101385.339
101387.403
101390.132
101393.131
101395.251
101396.845
101398.657
101400.914
101403.663
101406.014
101407.77
101409.587
101411.733
101414.331
101416.879
101418.924
101421.207
101423.273
101424.638
101425.576
101327.227
101327.311
101327.408
101327.506
101327.608
101327.714
101327.825
101327.941
101328.063
101328.191
101328.326
101328.467
101328.617
101328.776
101328.945
101329.127
101329.322
101329.534
101329.765
101330.019
101330.299
101330.61
101330.956
101331.344
101331.778
101332.265
101332.811
101333.42
101334.1
101334.855
101335.689
101336.606
101337.607
101338.693
101339.865
101341.12
101342.457
101343.874
101345.373
101346.95
101348.631
101350.422
101352.219
101353.89
101355.665
101357.609
101359.599
101361.484
101363.254
101365.002
101366.666
101369.061
101372.145
101374.922
101376.998
101378.783
101380.669
101382.693
101384.809
101386.97
101389.174
101391.651
101394.294
101395.799
101397.397
101400.837
101403.042
101404.378
101405.987
101407.964
101410.387
101412.594
101414.772
101417.093
101419.313
101421.275
101423.663
101425.919
101427.438
101429.487
101323.514
101323.614
101323.729
101323.845
101323.962
101324.085
101324.213
101324.347
101324.487
101324.634
101324.79
101324.955
101325.132
101325.321
101325.525
101325.747
101325.989
101326.256
101326.552
101326.881
101327.248
101327.659
101328.12
101328.638
101329.218
101329.866
101330.588
101331.389
101332.274
101333.243
101334.3
101335.441
101336.665
101337.965
101339.333
101340.757
101342.214
101343.685
101345.153
101346.583
101348.463
101350.965
101353.496
101355.963
101358.262
101360.513
101362.837
101365.227
101367.676
101370.21
101373.01
101374.879
101375.863
101376.591
101378.107
101380.761
101383.359
101385.846
101388.376
101390.779
101393.455
101395.492
101396.523
101398.777
101401.612
101402.733
101404.577
101407.858
101409.86
101411.442
101413.552
101416.064
101418.489
101420.882
101423.515
101425.376
101426.833
101428.498
101430.127
101432.134
101390.976
101390.977
101390.979
101390.982
101390.986
101390.991
101390.997
101391.005
101391.013
101391.023
101391.034
101391.046
101391.059
101391.074
101391.09
101391.107
101391.126
101391.146
101391.168
101391.192
101391.217
101391.244
101391.272
101391.303
101391.335
101391.37
101391.407
101391.446
101391.487
101391.531
101391.578
101391.628
101391.681
101391.738
101391.798
101391.861
101391.929
101392.002
101392.079
101392.162
101392.25
101392.343
101392.444
101392.551
101392.666
101392.789
101392.92
101393.061
101393.211
101393.371
101393.542
101393.724
101393.917
101394.121
101394.337
101394.564
101394.799
101395.035
101395.258
101395.447
101395.59
101395.679
101395.72
101395.739
101395.736
101395.67
101395.527
101395.222
101394.812
101394.296
101393.629
101392.788
101391.796
101390.642
101389.293
101387.764
101386.075
101384.221
101381.717
101380.142
101387.068
101387.069
101387.071
101387.072
101387.075
101387.078
101387.083
101387.087
101387.093
101387.099
101387.106
101387.114
101387.123
101387.132
101387.143
101387.154
101387.166
101387.179
101387.194
101387.209
101387.225
101387.242
101387.261
101387.28
101387.301
101387.324
101387.347
101387.373
101387.4
101387.428
101387.459
101387.491
101387.526
101387.563
101387.602
101387.645
101387.69
101387.739
101387.791
101387.847
101387.907
101387.971
101388.04
101388.114
101388.194
101388.279
101388.371
101388.469
101388.574
101388.686
101388.805
101388.93
101389.062
101389.198
101389.337
101389.475
101389.615
101389.754
101389.887
101390.005
101390.095
101390.142
101390.135
101390.031
101389.834
101389.562
101389.212
101388.765
101388.143
101387.296
101386.22
101384.873
101383.228
101381.34
101379.306
101377.141
101374.658
101371.587
101368.983
101367.152
101383.075
101383.075
101383.076
101383.077
101383.078
101383.08
101383.082
101383.084
101383.086
101383.088
101383.091
101383.094
101383.098
101383.101
101383.105
101383.109
101383.114
101383.119
101383.124
101383.129
101383.135
101383.141
101383.147
101383.154
101383.161
101383.169
101383.177
101383.186
101383.195
101383.205
101383.216
101383.228
101383.24
101383.253
101383.268
101383.284
101383.301
101383.32
101383.34
101383.363
101383.387
101383.414
101383.444
101383.477
101383.512
101383.551
101383.593
101383.639
101383.688
101383.74
101383.795
101383.853
101383.913
101383.973
101384.031
101384.084
101384.128
101384.159
101384.169
101384.151
101384.093
101383.988
101383.823
101383.588
101383.237
101382.754
101382.112
101381.275
101380.206
101378.871
101377.189
101375.175
101372.906
101370.485
101367.894
101364.868
101361.46
101358.082
101355.059
101351.669
101379.059
101379.06
101379.06
101379.06
101379.06
101379.06
101379.059
101379.058
101379.057
101379.055
101379.053
101379.051
101379.049
101379.046
101379.042
101379.039
101379.035
101379.03
101379.025
101379.02
101379.014
101379.008
101379.001
101378.993
101378.985
101378.977
101378.967
101378.958
101378.947
101378.937
101378.925
101378.913
101378.901
101378.888
101378.874
101378.86
101378.845
101378.83
101378.815
101378.8
101378.784
101378.769
101378.753
101378.738
101378.723
101378.709
101378.694
101378.679
101378.664
101378.647
101378.629
101378.609
101378.584
101378.553
101378.513
101378.46
101378.389
101378.293
101378.16
101377.976
101377.724
101377.383
101376.937
101376.365
101375.641
101374.731
101373.594
101372.185
101370.473
101368.441
101366.103
101363.548
101360.853
101357.993
101354.81
101351.124
101347.075
101343.05
101338.558
101332.06
101375.089
101375.089
101375.089
101375.089
101375.087
101375.085
101375.082
101375.078
101375.073
101375.067
101375.061
101375.053
101375.045
101375.035
101375.025
101375.013
101375
101374.986
101374.971
101374.954
101374.937
101374.917
101374.896
101374.874
101374.85
101374.824
101374.797
101374.768
101374.737
101374.704
101374.669
101374.632
101374.593
101374.551
101374.507
101374.461
101374.413
101374.362
101374.309
101374.253
101374.194
101374.132
101374.068
101374
101373.928
101373.853
101373.773
101373.688
101373.598
101373.501
101373.395
101373.279
101373.15
101373.006
101372.84
101372.648
101372.419
101372.142
101371.801
101371.378
101370.852
101370.199
101369.398
101368.426
101367.257
101365.857
101364.19
101362.22
101359.928
101357.306
101354.397
101351.24
101347.83
101344.079
101339.801
101334.812
101328.828
101322.128
101315.598
101305.758
101371.236
101371.237
101371.237
101371.236
101371.233
101371.229
101371.224
101371.217
101371.209
101371.2
101371.189
101371.176
101371.162
101371.146
101371.128
101371.108
101371.087
101371.063
101371.038
101371.01
101370.981
101370.948
101370.914
101370.877
101370.837
101370.794
101370.749
101370.701
101370.649
101370.594
101370.536
101370.473
101370.408
101370.338
101370.264
101370.186
101370.103
101370.016
101369.923
101369.826
101369.722
101369.613
101369.497
101369.375
101369.245
101369.106
101368.959
101368.801
101368.632
101368.45
101368.252
101368.036
101367.799
101367.535
101367.238
101366.897
101366.5
101366.033
101365.479
101364.821
101364.037
101363.104
101361.996
101360.685
101359.136
101357.312
101355.171
101352.679
101349.804
101346.527
101342.867
101338.819
101334.303
101329.137
101322.722
101315.169
101307.788
101300.272
101292.917
101284.393
101367.573
101367.575
101367.575
101367.573
101367.57
101367.565
101367.558
101367.549
101367.538
101367.524
101367.509
101367.492
101367.472
101367.45
101367.426
101367.399
101367.37
101367.338
101367.303
101367.265
101367.225
101367.181
101367.133
101367.082
101367.028
101366.97
101366.907
101366.841
101366.77
101366.695
101366.615
101366.529
101366.438
101366.342
101366.24
101366.132
101366.017
101365.895
101365.766
101365.629
101365.484
101365.33
101365.166
101364.992
101364.807
101364.609
101364.398
101364.172
101363.928
101363.666
101363.381
101363.071
101362.731
101362.352
101361.926
101361.441
101360.886
101360.247
101359.505
101358.642
101357.634
101356.456
101355.085
101353.492
101351.644
101349.496
101346.981
101344.017
101340.646
101336.931
101332.746
101327.949
101322.247
101315.47
101309.401
101302.073
101293.316
101285.744
101274.217
101259.69
101364.168
101364.17
101364.171
101364.169
101364.165
101364.159
101364.15
101364.139
101364.125
101364.109
101364.091
101364.07
101364.045
101364.019
101363.989
101363.956
101363.92
101363.88
101363.837
101363.791
101363.741
101363.687
101363.628
101363.566
101363.499
101363.427
101363.351
101363.269
101363.182
101363.089
101362.99
101362.885
101362.773
101362.655
101362.529
101362.396
101362.255
101362.105
101361.945
101361.777
101361.598
101361.407
101361.205
101360.991
101360.762
101360.518
101360.257
101359.976
101359.675
101359.349
101358.996
101358.61
101358.184
101357.71
101357.179
101356.58
101355.903
101355.133
101354.252
101353.241
101352.075
101350.725
101349.159
101347.344
101345.216
101342.698
101339.78
101336.947
101334.061
101330.092
101324.966
101320.244
101315.908
101310.873
101304.115
101293.606
101280.171
101265.811
101253.735
101244.405
101361.08
101361.083
101361.084
101361.082
101361.078
101361.071
101361.061
101361.049
101361.034
101361.015
101360.994
101360.97
101360.942
101360.911
101360.877
101360.84
101360.798
101360.753
101360.704
101360.651
101360.593
101360.531
101360.465
101360.393
101360.316
101360.234
101360.147
101360.053
101359.953
101359.847
101359.733
101359.613
101359.485
101359.35
101359.206
101359.053
101358.891
101358.719
101358.537
101358.344
101358.14
101357.923
101357.692
101357.448
101357.189
101356.914
101356.621
101356.308
101355.974
101355.615
101355.228
101354.806
101354.343
101353.831
101353.262
101352.623
101351.902
101351.082
101350.142
101349.058
101347.803
101346.358
101344.687
101342.796
101340.981
101339.287
101337.115
101333.806
101329.447
101325.267
101321.959
101317.604
101310.565
101302.071
101292.543
101282.64
101272.002
101260.605
101248.699
101239.457
101358.355
101358.358
101358.359
101358.357
101358.353
101358.345
101358.335
101358.321
101358.305
101358.285
101358.262
101358.235
101358.206
101358.172
101358.135
101358.094
101358.05
101358.001
101357.947
101357.89
101357.827
101357.76
101357.688
101357.611
101357.528
101357.439
101357.345
101357.244
101357.136
101357.022
101356.9
101356.771
101356.634
101356.489
101356.335
101356.172
101355.998
101355.813
101355.618
101355.412
101355.193
101354.961
101354.716
101354.455
101354.179
101353.886
101353.574
101353.241
101352.88
101352.487
101352.061
101351.599
101351.096
101350.547
101349.948
101349.295
101348.582
101347.804
101346.954
101346.033
101344.994
101343.782
101342.406
101340.838
101338.78
101336.054
101333.257
101330.349
101327.037
101323.38
101318.646
101313.224
101307.705
101301.261
101292.782
101283.6
101274.259
101264.058
101255.463
101246.984
101356.024
101356.026
101356.027
101356.026
101356.021
101356.013
101356.002
101355.988
101355.97
101355.949
101355.925
101355.898
101355.867
101355.832
101355.793
101355.751
101355.704
101355.653
101355.598
101355.538
101355.474
101355.405
101355.33
101355.25
101355.165
101355.074
101354.977
101354.873
101354.763
101354.646
101354.522
101354.39
101354.25
101354.102
101353.945
101353.779
101353.603
101353.416
101353.219
101353.011
101352.792
101352.56
101352.317
101352.061
101351.791
101351.506
101351.206
101350.89
101350.554
101350.196
101349.815
101349.405
101348.958
101348.468
101347.928
101347.326
101346.651
101345.886
101345.01
101343.994
101342.887
101341.698
101340.356
101338.821
101337.027
101334.956
101332.621
101330.015
101327.078
101323.738
101319.853
101315.456
101310.582
101305.052
101298.778
101291.843
101283.589
101274.625
101265.098
101256.099
101354.095
101354.097
101354.098
101354.095
101354.09
101354.081
101354.07
101354.055
101354.038
101354.017
101353.992
101353.964
101353.933
101353.898
101353.859
101353.817
101353.77
101353.719
101353.664
101353.605
101353.541
101353.472
101353.398
101353.319
101353.235
101353.145
101353.049
101352.947
101352.839
101352.725
101352.603
101352.474
101352.338
101352.194
101352.042
101351.882
101351.712
101351.533
101351.343
101351.143
101350.93
101350.708
101350.478
101350.236
101349.982
101349.715
101349.433
101349.135
101348.819
101348.486
101348.133
101347.757
101347.355
101346.922
101346.454
101345.946
101345.389
101344.776
101344.097
101343.338
101342.485
101341.528
101340.445
101339.208
101337.789
101336.164
101334.308
101332.197
101329.783
101327.012
101323.822
101320.168
101316.004
101311.264
101305.814
101299.59
101292.462
101284.802
101276.687
101268.677
101352.566
101352.567
101352.566
101352.563
101352.556
101352.547
101352.535
101352.52
101352.502
101352.481
101352.457
101352.429
101352.398
101352.364
101352.326
101352.285
101352.24
101352.191
101352.138
101352.081
101352.02
101351.954
101351.883
101351.808
101351.728
101351.642
101351.551
101351.455
101351.353
101351.245
101351.13
101351.009
101350.882
101350.749
101350.608
101350.461
101350.307
101350.146
101349.978
101349.799
101349.611
101349.411
101349.198
101348.981
101348.761
101348.532
101348.294
101348.045
101347.787
101347.518
101347.238
101346.946
101346.64
101346.316
101345.972
101345.601
101345.2
101344.76
101344.276
101343.735
101343.128
101342.44
101341.654
101340.752
101339.71
101338.504
101337.109
101335.499
101333.638
101331.483
101328.985
101326.092
101322.739
101318.85
101314.375
101309.237
101303.528
101296.914
101289.72
101282.589
101351.404
101351.403
101351.4
101351.395
101351.387
101351.377
101351.364
101351.349
101351.331
101351.31
101351.286
101351.26
101351.23
101351.198
101351.162
101351.123
101351.081
101351.035
101350.986
101350.933
101350.876
101350.816
101350.751
101350.682
101350.609
101350.532
101350.449
101350.362
101350.27
101350.174
101350.072
101349.965
101349.852
101349.734
101349.611
101349.482
101349.347
101349.207
101349.063
101348.915
101348.765
101348.612
101348.45
101348.271
101348.081
101347.881
101347.685
101347.497
101347.305
101347.11
101346.91
101346.705
101346.497
101346.283
101346.062