/*--------------------------------*- C++ -*----------------------------------*\
  =========                 |
  \\      /  F ield         | OpenFOAM: The Open Source CFD Toolbox
   \\    /   O peration     | Website:  https://openfoam.org
    \\  /    A nd           | Version:  8
     \\/     M anipulation  |
\*---------------------------------------------------------------------------*/
FoamFile
{
    version     2.0;
    format      ascii;
    class       volScalarField;
    location    "0.029";
    object      p_rgh;
}
// * * * * * * * * * * * * * * * * * * * * * * * * * * * * * * * * * * * * * //

dimensions      [1 -1 -2 0 0 0 0];

internalField   nonuniform List<scalar> 
42400
(
101348.046
101348.037
101348.028
101348.019
101348.01
101348
101347.991
101347.981
101347.972
101347.962
101347.953
101347.943
101347.934
101347.924
101347.914
101347.905
101347.895
101347.885
101347.876
101347.866
101347.857
101347.847
101347.837
101347.827
101347.817
101347.808
101347.798
101347.788
101347.778
101347.768
101347.758
101347.748
101347.738
101347.729
101347.72
101347.716
101347.72
101347.727
101347.726
101347.715
101347.702
101347.693
101347.694
101347.705
101347.719
101347.737
101347.758
101347.783
101347.809
101347.846
101347.901
101347.969
101348.025
101348.064
101348.124
101348.203
101348.29
101348.374
101348.458
101348.541
101348.62
101348.695
101348.771
101348.846
101348.907
101348.942
101348.955
101348.907
101348.834
101348.872
101348.718
101348.024
101348.585
101348.977
101348.016
101347.339
101347.972
101350.91
101355.206
101355.461
101347.772
101347.766
101347.758
101347.752
101347.745
101347.738
101347.731
101347.724
101347.717
101347.71
101347.704
101347.697
101347.69
101347.684
101347.678
101347.671
101347.665
101347.659
101347.653
101347.648
101347.642
101347.637
101347.631
101347.626
101347.621
101347.616
101347.611
101347.606
101347.601
101347.597
101347.592
101347.587
101347.586
101347.589
101347.595
101347.596
101347.587
101347.575
101347.569
101347.571
101347.577
101347.584
101347.593
101347.605
101347.618
101347.629
101347.654
101347.701
101347.751
101347.768
101347.781
101347.827
101347.888
101347.949
101348.015
101348.085
101348.16
101348.241
101348.333
101348.441
101348.563
101348.697
101348.839
101348.993
101349.165
101349.352
101349.577
101349.799
101349.979
101350.356
101350.839
101350.751
101351.232
101351.998
101352.169
101354.428
101358.078
101359.705
101361.532
101364.859
101347.482
101347.477
101347.472
101347.467
101347.463
101347.458
101347.453
101347.448
101347.444
101347.44
101347.435
101347.431
101347.427
101347.424
101347.421
101347.418
101347.415
101347.412
101347.41
101347.408
101347.407
101347.406
101347.405
101347.404
101347.404
101347.404
101347.404
101347.404
101347.406
101347.409
101347.414
101347.421
101347.424
101347.421
101347.417
101347.414
101347.418
101347.425
101347.433
101347.442
101347.452
101347.462
101347.47
101347.49
101347.526
101347.55
101347.558
101347.58
101347.618
101347.664
101347.707
101347.755
101347.808
101347.868
101347.936
101348.022
101348.125
101348.244
101348.379
101348.536
101348.723
101348.943
101349.201
101349.5
101349.853
101350.261
101350.749
101351.307
101351.888
101352.579
101353.608
101354.234
101355.109
101358.42
101360.474
101361.29
101363.207
101366.06
101368.744
101369.642
101347.18
101347.177
101347.173
101347.17
101347.167
101347.163
101347.16
101347.157
101347.154
101347.152
101347.15
101347.148
101347.146
101347.145
101347.145
101347.145
101347.145
101347.146
101347.148
101347.15
101347.153
101347.156
101347.16
101347.164
101347.168
101347.173
101347.18
101347.188
101347.195
101347.201
101347.206
101347.212
101347.219
101347.23
101347.241
101347.253
101347.266
101347.279
101347.292
101347.302
101347.322
101347.357
101347.379
101347.385
101347.407
101347.44
101347.475
101347.512
101347.552
101347.598
101347.65
101347.715
101347.796
101347.89
101348
101348.127
101348.279
101348.465
101348.689
101348.952
101349.262
101349.625
101350.057
101350.553
101351.134
101351.84
101352.66
101353.601
101354.414
101355.237
101357.032
101360.865
101362.656
101362.213
101363.425
101366.408
101368.079
101369.053
101371.003
101372.768
101346.864
101346.861
101346.858
101346.855
101346.852
101346.85
101346.847
101346.845
101346.843
101346.842
101346.841
101346.841
101346.842
101346.843
101346.845
101346.848
101346.851
101346.856
101346.861
101346.866
101346.871
101346.878
101346.885
101346.895
101346.906
101346.918
101346.93
101346.943
101346.957
101346.972
101346.988
101347.004
101347.021
101347.039
101347.057
101347.075
101347.09
101347.113
101347.15
101347.174
101347.185
101347.209
101347.243
101347.277
101347.311
101347.35
101347.394
101347.446
101347.51
101347.585
101347.673
101347.776
101347.901
101348.053
101348.238
101348.46
101348.725
101349.036
101349.401
101349.821
101350.315
101350.864
101351.524
101352.232
101353.008
101353.77
101354.563
101356.201
101359.047
101361.751
101363.205
101363.509
101364.413
101365.954
101367.872
101370.052
101371.991
101373.936
101376.172
101379.004
101346.521
101346.518
101346.514
101346.511
101346.508
101346.506
101346.504
101346.503
101346.502
101346.501
101346.501
101346.502
101346.505
101346.508
101346.512
101346.517
101346.523
101346.529
101346.537
101346.547
101346.56
101346.574
101346.588
101346.604
101346.62
101346.637
101346.656
101346.675
101346.695
101346.717
101346.739
101346.762
101346.785
101346.806
101346.834
101346.873
101346.902
101346.918
101346.946
101346.984
101347.019
101347.056
101347.097
101347.143
101347.195
101347.256
101347.326
101347.408
101347.507
101347.628
101347.775
101347.954
101348.171
101348.432
101348.745
101349.113
101349.544
101350.042
101350.619
101351.259
101352.006
101352.781
101353.703
101354.558
101355.758
101358.099
101360.766
101362.387
101363.046
101363.958
101365.416
101366.927
101368.688
101371.004
101373.321
101375.314
101377.12
101379.084
101381.216
101383.175
101346.134
101346.13
101346.126
101346.122
101346.12
101346.117
101346.116
101346.115
101346.115
101346.115
101346.117
101346.119
101346.123
101346.127
101346.133
101346.141
101346.151
101346.163
101346.177
101346.19
101346.206
101346.223
101346.241
101346.261
101346.283
101346.305
101346.33
101346.355
101346.382
101346.409
101346.435
101346.467
101346.509
101346.541
101346.564
101346.597
101346.638
101346.678
101346.718
101346.762
101346.809
101346.861
101346.92
101346.988
101347.066
101347.159
101347.271
101347.407
101347.571
101347.771
101348.014
101348.308
101348.661
101349.079
101349.573
101350.148
101350.813
101351.566
101352.423
101353.359
101354.416
101355.56
101356.996
101359.51
101361.25
101361.887
101362.82
101364.286
101366.139
101368.018
101369.584
101371.566
101373.547
101375.107
101376.91
101378.942
101380.618
101382.401
101384.468
101386.362
101345.673
101345.668
101345.664
101345.661
101345.658
101345.656
101345.655
101345.655
101345.656
101345.659
101345.662
101345.668
101345.675
101345.684
101345.694
101345.705
101345.718
101345.733
101345.749
101345.768
101345.788
101345.81
101345.833
101345.859
101345.886
101345.915
101345.945
101345.974
101346.008
101346.052
101346.09
101346.119
101346.155
101346.2
101346.244
101346.289
101346.336
101346.387
101346.441
101346.502
101346.57
101346.647
101346.736
101346.84
101346.964
101347.112
101347.29
101347.505
101347.765
101348.079
101348.456
101348.903
101349.429
101350.046
101350.762
101351.583
101352.511
101353.562
101354.723
101356.029
101357.378
101359.17
101360.512
101361.413
101363.075
101364.927
101366.509
101367.99
101369.528
101371.091
101372.632
101374.364
101376.35
101378.222
101379.866
101381.642
101383.685
101385.632
101387.691
101389.721
101345.118
101345.114
101345.111
101345.108
101345.107
101345.107
101345.107
101345.109
101345.113
101345.118
101345.125
101345.134
101345.144
101345.155
101345.169
101345.185
101345.203
101345.223
101345.244
101345.268
101345.294
101345.323
101345.353
101345.385
101345.417
101345.453
101345.499
101345.541
101345.575
101345.616
101345.665
101345.714
101345.764
101345.817
101345.873
101345.934
101345.999
101346.071
101346.151
101346.241
101346.343
101346.462
101346.601
101346.766
101346.961
101347.193
101347.47
101347.8
101348.193
101348.654
101349.191
101349.813
101350.529
101351.345
101352.264
101353.291
101354.409
101355.645
101356.934
101358.279
101359.808
101361.235
101362.83
101364.409
101365.885
101367.496
101369.018
101370.479
101371.945
101373.539
101375.49
101377.651
101379.692
101381.687
101383.641
101385.638
101387.716
101389.899
101391.993
101393.955
101344.442
101344.44
101344.438
101344.438
101344.439
101344.442
101344.446
101344.452
101344.459
101344.469
101344.48
101344.493
101344.508
101344.525
101344.545
101344.567
101344.591
101344.618
101344.647
101344.679
101344.713
101344.748
101344.787
101344.835
101344.879
101344.919
101344.966
101345.02
101345.075
101345.131
101345.191
101345.254
101345.322
101345.394
101345.473
101345.559
101345.655
101345.762
101345.884
101346.024
101346.185
101346.373
101346.594
101346.852
101347.156
101347.513
101347.93
101348.414
101348.971
101349.606
101350.325
101351.133
101352.035
101353.039
101354.154
101355.363
101356.675
101358.037
101359.517
101360.913
101362.249
101363.759
101365.439
101367.123
101368.888
101370.811
101372.815
101374.998
101377.34
101379.573
101381.486
101383.043
101384.631
101386.406
101388.411
101390.182
101392.032
101394.453
101396.691
101398.753
101343.617
101343.618
101343.62
101343.623
101343.628
101343.635
101343.644
101343.655
101343.668
101343.683
101343.7
101343.72
101343.743
101343.768
101343.796
101343.826
101343.86
101343.896
101343.934
101343.976
101344.025
101344.073
101344.119
101344.172
101344.23
101344.291
101344.354
101344.42
101344.491
101344.566
101344.646
101344.732
101344.826
101344.929
101345.042
101345.169
101345.313
101345.476
101345.664
101345.881
101346.132
101346.425
101346.766
101347.161
101347.618
101348.144
101348.744
101349.422
101350.181
101351.021
101351.935
101352.908
101353.915
101354.921
101356.097
101357.655
101359.43
101361.214
101362.861
101364.576
101366.479
101368.557
101370.503
101372.461
101374.432
101375.863
101377.219
101378.816
101380.467
101382.188
101383.837
101385.727
101388.096
101390.132
101391.703
101393.153
101395.172
101397.663
101399.98
101401.992
101342.605
101342.61
101342.617
101342.626
101342.637
101342.65
101342.666
101342.684
101342.704
101342.727
101342.754
101342.783
101342.815
101342.85
101342.888
101342.929
101342.974
101343.026
101343.077
101343.128
101343.186
101343.25
101343.315
101343.384
101343.456
101343.533
101343.614
101343.701
101343.793
101343.893
101344.001
101344.119
101344.249
101344.394
101344.557
101344.741
101344.952
101345.194
101345.474
101345.797
101346.17
101346.601
101347.097
101347.665
101348.313
101349.046
101349.872
101350.798
101351.827
101352.963
101354.217
101355.59
101357.084
101358.753
101360.387
101361.801
101363.202
101364.751
101366.456
101368.198
101369.835
101371.502
101373.222
101374.86
101376.373
101377.921
101379.614
101381.559
101383.42
101385.332
101387.498
101389.375
101390.931
101392.542
101394.901
101397.829
101400.152
101401.523
101403.295
101405.368
101341.362
101341.373
101341.387
101341.403
101341.422
101341.443
101341.467
101341.494
101341.524
101341.558
101341.594
101341.635
101341.678
101341.726
101341.779
101341.834
101341.89
101341.952
101342.019
101342.089
101342.163
101342.241
101342.323
101342.41
101342.502
101342.6
101342.704
101342.816
101342.937
101343.068
101343.212
101343.372
101343.551
101343.753
101343.982
101344.243
101344.542
101344.886
101345.282
101345.735
101346.255
101346.848
101347.52
101348.279
101349.129
101350.076
101351.123
101352.27
101353.513
101354.844
101356.247
101357.73
101359.25
101360.806
101362.462
101364.04
101365.494
101366.868
101368.437
101370.11
101371.599
101373.213
101375.014
101376.817
101378.691
101380.842
101383.146
101385.421
101387.178
101388.832
101390.682
101392.415
101394.27
101396.82
101398.916
101400.646
101402.571
101404.383
101406.09
101408.222
101339.839
101339.858
101339.881
101339.906
101339.934
101339.965
101340
101340.039
101340.08
101340.126
101340.176
101340.231
101340.288
101340.349
101340.415
101340.486
101340.56
101340.638
101340.721
101340.809
101340.901
101340.999
101341.102
101341.211
101341.327
101341.451
101341.585
101341.73
101341.889
101342.064
101342.258
101342.476
101342.721
101342.998
101343.313
101343.672
101344.082
101344.548
101345.076
101345.674
101346.347
101347.099
101347.935
101348.856
101349.865
101350.96
101352.141
101353.403
101354.764
101356.209
101357.717
101359.27
101360.804
101362.288
101363.831
101365.417
101366.944
101368.71
101370.754
101372.636
101374.513
101376.482
101378.723
101380.388
101382.054
101383.999
101385.664
101387.45
101389.447
101391.601
101393.639
101395.63
101397.764
101399.857
101401.599
101403.488
101405.836
101407.659
101409.364
101412.011
101337.984
101338.012
101338.046
101338.083
101338.123
101338.166
101338.214
101338.266
101338.322
101338.382
101338.447
101338.516
101338.59
101338.668
101338.751
101338.839
101338.932
101339.03
101339.133
101339.242
101339.357
101339.479
101339.609
101339.748
101339.898
101340.06
101340.236
101340.43
101340.645
101340.884
101341.152
101341.454
101341.795
101342.182
101342.618
101343.112
101343.669
101344.293
101344.99
101345.762
101346.612
101347.54
101348.544
101349.616
101350.741
101351.916
101353.122
101354.377
101355.895
101357.709
101359.596
101361.54
101363.462
101365.374
101367.374
101369.393
101371.622
101373.584
101375.081
101376.766
101378.434
101379.897
101381.09
101382.461
101384.253
101386.135
101388.511
101390.468
101392.332
101394.262
101396.36
101398.63
101400.815
101403.046
101405.319
101407.224
101409.179
101411.541
101414.359
101417.362
101335.754
101335.793
101335.841
101335.891
101335.945
101336.003
101336.065
101336.133
101336.205
101336.281
101336.363
101336.449
101336.541
101336.638
101336.741
101336.849
101336.964
101337.084
101337.212
101337.348
101337.493
101337.648
101337.814
101337.995
101338.192
101338.408
101338.648
101338.914
101339.211
101339.545
101339.921
101340.345
101340.823
101341.36
101341.964
101342.639
101343.39
101344.22
101345.131
101346.125
101347.201
101348.356
101349.587
101350.881
101352.22
101353.765
101355.827
101358.232
101360.189
101361.812
101363.468
101365.216
101366.849
101368.385
101370.03
101371.617
101373.113
101374.606
101376.219
101377.815
101379.189
101380.987
101383.368
101385.607
101387.702
101389.631
101391.169
101393.237
101395.831
101398.007
101400.266
101402.708
101404.72
101406.374
101408.563
101411.029
101412.599
101414.149
101416.364
101418.151
101333.109
101333.162
101333.225
101333.291
101333.36
101333.434
101333.513
101333.596
101333.685
101333.779
101333.879
101333.984
101334.095
101334.212
101334.336
101334.467
101334.606
101334.753
101334.91
101335.079
101335.26
101335.457
101335.672
101335.908
101336.168
101336.458
101336.782
101337.145
101337.553
101338.012
101338.529
101339.11
101339.761
101340.488
101341.296
101342.189
101343.171
101344.243
101345.405
101346.658
101348
101349.429
101350.938
101352.514
101354.189
101355.865
101357.51
101359.224
101360.933
101362.487
101363.928
101365.328
101366.982
101369.124
101370.962
101372.711
101374.547
101376.457
101378.478
101380.487
101382.444
101384.713
101387.068
101388.935
101390.832
101393.134
101395.452
101397.651
101399.53
101401.375
101403.364
101405.389
101407.735
101410.225
101412.55
101414.5
101415.962
101417.512
101419.602
101421.479
101330.041
101330.109
101330.189
101330.27
101330.356
101330.446
101330.541
101330.641
101330.746
101330.857
101330.974
101331.098
101331.227
101331.365
101331.51
101331.664
101331.829
101332.005
101332.195
101332.401
101332.626
101332.872
101333.145
101333.448
101333.785
101334.164
101334.588
101335.065
101335.601
101336.201
101336.873
101337.622
101338.452
101339.369
101340.374
101341.47
101342.658
101343.936
101345.303
101346.754
101348.286
101349.891
101351.551
101353.291
101355.101
101356.981
101358.558
101359.918
101361.46
101363.205
101364.95
101366.78
101368.535
101370.37
101372.51
101374.788
101376.949
101379.011
101380.981
101382.979
101384.748
101386.792
101389.542
101392.396
101394.394
101396.021
101397.96
101400.287
101402.902
101405.224
101407.043
101408.932
101411.118
101413.722
101416.158
101418.076
101420.035
101422.033
101423.638
101424.718
101326.595
101326.679
101326.776
101326.875
101326.976
101327.082
101327.193
101327.31
101327.432
101327.56
101327.694
101327.836
101327.986
101328.145
101328.315
101328.496
101328.692
101328.904
101329.136
101329.39
101329.671
101329.983
101330.33
101330.719
101331.154
101331.642
101332.189
101332.8
101333.482
101334.239
101335.076
101335.995
101336.999
101338.089
101339.264
101340.522
101341.862
101343.28
101344.779
101346.355
101348.027
101349.796
101351.572
101353.248
101355.046
101356.982
101358.929
101360.822
101362.646
101364.444
101366.172
101368.558
101371.602
101374.277
101376.261
101378.028
101379.93
101381.969
101384.084
101386.245
101388.422
101390.873
101393.391
101395.002
101396.732
101399.826
101401.972
101403.544
101405.388
101407.524
101409.843
101411.958
101414.11
101416.456
101418.652
101420.664
101423.071
101425.314
101426.671
101428.617
101322.892
101322.992
101323.107
101323.222
101323.34
101323.463
101323.591
101323.724
101323.864
101324.011
101324.167
101324.332
101324.508
101324.696
101324.9
101325.121
101325.363
101325.63
101325.924
101326.252
101326.618
101327.028
101327.488
101328.004
101328.582
101329.228
101329.949
101330.748
101331.63
101332.599
101333.654
101334.795
101336.02
101337.324
101338.698
101340.132
101341.607
101343.101
101344.604
101346.081
101347.915
101350.28
101352.693
101355.051
101357.32
101359.576
101361.909
101364.315
101366.79
101369.367
101372.214
101374.091
101375.089
101375.903
101377.481
101380.096
101382.654
101385.124
101387.638
101390.024
101392.599
101394.558
101395.815
101398.185
101400.807
101402.314
101404.422
101407.205
101408.957
101410.548
101412.75
101415.247
101417.658
101420.092
101422.643
101424.469
101426.128
101427.92
101429.574
101431.588
101390.869
101390.87
101390.872
101390.875
101390.879
101390.884
101390.891
101390.898
101390.907
101390.917
101390.929
101390.941
101390.955
101390.97
101390.987
101391.005
101391.025
101391.046
101391.068
101391.093
101391.119
101391.147
101391.176
101391.208
101391.242
101391.278
101391.316
101391.357
101391.4
101391.446
101391.495
101391.546
101391.601
101391.66
101391.722
101391.788
101391.859
101391.934
101392.014
101392.099
101392.19
101392.287
101392.391
101392.501
101392.62
101392.747
101392.883
101393.027
101393.182
101393.347
101393.523
101393.71
101393.908
101394.118
101394.339
101394.571
101394.81
101395.051
101395.283
101395.486
101395.649
101395.758
101395.812
101395.815
101395.79
101395.724
101395.586
101395.308
101394.931
101394.452
101393.827
101393.029
101392.076
101390.979
101389.708
101388.278
101386.706
101385.009
101382.752
101380.812
101386.981
101386.982
101386.983
101386.985
101386.988
101386.992
101386.996
101387.001
101387.007
101387.014
101387.021
101387.03
101387.039
101387.049
101387.06
101387.073
101387.086
101387.1
101387.115
101387.131
101387.148
101387.167
101387.187
101387.208
101387.23
101387.254
101387.28
101387.307
101387.336
101387.367
101387.4
101387.434
101387.472
101387.511
101387.553
101387.599
101387.647
101387.699
101387.755
101387.815
101387.878
101387.947
101388.02
101388.099
101388.183
101388.274
101388.371
101388.475
101388.586
101388.705
101388.83
101388.963
101389.103
101389.247
101389.395
101389.544
101389.693
101389.841
101389.98
101390.102
101390.196
101390.25
101390.251
101390.164
101389.975
101389.702
101389.35
101388.905
101388.306
101387.509
101386.488
101385.208
101383.637
101381.82
101379.838
101377.727
101375.3
101372.247
101369.545
101367.734
101383
101383
101383.001
101383.002
101383.004
101383.005
101383.007
101383.01
101383.012
101383.015
101383.019
101383.022
101383.026
101383.031
101383.036
101383.041
101383.046
101383.052
101383.058
101383.065
101383.072
101383.079
101383.087
101383.096
101383.105
101383.114
101383.124
101383.135
101383.147
101383.159
101383.173
101383.187
101383.202
101383.219
101383.236
101383.256
101383.276
101383.299
101383.324
101383.35
101383.379
101383.411
101383.446
101383.483
101383.524
101383.569
101383.617
101383.668
101383.724
101383.783
101383.845
101383.911
101383.978
101384.045
101384.112
101384.174
101384.227
101384.268
101384.288
101384.28
101384.232
101384.135
101383.978
101383.75
101383.418
101382.961
101382.351
101381.554
101380.532
101379.254
101377.644
101375.696
101373.473
101371.074
101368.524
101365.585
101362.133
101358.68
101355.775
101352.809
101378.988
101378.989
101378.989
101378.989
101378.989
101378.989
101378.988
101378.988
101378.987
101378.986
101378.985
101378.983
101378.981
101378.979
101378.977
101378.974
101378.971
101378.968
101378.964
101378.96
101378.956
101378.951
101378.946
101378.94
101378.934
101378.927
101378.92
101378.913
101378.905
101378.896
101378.888
101378.879
101378.869
101378.859
101378.849
101378.839
101378.828
101378.817
101378.806
101378.795
101378.785
101378.774
101378.764
101378.755
101378.745
101378.737
101378.728
101378.72
101378.712
101378.703
101378.694
101378.682
101378.666
101378.644
101378.614
101378.572
101378.512
101378.429
101378.31
101378.143
101377.909
101377.591
101377.17
101376.626
101375.935
101375.065
101373.975
101372.62
101370.962
101368.979
101366.667
101364.105
101361.382
101358.507
101355.357
101351.736
101347.702
101343.719
101339.64
101333.926
101375.012
101375.013
101375.013
101375.012
101375.011
101375.009
101375.006
101375.003
101374.998
101374.993
101374.987
101374.98
101374.972
101374.964
101374.954
101374.943
101374.932
101374.919
101374.905
101374.889
101374.873
101374.855
101374.836
101374.816
101374.794
101374.77
101374.745
101374.718
101374.69
101374.659
101374.627
101374.593
101374.557
101374.519
101374.479
101374.437
101374.392
101374.345
101374.297
101374.245
101374.191
101374.135
101374.076
101374.014
101373.949
101373.881
101373.808
101373.731
101373.649
101373.561
101373.465
101373.359
101373.242
101373.109
101372.957
101372.779
101372.567
101372.308
101371.987
101371.588
101371.088
101370.464
101369.695
101368.757
101367.625
101366.264
101364.639
101362.711
101360.453
101357.852
101354.946
101351.779
101348.367
101344.639
101340.42
101335.511
101329.613
101322.901
101316.077
101307.177
101371.145
101371.146
101371.147
101371.145
101371.143
101371.139
101371.134
101371.128
101371.12
101371.111
101371.1
101371.088
101371.075
101371.059
101371.043
101371.024
101371.004
101370.981
101370.957
101370.931
101370.902
101370.872
101370.839
101370.804
101370.766
101370.725
101370.682
101370.636
101370.587
101370.534
101370.479
101370.42
101370.357
101370.29
101370.22
101370.145
101370.067
101369.983
101369.896
101369.803
101369.704
101369.601
101369.491
101369.374
101369.25
101369.119
101368.979
101368.829
101368.669
101368.495
101368.307
101368.102
101367.876
101367.624
101367.34
101367.014
101366.634
101366.185
101365.652
101365.015
101364.254
101363.346
101362.266
101360.985
101359.471
101357.686
101355.587
101353.139
101350.304
101347.061
101343.43
101339.411
101334.946
101329.841
101323.57
101315.996
101308.501
101300.866
101293.196
101284.779
101367.46
101367.462
101367.462
101367.46
101367.457
101367.452
101367.445
101367.436
101367.426
101367.413
101367.398
101367.381
101367.362
101367.341
101367.318
101367.292
101367.264
101367.233
101367.199
101367.162
101367.123
101367.08
101367.034
101366.985
101366.933
101366.876
101366.816
101366.752
101366.683
101366.61
101366.532
101366.45
101366.362
101366.269
101366.17
101366.065
101365.954
101365.836
101365.711
101365.578
101365.438
101365.289
101365.13
101364.961
101364.782
101364.591
101364.386
101364.166
101363.931
101363.676
101363.4
101363.098
101362.768
101362.4
101361.985
101361.513
101360.971
101360.345
101359.619
101358.771
101357.779
101356.618
101355.263
101353.689
101351.861
101349.738
101347.259
101344.346
101341.03
101337.361
101333.231
101328.514
101322.906
101316.193
101309.943
101302.977
101294.289
101285.794
101274.446
101260.527
101364.025
101364.027
101364.028
101364.026
101364.022
101364.016
101364.007
101363.997
101363.983
101363.968
101363.949
101363.929
101363.905
101363.879
101363.85
101363.817
101363.782
101363.744
101363.702
101363.656
101363.607
101363.554
101363.497
101363.436
101363.371
101363.301
101363.226
101363.146
101363.061
101362.97
101362.873
101362.771
101362.661
101362.545
101362.422
101362.292
101362.153
101362.006
101361.851
101361.685
101361.51
101361.324
101361.126
101360.915
101360.691
101360.452
101360.196
101359.921
101359.626
101359.306
101358.96
101358.582
101358.165
101357.7
101357.179
101356.59
101355.924
101355.164
101354.293
101353.292
101352.136
101350.797
101349.243
101347.441
101345.335
101342.849
101339.963
101337.151
101334.282
101330.323
101325.239
101320.326
101315.832
101310.989
101304.332
101293.604
101280.08
101266.21
101254.245
101244.894
101360.902
101360.904
101360.905
101360.903
101360.899
101360.892
101360.882
101360.87
101360.855
101360.837
101360.816
101360.792
101360.765
101360.735
101360.701
101360.664
101360.624
101360.579
101360.531
101360.478
101360.422
101360.361
101360.295
101360.225
101360.149
101360.069
101359.982
101359.89
101359.792
101359.687
101359.575
101359.457
101359.331
101359.197
101359.055
101358.905
101358.745
101358.576
101358.396
101358.205
101358.003
101357.789
101357.561
101357.319
101357.062
101356.789
101356.498
101356.188
101355.856
101355.499
101355.115
101354.697
101354.238
101353.731
101353.167
101352.535
101351.821
101351.01
101350.08
101349.008
101347.765
101346.327
101344.66
101342.752
101340.875
101339.101
101336.95
101333.72
101329.33
101325.074
101321.644
101317.417
101310.814
101302.358
101292.728
101282.712
101272.031
101260.76
101249.065
101239.787
101358.135
101358.138
101358.139
101358.137
101358.133
101358.125
101358.115
101358.102
101358.085
101358.066
101358.043
101358.017
101357.987
101357.954
101357.918
101357.877
101357.833
101357.784
101357.732
101357.675
101357.613
101357.547
101357.476
101357.399
101357.317
101357.229
101357.136
101357.036
101356.93
101356.817
101356.696
101356.569
101356.433
101356.289
101356.136
101355.975
101355.803
101355.62
101355.426
101355.222
101355.005
101354.775
101354.531
101354.273
101353.998
101353.706
101353.395
101353.063
101352.704
101352.315
101351.893
101351.434
101350.932
101350.382
101349.781
101349.124
101348.404
101347.616
101346.754
101345.817
101344.771
101343.568
101342.196
101340.641
101338.63
101335.974
101333.121
101330.144
101326.845
101323.186
101318.448
101312.926
101307.192
101300.62
101292.411
101283.421
101273.958
101263.64
101254.883
101246.594
101355.761
101355.763
101355.764
101355.762
101355.758
101355.75
101355.739
101355.724
101355.707
101355.687
101355.663
101355.635
101355.604
101355.57
101355.532
101355.489
101355.443
101355.393
101355.338
101355.279
101355.215
101355.146
101355.072
101354.993
101354.908
101354.817
101354.721
101354.618
101354.509
101354.392
101354.269
101354.138
101353.999
101353.852
101353.696
101353.531
101353.356
101353.17
101352.974
101352.767
101352.548
101352.318
101352.075
101351.819
101351.55
101351.265
101350.964
101350.646
101350.309
101349.952
101349.572
101349.164
101348.72
101348.233
101347.695
101347.097
101346.426
101345.664
101344.793
101343.784
101342.661
101341.439
101340.075
101338.524
101336.72
101334.636
101332.274
101329.632
101326.657
101323.281
101319.366
101314.917
101309.954
101304.377
101298.094
101291.165
101282.973
101274.17
101264.824
101255.841
101353.787
101353.789
101353.79
101353.787
101353.782
101353.773
101353.762
101353.747
101353.73
101353.709
101353.684
101353.657
101353.625
101353.59
101353.552
101353.51
101353.463
101353.413
101353.358
101353.299
101353.235
101353.167
101353.093
101353.015
101352.931
101352.841
101352.746
101352.644
101352.536
101352.422
101352.301
101352.173
101352.037
101351.894
101351.742
101351.582
101351.413
101351.234
101351.045
101350.846
101350.633
101350.411
101350.18
101349.937
101349.682
101349.414
101349.132
101348.834
101348.518
101348.184
101347.83
101347.452
101347.048
101346.611
101346.139
101345.624
101345.06
101344.438
101343.748
101342.978
101342.112
101341.138
101340.039
101338.787
101337.353
101335.713
101333.842
101331.713
101329.277
101326.482
101323.261
101319.568
101315.364
101310.59
101305.132
101298.902
101291.817
101284.256
101276.332
101268.448
101352.214
101352.215
101352.214
101352.21
101352.204
101352.195
101352.182
101352.167
101352.149
101352.128
101352.104
101352.077
101352.046
101352.012
101351.974
101351.933
101351.888
101351.839
101351.786
101351.729
101351.668
101351.602
101351.532
101351.457
101351.377
101351.291
101351.201
101351.104
101351.003
101350.895
101350.78
101350.659
101350.532
101350.398
101350.258
101350.11
101349.956
101349.795
101349.625
101349.446
101349.258
101349.059
101348.847
101348.627
101348.403
101348.171
101347.931
101347.68
101347.419
101347.147
101346.864
101346.568
101346.258
101345.929
101345.579
101345.202
101344.793
101344.346
101343.852
101343.302
101342.684
101341.983
101341.184
101340.268
101339.21
101337.988
101336.576
101334.944
101333.06
101330.878
101328.35
101325.425
101322.04
101318.118
101313.611
101308.459
101302.729
101296.127
101288.97
101281.959
101351.008
101351.007
101351.004
101350.999
101350.991
101350.981
101350.968
101350.953
101350.935
101350.914
101350.89
101350.864
101350.834
101350.802
101350.766
101350.727
101350.685
101350.639
101350.59
101350.537
101350.48
101350.42
101350.355
101350.286
101350.213
101350.136
101350.053
101349.966
101349.874
101349.777
101349.675
101349.568
101349.455
101349.337
101349.213
101349.084
101348.948
101348.808
101348.662
101348.513
101348.36
101348.205
101348.042
101347.866
101347.675
101347.475
101347.274
101347.08
101346.886
101346.687
101346.483
101346.275