/*--------------------------------*- C++ -*----------------------------------*\
  =========                 |
  \\      /  F ield         | OpenFOAM: The Open Source CFD Toolbox
   \\    /   O peration     | Website:  https://openfoam.org
    \\  /    A nd           | Version:  8
     \\/     M anipulation  |
\*---------------------------------------------------------------------------*/
FoamFile
{
    version     2.0;
    format      ascii;
    class       surfaceScalarField;
    location    "0.029";
    object      phi;
}
// * * * * * * * * * * * * * * * * * * * * * * * * * * * * * * * * * * * * * //

dimensions      [1 0 -1 0 0 0 0];

internalField   nonuniform List<scalar> 
84340
(
-4.2305944e-08
2.98678478e-07
-2.56516929e-07
-1.74015034e-07
9.13682896e-07
-7.82207297e-07
-4.04010743e-07
1.56655604e-06
-1.33684875e-06
-7.42125631e-07
2.25914033e-06
-1.9213614e-06
-1.19826938e-06
2.99356088e-06
-2.53779525e-06
-1.78199117e-06
3.7717664e-06
-3.18846202e-06
-2.50211203e-06
4.59530584e-06
-3.87564095e-06
-3.36655704e-06
5.46529499e-06
-4.60134531e-06
-4.3822931e-06
6.38238266e-06
-5.36718319e-06
-5.55532822e-06
7.34676885e-06
-6.17431428e-06
-6.89073983e-06
8.35827766e-06
-7.0234938e-06
-8.39270754e-06
9.41644885e-06
-7.9151598e-06
-1.0064535e-05
1.05206275e-05
-8.84953379e-06
-1.19086494e-05
1.16700356e-05
-9.82671427e-06
-1.39265657e-05
1.28638099e-05
-1.08467512e-05
-1.61188297e-05
1.41010251e-05
-1.19096881e-05
-1.84849156e-05
1.53806782e-05
-1.30155946e-05
-2.10231029e-05
1.67016598e-05
-1.41645561e-05
-2.37303146e-05
1.80627123e-05
-1.53566719e-05
-2.66019284e-05
1.94623728e-05
-1.6592025e-05
-2.96315575e-05
2.08989139e-05
-1.78706534e-05
-3.28107978e-05
2.23702782e-05
-1.91925172e-05
-3.61289372e-05
2.38740037e-05
-2.05574635e-05
-3.95726339e-05
2.54071526e-05
-2.19651845e-05
-4.31255365e-05
2.69662158e-05
-2.34151821e-05
-4.6767855e-05
2.8547016e-05
-2.4906718e-05
-5.04758668e-05
3.01445736e-05
-2.64387471e-05
-5.42213284e-05
3.17529545e-05
-2.80098565e-05
-5.79708407e-05
3.33651178e-05
-2.9618163e-05
-6.16852563e-05
3.49728407e-05
-3.12611929e-05
-6.53192292e-05
3.65666741e-05
-3.29356972e-05
-6.88206753e-05
3.81356007e-05
-3.46373958e-05
-7.21284076e-05
3.96650893e-05
-3.63608778e-05
-7.51695118e-05
4.11371042e-05
-3.80998343e-05
-7.78641208e-05
4.25373064e-05
-3.98468057e-05
-8.01295936e-05
4.38521939e-05
-4.15911135e-05
-8.18799771e-05
4.50545519e-05
-4.33089695e-05
-8.29912276e-05
4.60958722e-05
-4.49898661e-05
-8.3289408e-05
4.69189908e-05
-4.66265104e-05
-8.25856751e-05
4.74797261e-05
-4.81896438e-05
-8.06813464e-05
4.77183504e-05
-4.96293794e-05
-7.73656784e-05
4.75600463e-05
-5.08830338e-05
-7.23871799e-05
4.69174017e-05
-5.19039088e-05
-6.54859577e-05
4.57039284e-05
-5.26138592e-05
-5.63647031e-05
4.38012107e-05
-5.2931931e-05
-4.47024028e-05
4.1076179e-05
-5.2748766e-05
-3.0121812e-05
3.73402028e-05
-5.19319808e-05
-1.22182037e-05
3.24772818e-05
-5.03930109e-05
9.2971628e-06
2.64448524e-05
-4.79733419e-05
3.47574327e-05
1.8994093e-05
-4.44686309e-05
6.50745344e-05
9.43421927e-06
-3.97666359e-05
0.000101001266
-2.35727935e-06
-3.35857778e-05
0.000143380865
-1.64855632e-05
-2.59118462e-05
0.000193193201
-3.38724473e-05
-1.59593457e-05
0.000251579296
-5.48293434e-05
-3.57774726e-06
0.000319890185
-7.97732373e-05
1.14397563e-05
0.000399600161
-0.000109321552
2.95871766e-05
0.000491800217
-0.000144197086
5.19707121e-05
0.000598047364
-0.000185094223
7.88186941e-05
0.000720195367
-0.000232782662
0.000110603962
0.000860039456
-0.000288046187
0.000148169115
0.00101936314
-0.000351658842
0.000192300041
0.00119992203
-0.000424416092
0.000243819638
0.00140326452
-0.000506958459
0.000303576634
0.00163072973
-0.000599860141
0.000372356296
0.00188346405
-0.000703784258
0.000451013426
0.00216331033
-0.000820184373
0.000540303639
0.00246857935
-0.00094364201
0.000638340726
0.00279470061
-0.00108031006
0.000754158597
0.00316112892
-0.00125462136
0.000888164509
0.00357353573
-0.00140146491
0.000989030661
0.003942434
-0.00151498224
0.00114605743
0.00430549956
-0.00178841976
0.00142532782
0.00486114188
-0.0020717878
0.0015161185
0.00546739159
-0.00210605854
0.00149978192
0.00581520175
-0.00224271508
0.00189487657
0.00606645317
-0.00261671155
0.00236542322
0.00644566091
-0.00290639087
0.00252714539
0.00701417031
-0.00302567724
0.00245711749
-0.00308519672
0.00264136968
0.00745794297
-3.19756755e-08
3.30436001e-07
-1.31508588e-07
1.01290484e-06
-3.05661307e-07
1.7403496e-06
-5.62481353e-07
2.5155567e-06
-9.10176789e-07
3.34081064e-06
-1.35653094e-06
4.21763375e-06
-1.90866847e-06
5.14691476e-06
-2.57285496e-06
6.1289093e-06
-3.35437359e-06
7.16328285e-06
-4.25748627e-06
8.24921359e-06
-5.2854246e-06
9.38549476e-06
-6.44038807e-06
1.05706336e-05
-7.72353062e-06
1.18029292e-05
-9.13492332e-06
1.30805204e-05
-1.06734965e-05
1.44014027e-05
-1.23369354e-05
1.57634056e-05
-1.41215555e-05
1.71641555e-05
-1.60221382e-05
1.86010087e-05
-1.80317307e-05
2.00709728e-05
-2.0141417e-05
2.15706213e-05
-2.23400528e-05
2.30959978e-05
-2.4613957e-05
2.46425074e-05
-2.69465754e-05
2.62048143e-05
-2.93180764e-05
2.77767026e-05
-3.1704877e-05
2.93509109e-05
-3.40791259e-05
3.09189926e-05
-3.64081589e-05
3.24711537e-05
-3.86538829e-05
3.39960326e-05
-4.0771885e-05
3.54802627e-05
-4.27105569e-05
3.69084223e-05
-4.44124611e-05
3.82652523e-05
-4.58138953e-05
3.95334726e-05
-4.68489209e-05
4.0696265e-05
-4.74374372e-05
4.17214538e-05
-4.74731548e-05
4.256854e-05
-4.68168191e-05
4.31910168e-05
-4.53090255e-05
4.35415195e-05
-4.27809286e-05
4.35620974e-05
-3.90557296e-05
4.31876274e-05
-3.39313013e-05
4.23486296e-05
-2.71797085e-05
4.09595453e-05
-1.85499502e-05
3.89224937e-05
-7.76690213e-06
3.61259291e-05
5.51529142e-06
3.24126444e-05
2.16376834e-05
2.7668996e-05
4.08077849e-05
2.18954398e-05
6.36242472e-05
1.4512348e-05
9.06680405e-05
5.42152977e-06
0.000122605985
-5.50584214e-06
0.000160262469
-1.86763724e-05
0.000204633325
-3.49518889e-05
0.000256652991
-5.4393351e-05
0.00031760316
-7.74533536e-05
0.00038844992
-0.000104738108
0.000470468327
-0.000136867993
0.000565180818
-0.0001745074
0.000674201893
-0.000218365874
0.000799153276
-0.000269173169
0.000941699365
-0.000327666288
0.00110348236
-0.000394592962
0.00128599312
-0.000470585704
0.00149058104
-0.000556276074
0.00171830817
-0.000652171228
0.00197015041
-0.000758826464
0.00224683987
-0.000876573262
0.0025483169
-0.00100528304
0.0028751452
-0.00114703279
0.0032292607
-0.00129777627
0.00359730768
-0.00144837481
0.00397384194
-0.00163117278
0.00441071381
-0.001838354
0.00486743881
-0.00197172507
0.00522189291
-0.00214289305
0.00558763147
-0.00243754674
0.00611212459
-0.00263057371
0.00657014147
-0.00270075746
0.00678956119
-0.00283616131
0.00690474593
-0.00302161102
0.00705783391
-0.0031788059
-0.00331544867
0.00728803782
-2.27379912e-08
3.52931173e-07
-9.35674243e-08
1.08338834e-06
-2.17828527e-07
1.86421145e-06
-4.01699734e-07
2.69897955e-06
-6.51533823e-07
3.59015004e-06
-9.73267173e-07
4.53882706e-06
-1.37205382e-06
5.54511541e-06
-1.85203134e-06
6.60825303e-06
-2.41639636e-06
7.72696351e-06
-3.06724282e-06
8.89932171e-06
-3.80550782e-06
1.01229635e-05
-4.63093873e-06
1.13952059e-05
-5.54205212e-06
1.27131169e-05
-6.53606821e-06
1.40735385e-05
-7.60881526e-06
1.5473074e-05
-8.75460488e-06
1.69080358e-05
-9.96606346e-06
1.83743646e-05
-1.12339349e-05
1.98675341e-05
-1.25468402e-05
2.13824279e-05
-1.38909979e-05
2.29132173e-05
-1.52498685e-05
2.44531866e-05
-1.66037186e-05
2.59945468e-05
-1.79291414e-05
2.75282882e-05
-1.91985777e-05
2.90440419e-05
-2.03797153e-05
3.05297919e-05
-2.14357766e-05
3.19726231e-05
-2.23254147e-05
3.33581721e-05
-2.30027109e-05
3.4670523e-05
-2.34183738e-05
3.58929218e-05
-2.35111408e-05
3.69979533e-05
-2.32056756e-05
3.79563019e-05
-2.2411272e-05
3.87353232e-05
-2.10135331e-05
3.92944958e-05
-1.8884541e-05
3.95881266e-05
-1.58838386e-05
3.95631674e-05
-1.18548473e-05
3.91569805e-05
-6.62138306e-06
3.83026097e-05
5.47149309e-09
3.69293791e-05
8.23929213e-06
3.49474934e-05
1.83262194e-05
3.22549073e-05
3.05648347e-05
2.87136223e-05
4.52640144e-05
2.42154449e-05
6.26134171e-05
1.87680457e-05
8.31722668e-05
1.18447865e-05
0.000107466887
3.36481677e-06
0.00013611587
-6.7638853e-06
0.000169820393
-1.92033642e-05
0.00020940203
-3.4172125e-05
0.000255912164
-5.20289033e-05
0.000310439021
-7.32171104e-05
0.000373750301
-9.82780563e-05
0.000447103959
-0.000127762943
0.000531903767
-0.000162270218
0.000629596485
-0.000202449101
0.000741715093
-0.000249006014
0.000869849969
-0.000302662669
0.00101551728
-0.000364054506
0.00118017981
-0.000433857982
0.00136514535
-0.000512655117
0.00157150831
-0.000600979354
0.00180021947
-0.000699318915
0.00205190127
-0.000807977981
0.00232685971
-0.000927147909
0.00262459751
-0.00105658078
0.0029445482
-0.00119653895
0.00328529639
-0.00134604489
0.00364229523
-0.00150404426
0.00401862385
-0.00167411673
0.00440984929
-0.00183961186
0.00478513671
-0.00200647197
0.00515622936
-0.00220945924
0.00557951971
-0.00239502836
0.00595970069
-0.00252308816
0.00619938907
-0.0026772542
0.00639746921
-0.00282867895
0.00664896564
-0.00295227975
0.00687839804
-0.0030656241
0.00702072743
-0.00316397791
0.00712229949
-0.00328041976
-0.00339030771
0.00719711634
-1.72951711e-08
3.69977618e-07
-7.07710391e-08
1.13651141e-06
-1.64177508e-07
1.95721188e-06
-3.01901151e-07
2.83624804e-06
-4.88285401e-07
3.77603276e-06
-7.27245924e-07
4.77724056e-06
-1.02183567e-06
5.83911175e-06
-1.37407172e-06
6.9598473e-06
-1.78462881e-06
8.13682768e-06
-2.25280037e-06
9.3667457e-06
-2.77679179e-06
1.06461486e-05
-3.35342814e-06
1.19709728e-05
-3.97807142e-06
1.33368228e-05
-4.64452536e-06
1.47389819e-05
-5.34490743e-06
1.61723667e-05
-6.06947567e-06
1.763143e-05
-6.80641022e-06
1.91100341e-05
-7.54150633e-06
2.06012673e-05
-8.25783371e-06
2.20972876e-05
-8.9354324e-06
2.3589236e-05
-9.55095186e-06
2.50670046e-05
-1.00776882e-05
2.65194508e-05
-1.04854832e-05
2.79341155e-05
-1.07405337e-05
2.92969799e-05
-1.08023598e-05
3.0589346e-05
-1.0622938e-05
3.1790761e-05
-1.01459339e-05
3.28785498e-05
-9.30453269e-06
3.38263101e-05
-8.01780174e-06
3.46031677e-05
-6.19582591e-06
3.51727302e-05
-3.73536047e-06
3.5492353e-05
-5.15543931e-07
3.55117595e-05
3.60272135e-06
3.51721948e-05
8.77032025e-06
3.44161914e-05
1.51549649e-05
3.31738663e-05
2.29442175e-05
3.13627304e-05
3.23526818e-05
2.88887825e-05
4.36460091e-05
2.56303042e-05
5.71036156e-05
2.14837159e-05
7.29094633e-05
1.64424301e-05
9.15675286e-05
1.00485362e-05
0.000113552591
2.22296037e-06
0.000139419464
-7.10683746e-06
0.000169803819
-1.85482289e-05
0.000205447094
-3.22877481e-05
0.000247328121
-4.86548671e-05
0.000296178965
-6.80648663e-05
0.000352976499
-9.09810653e-05
0.000418844882
-0.000117909485
0.000495021892
-0.000149407174
0.000582817125
-0.00018608728
0.000683647088
-0.000228607802
0.000798962366
-0.000277601205
0.000930245661
-0.000333748877
0.00107893068
-0.000397708259
0.00124634286
-0.00047009286
0.00143366641
-0.000551396915
0.00164177935
-0.000641989906
0.00187123019
-0.000742123854
0.00212211249
-0.000851878073
0.00239428855
-0.000971509954
0.00268689566
-0.00110059874
0.00299893697
-0.00123920164
0.00332737142
-0.00138502655
0.00366964593
-0.00153882385
0.00402238883
-0.00169879741
0.00437964351
-0.00186130805
0.004736477
-0.00203095911
0.00509385301
-0.00219699692
0.00543250325
-0.00234513105
0.00570889184
-0.00248585695
0.00594346886
-0.00262961758
0.00616579055
-0.00274543033
0.00634468783
-0.00285617446
0.00647579881
-0.00295980874
0.00659241376
-0.00306891924
0.00670794461
-0.00318118536
0.00682397393
-0.00328004635
0.00693751595
-0.00339400154
-0.00349445265
0.00704163441
-1.64234151e-08
3.86130122e-07
-6.61523087e-08
1.18585772e-06
-1.51495903e-07
2.0421164e-06
-2.75100441e-07
2.95936136e-06
-4.39301183e-07
3.93969312e-06
-6.45682521e-07
4.9830334e-06
-8.94855948e-07
6.08764777e-06
-1.18624886e-06
7.25055198e-06
-1.51777667e-06
8.46761329e-06
-1.88592008e-06
9.73408932e-06
-2.28528556e-06
1.10446529e-05
-2.70884759e-06
1.23936078e-05
-3.14798643e-06
1.37749638e-05
-3.5921269e-06
1.51820487e-05
-4.02853043e-06
1.66076152e-05
-4.44207917e-06
1.80437365e-05
-4.81507621e-06
1.9481695e-05
-5.12701336e-06
2.09117673e-05
-5.35437554e-06
2.23231073e-05
-5.46916935e-06
2.37023752e-05
-5.43904404e-06
2.50351022e-05
-5.22650631e-06
2.63050059e-05
-4.78776027e-06
2.7493324e-05
-4.07165935e-06
2.85786851e-05
-3.02105735e-06
2.95363903e-05
-1.56938579e-06
3.03365665e-05
3.61660083e-07
3.09448007e-05
2.86411068e-06
3.13209572e-05
6.04594496e-06
3.14182149e-05
1.0025599e-05
3.11897327e-05
1.49357567e-05
3.05786117e-05
2.09265173e-05
2.95171593e-05
2.81656708e-05
2.79289287e-05
3.68508979e-05
2.57265609e-05
4.7219284e-05
2.28007703e-05
5.95243068e-05
1.90526621e-05
7.39505517e-05
1.44571283e-05
9.09446421e-05
8.63049366e-06
0.000110933016
1.48930257e-06
0.000134408562
-7.039613e-06
0.000161937047
-1.74869509e-05
0.000194176372
-3.00238557e-05
0.000232011263
-4.4949736e-05
0.000276094601
-6.26401203e-05
0.000327304601
-8.35068798e-05
0.000386647462
-0.000108007474
0.000455222552
-0.000136650364
0.000534225101
-0.000169994742
0.000624922707
-0.000208618934
0.000728649795
-0.00025314677
0.000846773318
-0.000304223952
0.000980651565
-0.000362499823
0.00113164365
-0.00042860767
0.00130097879
-0.000503099083
0.00148964041
-0.000586385685
0.00169825212
-0.00067872057
0.00192700788
-0.000780167889
0.0021756438
-0.000890639923
0.00244345755
-0.00100995063
0.00272895713
-0.00113738967
0.00303036705
-0.00127293097
0.00334449705
-0.00141473899
0.00366930094
-0.00156401507
0.00399877113
-0.00171450566
0.00433168045
-0.00187174167
0.00465899479
-0.00202611979
0.0049726023
-0.00217492311
0.0052522649
-0.00231062895
0.00549336917
-0.00243810885
0.00570130153
-0.00255307245
0.00587098122
-0.00265554884
0.0060026938
-0.00276134412
0.00611954858
-0.00286230062
0.00622738919
-0.00296403225
0.00633841373
-0.00307085094
0.00644465025
-0.00317518087
0.00653625852
-0.00327281956
0.00662526097
-0.00336907675
0.00671495818
-0.00348372752
-0.00359359707
0.00681407518
-1.88348217e-08
4.04701887e-07
-7.46870542e-08
1.24133884e-06
-1.68474238e-07
2.13547797e-06
-3.01015146e-07
3.09142626e-06
-4.72455602e-07
4.11060996e-06
-6.81856321e-07
5.19186377e-06
-9.26897837e-07
6.33207158e-06
-1.20366495e-06
7.52665217e-06
-1.50668394e-06
8.76991303e-06
-1.82867511e-06
1.00553052e-05
-2.1601184e-06
1.13752607e-05
-2.48933312e-06
1.27219225e-05
-2.80214796e-06
1.40868096e-05
-3.0819069e-06
1.54607639e-05
-3.30927464e-06
1.6833859e-05
-3.46175902e-06
1.81950132e-05
-3.51317404e-06
1.95318126e-05
-3.43316872e-06
2.08303647e-05
-3.18691022e-06
2.2075347e-05
-2.73535469e-06
2.32492083e-05
-2.03337451e-06
2.4331392e-05
-1.02804511e-06
2.52978204e-05
3.42452969e-07
2.61208317e-05
2.15097525e-06
2.67680194e-05
4.47979347e-06
2.72052714e-05
7.42131442e-06
2.73925779e-05
1.10804459e-05
2.72830229e-05
1.55762162e-05
2.682235e-05
2.10434114e-05
2.59479797e-05
2.76410708e-05
2.45888175e-05
3.55524524e-05
2.2663744e-05
4.49912207e-05
2.00746625e-05
5.61888488e-05
1.67273071e-05
6.93304669e-05
1.25806627e-05
8.48077644e-05
7.31894118e-06
0.000103002683
8.52953878e-07
0.000124352889
-6.89822434e-06
0.000149361995
-1.63841506e-05
0.000178613913
-2.77685363e-05
0.000212888621
-4.13206451e-05
0.000252771408
-5.73764891e-05
0.000299045583
-7.63052348e-05
0.000352606404
-9.85182396e-05
0.000414424802
-0.000124466713
0.000485556545
-0.000154647371
0.000567135851
-0.000189596092
0.000660357172
-0.000229881531
0.000766453198
-0.000276101137
0.000886692612
-0.000328869232
0.00102232017
-0.000388785724
0.00117450152
-0.000456417193
0.00134424333
-0.000532254096
0.00153228083
-0.000616658267
0.00173897151
-0.000709803144
0.00196422071
-0.000811647791
0.00220741014
-0.00092192209
0.00246737543
-0.00104014449
0.00274233521
-0.00116561033
0.00302990273
-0.00129752814
0.0033266813
-0.00143417768
0.00362912612
-0.00157538479
0.00393199932
-0.00171762083
0.00423286204
-0.0018648862
0.00452460201
-0.00200625357
0.00479142889
-0.002138576
0.00502146015
-0.00225615836
0.00521389929
-0.00236736986
0.00537472049
-0.00247145897
0.005509125
-0.00257252379
0.00563023794
-0.00267419613
0.00574296732
-0.00276829135
0.00584366164
-0.00286205277
0.0059374515
-0.0029561029
0.00602120029
-0.00304779733
0.00609836895
-0.00314803984
0.00618533106
-0.00326216899
0.00627818168
-0.00336569593
0.00637358919
-0.00346450556
0.00645925384
-0.00356941453
-0.0036818418
0.00654747849
-2.26468235e-08
4.27080158e-07
-8.8365779e-08
1.30668021e-06
-1.96382431e-07
2.24306254e-06
-3.45353585e-07
3.23991492e-06
-5.32785044e-07
4.29751127e-06
-7.5464301e-07
5.41314488e-06
-1.00505945e-06
6.58186382e-06
-1.27609518e-06
7.79701448e-06
-1.55753878e-06
9.05063137e-06
-1.83672527e-06
1.0333711e-05
-2.09869496e-06
1.163639e-05
-2.32552912e-06
1.29478526e-05
-2.49599221e-06
1.42563009e-05
-2.5854607e-06
1.55491864e-05
-2.56551305e-06
1.68127857e-05
-2.40357381e-06
1.8031866e-05
-2.06229097e-06
1.9189234e-05
-1.49874618e-06
2.0265427e-05
-6.6277833e-07
2.1237882e-05
5.02851528e-07
2.20819721e-05
2.0634436e-06
2.27690775e-05
4.09307412e-06
2.32663427e-05
6.67580069e-06
2.35361236e-05
9.90681436e-06
2.35348813e-05
1.3896884e-05
2.32129252e-05
1.87742626e-05
2.25127611e-05
2.46861426e-05
2.13685323e-05
3.18009008e-05
1.97047974e-05
4.03136309e-05
1.74322609e-05
5.04379888e-05
1.44612594e-05
6.23556213e-05
1.07426832e-05
7.63973749e-05
6.02927362e-06
9.29155481e-05
2.05284656e-07
0.000112300081
-6.80800346e-06
0.000134997438
-1.53828585e-05
0.000161522844
-2.5677201e-05
0.000192554112
-3.79345659e-05
0.000228619795
-5.24552495e-05
0.00027041278
-6.95673001e-05
0.000318721653
-8.96356812e-05
0.000374404082
-0.000113065487
0.000438392244
-0.000140300405
0.000511688183
-0.000171821638
0.000595357395
-0.000208143821
0.000690508679
-0.000249806973
0.000798270143
-0.000297366295
0.000919756118
-0.000351376657
0.00105601742
-0.000412372
0.00120797594
-0.000480837707
0.00137635302
-0.000557173191
0.00156158421
-0.000641659278
0.00176369903
-0.000734380152
0.00198226775
-0.000835237952
0.00221633832
-0.000943884059
0.00246440012
-0.00105971934
0.0027243201
-0.00118185132
0.00299324799
-0.00130908119
0.00326759874
-0.00143996955
0.00354330119
-0.00157323878
0.0038158646
-0.00170674917
0.00407962143
-0.00183914962
0.00433086203
-0.00196886902
0.00455494832
-0.00208897997
0.00474549829
-0.00219681194
0.00490097872
-0.00229406591
0.00503405753
-0.00238924674
0.00514859568
-0.00248191733
0.0052533311
-0.00257620413
0.00534800472
-0.0026672087
0.00543388917
-0.00276009256
0.00551575425
-0.00285016685
0.0055898553
-0.00293616566
0.00566260801
-0.00302887342
0.00573927336
-0.00312448052
0.00581454178
-0.00322332277
0.00588784711
-0.00333549569
0.00596856364
-0.00344643549
0.00605344812
-0.00354940953
0.00614191267
-0.00365789771
-0.00377298671
0.00623304109
-2.45057864e-08
4.51331111e-07
-9.43036391e-08
1.37612036e-06
-2.06583612e-07
2.35493362e-06
-3.57259438e-07
3.39013442e-06
-5.40474527e-07
4.48022512e-06
-7.48241372e-07
5.6203664e-06
-9.7015641e-07
6.80318878e-06
-1.19316112e-06
8.01938255e-06
-1.40130852e-06
9.25809302e-06
-1.57546785e-06
1.05071324e-05
-1.69301921e-06
1.17531467e-05
-1.72765967e-06
1.29816379e-05
-1.64911891e-06
1.41768404e-05
-1.42229768e-06
1.53213753e-05
-1.00659576e-06
1.63960186e-05
-3.55447166e-07
1.73795727e-05
5.84260972e-07
1.82482954e-05
1.87306179e-06
1.89753046e-05
3.57959926e-06
1.95299254e-05
5.78272852e-06
1.9877319e-05
8.5725922e-06
1.99775779e-05
1.20522086e-05
1.97849712e-05
1.63395489e-05
1.92469009e-05
2.15694409e-05
1.83029708e-05
2.78961753e-05
1.68840271e-05
3.54979647e-05
1.49086543e-05
4.45715637e-05
1.22924485e-05
5.52937705e-05
8.97992474e-06
6.79484559e-05
4.77473936e-06
8.28553101e-05
-4.48604103e-07
0.000100358943
-6.76418037e-06
0.000120854734
-1.44699958e-05
0.00014479824
-2.37419517e-05
0.000172774686
-3.47884416e-05
0.000205262309
-4.78747528e-05
0.000242872796
-6.32922563e-05
0.000286299377
-8.13660319e-05
0.000336296153
-0.000102457245
0.000393684934
-0.000126961663
0.000459352064
-0.000155308773
0.000534237873
-0.000187957633
0.000619322757
-0.000225391994
0.000715606938
-0.000268112891
0.000824080764
-0.000316625087
0.000945686688
-0.000371420697
0.00108126962
-0.000432957389
0.00123151526
-0.00050163079
0.00139687503
-0.000577740614
0.00157747742
-0.00066144935
0.00177301784
-0.000752723273
0.00198270033
-0.00085135136
0.00220520091
-0.000956889806
0.00243867428
-0.00106871993
0.00268070517
-0.00118592313
0.00292822456
-0.00130724658
0.00317752217
-0.00143115652
0.00342439042
-0.00155595686
0.00366414134
-0.00167972782
0.0038915436
-0.00180064841
0.00410309388
-0.00191830692
0.004292237
-0.00202830032
0.00445347018
-0.00213011038
0.00458438743
-0.00221990626
0.0046947458
-0.00230717938
0.00479280116
-0.00239213041
0.00488389665
-0.00248035272
0.00496779671
-0.0025658294
0.00504190039
-0.00265032034
0.00511291015
-0.00273823028
0.0051793356
-0.00282653143
0.00524656707
-0.00291741252
0.00531831742
-0.0030079284
0.00539201349
-0.00310258157
0.00546783313
-0.00320031346
0.00554885647
-0.00330436022
0.00562792522
-0.00341457928
0.00570636112
-0.00352488561
0.00578789127
-0.00363095071
0.00587105021
-0.00374106647
-0.00386030278
0.00595835566
-2.24486855e-08
4.7353205e-07
-8.3855197e-08
1.43717989e-06
-1.78505e-07
2.44918734e-06
-2.98713447e-07
3.50990126e-06
-4.34319799e-07
4.61534675e-06
-5.72318876e-07
5.75783853e-06
-6.96535182e-07
6.92683537e-06
-7.873091e-07
8.10954204e-06
-8.21173148e-07
9.29129555e-06
-7.70525043e-07
1.04557729e-05
-6.03146811e-07
1.15850034e-05
-2.81656416e-07
1.26593249e-05
2.36989601e-07
1.36573104e-05
1.00197316e-06
1.45554422e-05
2.06934181e-06
1.53276303e-05
3.50303577e-06
1.59447846e-05
5.37613657e-06
1.63740211e-05
7.77185444e-06
1.65783276e-05
1.07850216e-05
1.65154076e-05
1.45238113e-05
1.61370816e-05
1.91116013e-05
1.53882366e-05
2.46890535e-05
1.42058572e-05
3.14173228e-05
1.25168524e-05
3.94754255e-05
1.02429618e-05
4.90313369e-05
7.32607128e-06
6.0342669e-05
3.5951452e-06
7.36858864e-05
-1.0530793e-06
8.9366005e-05
-6.70266968e-06
0.000107731883
-1.35938031e-05
0.00012918372
-2.19032989e-05
0.000154227715
-3.18112361e-05
0.000183306868
-4.3552425e-05
0.000216948115
-5.7386706e-05
0.000255758567
-7.36026474e-05
0.000300400236
-9.25204394e-05
0.000351594365
-0.000114490688
0.000410118904
-0.000139895179
0.000476799776
-0.000169143034
0.000552499451
-0.00020266656
0.000638101132
-0.00024091599
0.000734485916
-0.00028434827
0.000842501763
-0.000333414013
0.000962922589
-0.000388540207
0.00109639948
-0.000450108781
0.00124340215
-0.000518430475
0.0014041502
-0.000593712851
0.00157853152
-0.000676019848
0.00176601058
-0.000765227793
0.00196552615
-0.000860973155
0.00217547926
-0.000962684314
0.00239374059
-0.00106962023
0.00261766821
-0.00118082461
0.00284409304
-0.00129515164
0.00306939496
-0.00141123172
0.0032896277
-0.00152748584
0.00350049409
-0.00164202938
0.00369781035
-0.00175327963
0.0038780525
-0.00185997664
0.00403819558
-0.0019607985
0.00417463341
-0.00205475258
0.00428848085
-0.00214215509
0.00438183664
-0.00222347361
0.00446614207
-0.00230422156
0.00454502249
-0.00238606911
0.00462044314
-0.00246756029
0.0046925349
-0.00255245565
0.00476208858
-0.00263539471
0.00482937765
-0.00271762126
0.00489506423
-0.00280392827
0.00496232422
-0.00289380191
0.00502980946
-0.0029849075
0.00510311839
-0.00308124683
0.00517957588
-0.00317904807
0.00526050414
-0.00328125009
0.00534415467
-0.00338801869
0.00542913458
-0.00349956765
0.00550964684
-0.00360540519
0.00559095717
-0.00371226652
0.00567485765
-0.00382497164
-0.00394361328
0.00575816371
-1.50281997e-08
4.8833828e-07
-5.13276858e-08
1.47317033e-06
-9.91206386e-08
2.49662878e-06
-1.45802953e-07
3.55619245e-06
-1.75440704e-07
4.64455568e-06
-1.68358829e-07
5.75029072e-06
-1.0075808e-07
6.85873087e-06
5.56891314e-08
7.95255142e-06
3.34298903e-07
9.01210036e-06
7.73808033e-07
1.00156338e-05
1.4188422e-06
1.09392915e-05
2.32051448e-06
1.17569236e-05
3.53723901e-06
1.24398019e-05
5.13559075e-06
1.29562481e-05
7.19154261e-06
1.32707734e-05
9.79149546e-06
1.33438589e-05
1.30338132e-05
1.31306577e-05
1.70302824e-05
1.25807354e-05
2.19076504e-05
1.16368337e-05
2.78101372e-05
1.02333005e-05
3.48993513e-05
8.29763227e-06
4.33339638e-05
5.76975045e-06
5.33459193e-05
2.50330075e-06
6.51746174e-05
-1.58743796e-06
7.90894947e-05
-6.59063519e-06
9.53970561e-05
-1.27143865e-05
0.000114446737
-2.01048767e-05
0.000136674634
-2.89328389e-05
0.000162483609
-3.94052175e-05
0.000192329434
-5.17517438e-05
0.000226742842
-6.62274567e-05
0.000266302539
-8.31151428e-05
0.000311637586
-0.000102724997
0.000363426433
-0.000125394985
0.00042239061
-0.000151488357
0.000489285964
-0.000181390039
0.000564889772
-0.000215503248
0.000649982505
-0.000254240302
0.000745323327
-0.000298012196
0.000851616897
-0.000347214659
0.000969474013
-0.000402210772
0.00109936457
-0.000463310247
0.00124156357
-0.000530745158
0.00139609123
-0.000604642669
0.0015626482
-0.000684993962
0.00174054344
-0.000771614925
0.00192860588
-0.000864089401
0.00212513825
-0.000961767237
0.002327936
-0.00106377766
0.00253435598
-0.00116911079
0.00274129692
-0.0012765674
0.0029452296
-0.00138476333
0.00314246393
-0.00149239188
0.00332920559
-0.00159797923
0.00350267411
-0.00170096018
0.00365946212
-0.00179882325
0.00379719476
-0.00189101852
0.00391571102
-0.00197849958
0.00401620072
-0.0020612946
0.00410070244
-0.00213926127
0.00417629652
-0.00221775661
0.0042490926
-0.00229627713
0.00432063776
-0.00237577552
0.00438893326
-0.00245437402
0.00445493426
-0.00253357137
0.00451743181
-0.00261496379
0.00457636827
-0.00269434138
0.00463414341
-0.00277540651
0.00468849183
-0.00285828808
0.00473983751
-0.00294515944
0.00479112254
-0.00303620353
0.00484068674
-0.00313082195
0.00489497471
-0.00323334565
0.00495547541
-0.00334175924
0.00502342302
-0.00345597474
0.00509396732
-0.0035701191
0.00516784793
-0.00367928974
0.00524448977
-0.00378891151
0.00531852054
-0.00389900568
-0.00401235638
0.00538725961
-1.80100993e-09
4.89927372e-07
5.63057663e-09
1.46544338e-06
3.77382431e-08
2.46418495e-06
1.13744039e-07
3.47981254e-06
2.57200317e-07
4.50068936e-06
4.96441963e-07
5.51060382e-06
8.65031589e-07
6.48966033e-06
1.40221831e-06
7.41484692e-06
2.15343766e-06
8.26032453e-06
3.17097223e-06
8.9975018e-06
4.51469488e-06
9.59492787e-06
6.25285316e-06
1.00180785e-05
8.46330992e-06
1.02286096e-05
1.12344566e-05
1.01843131e-05
1.46665666e-05
9.83781892e-06
1.88731276e-05
9.13639402e-06
2.39827544e-05
8.02006383e-06
3.01407636e-05
6.42169118e-06
3.74949071e-05
4.28158192e-06
4.62467523e-05
1.48027511e-06
5.66073876e-05
-2.06425916e-06
6.88141788e-05
-6.43838669e-06
8.31358377e-05
-1.18198011e-05
9.98767447e-05
-1.83298882e-05
0.000119411727
-2.61272692e-05
0.000142090562
-3.53949896e-05
0.000168319426
-4.63356334e-05
0.000198558424
-5.91738645e-05
0.000233309753
-7.41587199e-05
0.000273119266
-9.15635888e-05
0.000318575631
-0.000111686327
0.000370305979
-0.00013484818
0.000428968885
-0.000161390783
0.000495244199
-0.000191673377
0.000569818748
-0.000226066196
0.000653367135
-0.000264941937
0.000746524917
-0.000308664774
0.000849856907
-0.000357576277
0.000963819011
-0.000411978536
0.00108871413
-0.00047211427
0.0012246431
-0.000538144498
0.00137145214
-0.000610124305
0.00152867946
-0.000687977753
0.00169550438
-0.000771473152
0.00187070094
-0.000860196397
0.00205258491
-0.000953504948
0.00223902517
-0.00105053565
0.00242751265
-0.00115026049
0.00261527222
-0.00125154282
0.0027992859
-0.00135312987
0.00297647031
-0.00145375709
0.00314385483
-0.00155215309
0.00329897675
-0.00164751909
0.0034397579
-0.00173876556
0.00356358225
-0.00182478948
0.00366982135
-0.00190506736
0.00376041296
-0.00198161552
0.00383778561
-0.00205587739
0.00390518416
-0.00212869879
0.00396821448
-0.00220229761
0.00402638426
-0.0022759329
0.00408070714
-0.00235060822
0.00413187337
-0.0024269506
0.00418224734
-0.0025047587
0.00423165041
-0.00258298803
0.00427915809
-0.00266248416
0.00432885565
-0.00274405065
0.00438081903
-0.00282738245
0.00443533996
-0.0029128213
0.00448868876
-0.00299852106
0.00454392307
-0.00309144773
0.00459595451
-0.00318286092
0.00464299525
-0.00328039361
0.00468435929
-0.00338312991
0.00472395802
-0.0034955799
0.00476927484
-0.00361544077
0.00482427721
-0.00373429488
0.00488884995
-0.0038534864
0.00495536024
-0.0039655183
-0.00406851524
0.00501151623
1.79988715e-08
4.71762631e-07
8.99902064e-08
1.39322289e-06
2.38812725e-07
2.3151031e-06
4.9215492e-07
3.22618265e-06
8.83118402e-07
4.10941094e-06
1.45076015e-06
4.94262011e-06
2.24063602e-06
5.69941486e-06
3.3054071e-06
6.34967729e-06
4.70553228e-06
6.85977012e-06
6.50999836e-06
7.19257406e-06
8.79745677e-06
7.30697306e-06
1.16570374e-05
7.15796372e-06
1.51896607e-05
6.69541148e-06
1.95096095e-05
5.86374633e-06
2.47459797e-05
4.60078388e-06
3.10342886e-05
2.84736972e-06
3.8548464e-05
5.05121699e-07
4.74735841e-05
-2.50425002e-06
5.80180612e-05
-6.26377932e-06
7.04171031e-05
-1.09197189e-05
8.4935136e-05
-1.65833156e-05
0.000101891145
-2.33954959e-05
0.000121587179
-3.15170187e-05
0.000144382037
-4.11260187e-05
0.000170673772
-5.24203727e-05
0.000200896264
-6.56189537e-05
0.000235520957
-8.09619124e-05
0.000275056261
-9.87108771e-05
0.000320044526
-0.000119148827
0.000371056735
-0.000142577779
0.000428684684
-0.000169316404
0.000493529696
-0.000199695476
0.000566187539
-0.000234051076
0.000647227444
-0.000272715906
0.000737166545
-0.000316008108
0.000836439161
-0.000364217557
0.000945360786
-0.000417589607
0.00106408763
-0.000476306546
0.00119257243
-0.000540466972
0.00133051874
-0.000610064436
0.00147733596
-0.000684965817
0.00163209916
-0.000764891827
0.00179351815
-0.000849401317
0.00195992164
-0.000937881493
0.00212925583
-0.00102953561
0.00229913733
-0.00112339145
0.00246697697
-0.00121838018
0.00263008861
-0.00131337693
0.00278580642
-0.00140726536
0.0029316395
-0.00149896763
0.00306547593
-0.00158759816
0.00318582856
-0.00167251031
0.00329154887
-0.00175324401
0.00338210088
-0.00182932255
0.00345880639
-0.00190150007
0.00352625402
-0.00197251954