/*--------------------------------*- C++ -*----------------------------------*\
  =========                 |
  \\      /  F ield         | OpenFOAM: The Open Source CFD Toolbox
   \\    /   O peration     | Website:  https://openfoam.org
    \\  /    A nd           | Version:  8
     \\/     M anipulation  |
\*---------------------------------------------------------------------------*/
FoamFile
{
    version     2.0;
    format      ascii;
    class       volVectorField;
    location    "0.029";
    object      U;
}
// * * * * * * * * * * * * * * * * * * * * * * * * * * * * * * * * * * * * * //

dimensions      [0 1 -1 0 0 0 0];

internalField   nonuniform List<vector> 
42400
(
(-0.0170610363 0.0163513771 -6.51169915e-27)
(-0.0507664559 0.0479795882 2.17513518e-26)
(-0.0846603205 0.0789237337 2.32923205e-26)
(-0.118775858 0.109126429 0)
(-0.153159489 0.138580377 0)
(-0.187853056 0.167265342 -4.90804104e-28)
(-0.222881051 0.195147662 0)
(-0.258241321 0.222179653 5.36262084e-28)
(-0.293903781 0.248299318 0)
(-0.329813883 0.27343314 5.84374436e-28)
(-0.365898806 0.297501447 6.09347892e-28)
(-0.402074278 0.320424363 -6.34875262e-28)
(-0.438250615 0.342127024 -3.20450025e-26)
(-0.47433725 0.362543454 -3.29612099e-26)
(-0.510245531 0.381618982 -7.14168275e-28)
(-0.545889968 0.399311368 0)
(-0.581188269 0.415590973 0)
(-0.616060566 0.430440324 0)
(-0.650428177 0.443853375 0)
(-0.684212194 0.455834728 0)
(-0.717332048 0.466398928 0)
(-0.749704145 0.475569935 -1.80491553e-27)
(-0.78124059 0.483380756 -4.49635547e-26)
(-0.811847915 0.489873235 -9.11143896e-26)
(-0.841425762 0.495097919 -4.61631471e-26)
(-0.869865379 0.499113952 -1.9941852e-27)
(-0.897047783 0.501988962 -2.03476871e-27)
(-0.92284144 0.503798892 4.14360748e-27)
(-0.947099465 0.504627786 0)
(-0.969656762 0.504567219 0)
(-0.990326618 0.503714457 5.42567671e-26)
(-1.00889355 0.50216813 5.47413299e-26)
(-1.02510304 0.500023064 4.35624391e-27)
(-1.03870745 0.497392897 -5.51078031e-26)
(-1.04948381 0.494423241 -4.35593308e-26)
(-1.0569224 0.491572975 0)
(-1.06065863 0.488286599 0)
(-1.06009008 0.48497223 0)
(-1.0552434 0.481223834 0)
(-1.04463125 0.478491411 -8.48089019e-26)
(-1.02745211 0.475963118 -7.96711035e-26)
(-1.00240312 0.473318353 -3.04451364e-26)
(-0.967458747 0.470808186 1.05557877e-25)
(-0.922519754 0.467921354 -1.04048366e-26)
(-0.86566056 0.465209645 -1.19208721e-25)
(-0.795330003 0.462516857 -1.72683614e-25)
(-0.709573965 0.459635999 1.03391031e-26)
(-0.606363505 0.456386908 2.13286707e-25)
(-0.483949614 0.452367391 9.24298111e-27)
(-0.339574747 0.44764946 4.24806456e-25)
(-0.173917549 0.442708801 7.45478794e-34)
(0.0213037581 0.43908562 -1.15879857e-24)
(0.240250634 0.436365412 -5.00810049e-25)
(0.503577282 0.4307864 3.5339389e-26)
(0.810202551 0.421769786 0)
(1.16356701 0.411581599 0)
(1.57006534 0.400995529 0)
(2.03597577 0.389641592 -5.52291549e-26)
(2.56568199 0.377505812 -5.73038278e-26)
(3.16457443 0.364785489 0)
(3.83785164 0.351243571 1.90544563e-24)
(4.58917679 0.336746515 1.91314603e-24)
(5.42116363 0.321670905 -1.86394061e-24)
(6.33552635 0.307335885 -1.66585542e-24)
(7.33131041 0.295650866 0)
(8.40436036 0.285590028 0)
(9.5515338 0.281326496 3.11624041e-25)
(10.728344 0.304800596 9.49290854e-25)
(11.9965883 0.278822374 5.2749346e-25)
(13.3878137 0.158582661 0)
(14.4724906 0.47807499 0)
(15.6265553 0.675308654 1.0030105e-24)
(17.6132988 -0.27919745 1.06566434e-24)
(18.8111591 -0.433822065 0)
(18.9788493 1.60385838 1.97903629e-24)
(20.2732911 1.4758339 -1.81017227e-25)
(22.3129994 -0.572698744 1.15864962e-23)
(23.4120309 -1.16501307 -3.54144705e-24)
(23.5959747 -0.539238865 -1.14815607e-23)
(23.5342899 0.807886526 -7.26816377e-24)
(-0.0200165748 0.0177483859 0)
(-0.0595716259 0.0523304865 1.63755406e-26)
(-0.0993677402 0.0864952463 1.72033436e-26)
(-0.139453081 0.120213761 0)
(-0.179835605 0.15345195 0)
(-0.220506803 0.186148875 1.81046137e-26)
(-0.261419628 0.218217605 1.92322625e-26)
(-0.302498764 0.249554591 5.84148879e-28)
(-0.343644439 0.280045627 0)
(-0.384738605 0.30957149 6.38060682e-28)
(-0.425652212 0.33801413 6.66271623e-28)
(-0.466251898 0.365262261 -2.14752784e-26)
(-0.506405111 0.391215576 -4.27706571e-26)
(-0.545983314 0.415787366 -2.19686652e-26)
(-0.58486337 0.438905682 2.13625198e-26)
(-0.622927436 0.460513369 2.39192446e-26)
(-0.660061826 0.480567371 0)
(-0.696155248 0.499037655 1.75259867e-27)
(-0.731096775 0.515906055 0)
(-0.764773785 0.531165213 0)
(-0.797069974 0.544817719 0)
(-0.827863491 0.55687547 -2.51732442e-26)
(-0.857025159 0.56735924 -4.88391301e-26)
(-0.88441667 0.576298416 -2.36434037e-26)
(-0.90988857 0.583730855 0)
(-0.933278034 0.589702767 -4.55337356e-27)
(-0.954405997 0.594268005 -2.34405775e-27)
(-0.973072829 0.597486936 4.80504459e-27)
(-0.989051933 0.599426221 -2.45819874e-26)
(-1.00209675 0.600164221 -2.54611581e-26)
(-1.01195749 0.599781137 -4.97898519e-27)
(-1.01839409 0.5983392 -4.94983709e-27)
(-1.02090128 0.596165669 1.71734233e-26)
(-1.0193675 0.592941311 2.9136152e-26)
(-1.01315813 0.589130303 -2.58747897e-26)
(-1.00220989 0.584498162 2.0143106e-26)
(-0.985513958 0.579832465 0)
(-0.96179414 0.574621844 6.13257034e-27)
(-0.929643124 0.568854919 0)
(-0.888509984 0.562218773 1.24341588e-26)
(-0.837300295 0.555107599 5.85960686e-26)
(-0.774730527 0.547716652 5.99386573e-26)
(-0.699451866 0.540066887 1.16415641e-26)
(-0.609630077 0.532052732 -1.17369615e-26)
(-0.503258803 0.523509943 2.23052367e-26)
(-0.378832929 0.513926223 -1.1113833e-26)
(-0.233017222 0.503310466 1.23002097e-26)
(-0.06456997 0.493390445 4.03921674e-25)
(0.125399698 0.486544247 3.04581323e-25)
(0.340981006 0.479866255 0)
(0.60436182 0.468851603 -1.50683777e-26)
(0.907166973 0.455124553 3.29918919e-26)
(1.25472014 0.441509773 5.82655025e-25)
(1.65368677 0.42801323 6.88536371e-25)
(2.10883635 0.414299904 3.60293246e-26)
(2.62565719 0.400490477 1.61343063e-24)
(3.20967048 0.386569187 1.7717265e-24)
(3.86579773 0.372460168 -2.45577959e-26)
(4.59789295 0.358471792 -1.39602277e-26)
(5.40913368 0.345381695 2.64513342e-24)
(6.30127539 0.33443471 2.9297599e-24)
(7.27366332 0.326972366 -5.87729142e-26)
(8.32173837 0.323824499 8.59371211e-26)
(9.43867826 0.324850157 0)
(10.614884 0.331856969 -2.61511223e-24)
(11.8382972 0.343436493 -5.93060592e-24)
(13.1109673 0.351791519 -2.39267022e-24)
(14.3615738 0.402484399 0)
(15.5908201 0.494070582 1.42321514e-26)
(17.004689 0.343131376 7.70233667e-25)
(18.2676405 0.295574185 1.72501001e-24)
(18.9984002 0.960438886 2.69161261e-24)
(20.2797557 0.892655976 -3.46105705e-24)
(21.8933084 -0.218279482 -1.6895461e-24)
(22.6824374 0.0324231878 3.56754708e-26)
(22.942337 1.22603541 1.56986377e-23)
(23.3618063 1.18087036 1.93866197e-23)
(23.6924094 0.414550493 -4.37285973e-24)
(23.7702418 0.145168205 -1.7815198e-23)
(23.8302689 0.0624457024 -1.62770311e-23)
(-0.0224164012 0.0183696478 1.72697126e-27)
(-0.0667386738 0.0543538762 2.3060048e-28)
(-0.111373238 0.0901584296 -2.43957822e-28)
(-0.156383769 0.125783067 2.54155529e-28)
(-0.201763061 0.161185146 0)
(-0.247430678 0.196263592 -1.28763164e-26)
(-0.293276676 0.230890524 5.49343558e-34)
(-0.3391536 0.264920816 1.31074078e-26)
(-0.384887782 0.298198749 1.31742742e-26)
(-0.430293211 0.330567456 2.62850094e-26)
(-0.475179133 0.361876841 1.37040286e-26)
(-0.519356679 0.391989004 7.44397713e-28)
(-0.562643305 0.42078165 7.77728389e-28)
(-0.60486485 0.448149697 1.18551451e-26)
(-0.645855583 0.474005425 1.12459783e-26)
(-0.685456789 0.498277622 2.64408498e-27)
(-0.72351446 0.520910167 -1.15489692e-26)
(-0.759876532 0.54186044 -1.76274236e-26)
(-0.794390032 0.561097834 -7.83654488e-27)
(-0.82689834 0.578602507 2.05422451e-27)
(-0.857238542 0.594364485 -2.12883884e-27)
(-0.885238816 0.608383269 -2.20296636e-27)
(-0.910716091 0.62066788 0)
(-0.933473143 0.63123687 4.70442347e-27)
(-0.953291987 0.640115871 5.50648179e-28)
(-0.969933563 0.647335096 2.29201972e-31)
(-0.983143877 0.65292571 1.01735446e-27)
(-0.99265544 0.656916948 4.43080474e-27)
(-0.998130531 0.659406647 1.26660748e-26)
(-0.999323224 0.660347095 -1.76201511e-26)
(-0.995884275 0.659961951 -5.55324144e-27)
(-0.987429716 0.658471244 4.44991851e-26)
(-0.97385316 0.655785174 1.16350741e-26)
(-0.953848703 0.652295207 0)
(-0.92654253 0.647569856 0)
(-0.890762219 0.641584028 -6.36911982e-27)
(-0.845514897 0.634420583 0)
(-0.790320178 0.62622287 1.21834333e-26)
(-0.723913202 0.617303341 5.73773526e-26)
(-0.645010764 0.607680735 2.44379438e-26)
(-0.55189419 0.597319268 -6.29806154e-26)
(-0.442775798 0.586201599 0)
(-0.316264081 0.57402219 0)
(-0.169394 0.56094159 2.20005128e-25)
(-0.000370282112 0.548873157 2.52152822e-25)
(0.186619992 0.538605367 1.13212756e-26)
(0.410219374 0.526321136 0)
(0.668919216 0.511858491 0)
(0.966905918 0.496897658 3.7894006e-25)
(1.30928808 0.482271129 4.13217196e-25)
(1.70148941 0.467866896 -9.46014536e-27)
(2.14775167 0.453589627 0)
(2.65356143 0.439724239 -5.49794892e-25)
(3.22446337 0.426413375 -6.62562105e-25)
(3.86528571 0.413837811 -1.62712349e-24)
(4.58024008 0.402631295 -2.02299121e-24)
(5.37302216 0.394019543 -2.39919991e-24)
(6.24555627 0.389190797 5.26396543e-33)
(7.19704831 0.38893562 -1.05747604e-32)
(8.22395418 0.39390282 -7.24844006e-24)
(9.31944102 0.404634328 -3.94300718e-24)
(10.474629 0.42179877 4.08434857e-24)
(11.6785873 0.446617996 4.41082381e-24)
(12.9180835 0.478394655 0)
(14.178384 0.516644096 5.11778493e-24)
(15.4372795 0.565275728 9.81197698e-24)
(16.696065 0.610047246 5.22282748e-24)
(17.9240409 0.638035866 0)
(19.0102556 0.789468719 -2.60881618e-26)
(20.0751118 0.876311111 7.50366698e-24)
(21.3030065 0.638398051 6.96388267e-24)
(22.1262109 0.692191158 0)
(22.6947887 1.23261422 0)
(23.4101558 1.06438547 1.32199625e-24)
(23.7734322 0.588470509 -1.73526824e-24)
(23.8433169 0.735995482 5.59272303e-24)
(23.8545691 0.983680766 1.24099782e-23)
(23.7805082 1.0339707 0)
(23.7821585 0.874897065 -2.23784546e-24)
(23.7671103 0.66205361 1.30105381e-23)
(-0.0243668604 0.0184246587 1.54262765e-28)
(-0.0725839063 0.0546371816 2.42874237e-28)
(-0.121202584 0.0908366991 4.45130062e-27)
(-0.170304421 0.127048283 -3.83100079e-27)
(-0.219855835 0.163223895 -4.38830294e-27)
(-0.269734705 0.199243562 0)
(-0.319746306 0.234940724 -8.89745479e-27)
(-0.369653681 0.27013157 -9.00007087e-27)
(-0.419226647 0.304631868 -7.63327012e-27)
(-0.468204793 0.338261259 -6.9596711e-27)
(-0.516329334 0.370846326 -4.65508932e-27)
(-0.563350606 0.4022295 1.93231517e-34)
(-0.609029992 0.432272728 8.34685075e-28)
(-0.653140844 0.460858182 1.12062985e-33)
(-0.695467351 0.487887506 -9.13027281e-28)
(-0.735801829 0.513280222 2.65555179e-27)
(-0.773941082 0.536971733 -4.73172638e-27)
(-0.809682274 0.558911364 -2.06888755e-27)
(-0.84281911 0.579061111 7.35225884e-27)
(-0.873139263 0.597394612 2.23707085e-27)
(-0.90041506 0.613893555 -4.66079906e-27)
(-0.924399676 0.628542329 -1.54255833e-26)
(-0.944826395 0.641329666 -1.71275818e-26)
(-0.96142685 0.65221988 2.57495109e-27)
(-0.973866706 0.66124988 0)
(-0.981892448 0.668451125 2.71924076e-27)
(-0.985203903 0.67392716 0)
(-0.983487831 0.677810243 4.16716208e-26)
(-0.976493951 0.680197459 6.93521849e-26)
(-0.963333895 0.681097893 3.60035733e-26)
(-0.943252811 0.680365251 -2.90030852e-26)
(-0.915429797 0.677939826 -4.20433747e-26)
(-0.878721726 0.673876099 1.29523618e-26)
(-0.83259579 0.668291352 6.51277811e-27)
(-0.776211111 0.661416143 -7.34598876e-26)
(-0.708442482 0.653367975 -8.389117e-26)
(-0.628053689 0.644202595 0)
(-0.533468849 0.633959994 9.53119963e-26)
(-0.422976695 0.622682047 7.99627472e-26)
(-0.295146602 0.610124893 1.20345861e-26)
(-0.147254027 0.596435144 1.29665312e-26)
(0.022710693 0.583503961 0)
(0.210141453 0.572162657 0)
(0.433822029 0.558870987 0)
(0.691424261 0.5437266 1.26741771e-26)
(0.987128884 0.528506932 2.99147946e-25)
(1.32570168 0.51381697 3.06432249e-25)
(1.71164407 0.499681274 0)
(2.14992865 0.48627467 0)
(2.64589193 0.473815158 4.5479513e-25)
(3.20485873 0.462469577 5.57230511e-25)
(3.8317936 0.452816002 7.10786945e-25)
(4.5312471 0.445941928 8.58236391e-25)
(5.30690267 0.442936793 2.87765759e-26)
(6.16072567 0.444683375 -1.12968154e-24)
(7.09252016 0.451962192 -1.4739476e-24)
(8.09944774 0.465557391 -3.35493857e-24)
(9.17606039 0.486418762 -4.16484977e-24)
(10.3130063 0.51573553 0)
(11.4986522 0.55366644 -1.88161345e-25)
(12.722134 0.6000119 -4.79203614e-24)
(13.9674021 0.653707204 -9.91707674e-24)
(15.2199886 0.716162593 2.58944334e-25)
(16.4555033 0.786974091 2.81050984e-25)
(17.662484 0.857413652 -6.73942935e-24)
(18.8223118 0.932778754 6.68896516e-24)
(19.8911381 1.02035891 7.10439891e-24)
(20.9284577 1.0659269 -7.77565992e-25)
(21.832268 1.11080722 -3.56012781e-24)
(22.5591668 1.26084631 -8.42133675e-24)
(23.2091387 1.27235766 7.70433047e-26)
(23.7634546 1.13705861 -1.61126528e-23)
(23.8761206 1.11383811 -4.60629241e-24)
(23.8847091 1.2394375 0)
(23.8335675 1.32742517 -1.05909443e-23)
(23.8200816 1.19030802 -2.41948643e-23)
(23.8577338 1.05083928 2.39224483e-24)
(23.8691393 1.06838081 8.14767168e-24)
(23.9053454 1.09512182 1.20501788e-23)
(23.8428604 1.06903934 1.17394093e-23)
(-0.0261498527 0.0182053967 1.35143548e-27)
(-0.077915534 0.0540213317 0)
(-0.13015583 0.0898886824 0)
(-0.182965481 0.125849902 1.13747428e-30)
(-0.236280575 0.161852061 0)
(-0.289918159 0.197759827 0)
(-0.343619046 0.233391096 0)
(-0.397083702 0.268536902 -1.42580492e-27)
(-0.449961571 0.302977887 0)
(-0.50190504 0.336512067 7.89610177e-28)
(-0.552622897 0.36895604 6.47699215e-28)
(-0.601789328 0.400151406 1.09190277e-33)
(-0.649102083 0.429952388 -2.04148169e-27)
(-0.694274539 0.45823586 0)
(-0.737031301 0.484900512 -1.00269002e-27)
(-0.777104439 0.509864363 2.0994854e-27)
(-0.814228732 0.533061612 0)
(-0.848129064 0.554440473 1.83199276e-26)
(-0.878519481 0.573950126 2.40243462e-27)
(-0.905119655 0.591524373 -4.07315069e-26)
(-0.927582033 0.607200048 -2.68314632e-26)
(-0.945643271 0.620963069 2.65288766e-27)
(-0.959014113 0.632849671 0)
(-0.967358751 0.64298308 -4.99285432e-26)
(-0.97020857 0.651254436 -5.68202071e-26)
(-0.966955186 0.657651767 -5.76037192e-26)
(-0.956989501 0.662165344 -6.42205003e-26)
(-0.939602456 0.664756315 6.99149617e-26)
(-0.913909452 0.665421764 7.55249267e-26)
(-0.879371696 0.664352197 0)
(-0.835210469 0.661681256 -8.99351177e-26)
(-0.780428931 0.657473622 -9.47632472e-26)
(-0.713938592 0.651788886 6.92075267e-27)
(-0.634489321 0.644694684 -1.0085098e-25)
(-0.540548685 0.636266745 -1.12351646e-25)
(-0.430474465 0.626579865 -1.41958492e-26)
(-0.302798231 0.6154644 7.22090599e-27)
(-0.155012879 0.603095644 -2.00135058e-25)
(0.014888082 0.591234977 -2.06449689e-25)
(0.202657509 0.580610537 1.2872404e-25)
(0.425920739 0.568234489 2.65578551e-25)
(0.682298148 0.554291474 2.33986855e-25)
(0.975690113 0.540591002 0)
(1.31065996 0.52765472 -1.36768332e-26)
(1.69137055 0.515501252 -2.97002608e-25)
(2.12261356 0.504426813 -1.15784999e-26)
(2.60953819 0.494745493 1.83351522e-33)
(3.15727403 0.486980426 -5.0275547e-25)
(3.77081222 0.481951052 0)
(4.45454558 0.480555161 1.25411685e-27)
(5.21202862 0.483609234 -8.66212509e-25)
(6.04549255 0.491873677 -1.06108593e-24)
(6.95549693 0.506121873 1.16102109e-25)
(7.94060966 0.527290353 -1.39519239e-24)
(8.99667158 0.556426997 -1.87624641e-24)
(10.1164076 0.59458782 -2.24260611e-24)
(11.2880532 0.64311499 -7.50233107e-24)
(12.4975298 0.702179913 -5.31957269e-24)
(13.7312777 0.772290591 -5.30500296e-24)
(14.9705647 0.851211141 -5.82898261e-24)
(16.2039821 0.938245761 0)
(17.4053539 1.02726379 3.16916885e-25)
(18.5721425 1.12026617 -5.64006142e-24)
(19.6561995 1.21861864 -6.30228826e-24)
(20.6706471 1.30966731 -2.98675161e-26)
(21.6049394 1.39343643 0)
(22.4175704 1.45898019 1.03447276e-23)
(23.1189308 1.52832061 1.20256543e-23)
(23.5860341 1.52284212 1.07408926e-24)
(23.8407175 1.57130467 -1.02971044e-24)
(23.8749494 1.63764052 -2.55705173e-26)
(23.8836052 1.61883163 -1.94393206e-24)
(23.8668626 1.58815644 -5.94849333e-24)
(23.8662528 1.5043712 -1.17290132e-23)
(23.8796711 1.46965479 -8.88394724e-25)
(23.9125011 1.47072798 0)
(23.9346101 1.45607651 -8.71539393e-24)
(23.9134246 1.41402012 -7.90046727e-24)
(24.025007 1.29588221 0)
(24.0455398 1.27113225 -9.57949766e-24)
(-0.0280360761 0.0179239623 -2.65205808e-27)
(-0.0834991037 0.0531361948 -3.9610169e-27)
(-0.139445316 0.0883612011 -4.5351697e-27)
(-0.195968779 0.123647724 -3.21881309e-28)
(-0.252963229 0.158936618 3.38735675e-27)
(-0.310178083 0.194077791 -7.15145085e-28)
(-0.367272913 0.228871812 -1.55455954e-27)
(-0.423856872 0.263099571 -2.39995487e-27)
(-0.479517951 0.296540485 8.36825076e-28)
(-0.533851075 0.328973541 1.76258574e-27)
(-0.586403507 0.360204806 3.76243196e-29)
(-0.636800601 0.390066677 -8.25491562e-27)
(-0.684695043 0.4184213 -9.14966005e-27)
(-0.729717218 0.445159154 -1.17392294e-26)
(-0.771513262 0.470184341 1.13242675e-27)
(-0.809735042 0.493423187 2.19328091e-26)
(-0.844057476 0.514784497 0)
(-0.874105108 0.53428062 0)
(-0.899546018 0.551914939 3.62944899e-26)
(-0.919967551 0.567618912 9.65481583e-26)
(-0.934954739 0.581359454 5.48963026e-26)
(-0.943987423 0.593141083 6.12279718e-26)
(-0.946494916 0.602944423 9.45237496e-34)
(-0.941843421 0.610725308 -7.54631783e-26)
(-0.929476635 0.616612446 7.50225658e-26)
(-0.908737014 0.620668314 1.71544687e-25)
(-0.878840601 0.622925269 8.98553582e-26)
(-0.838902992 0.623432231 -3.7014864e-27)
(-0.787941487 0.622239346 3.80904525e-27)
(-0.724847784 0.619415141 -7.8489016e-27)
(-0.648343804 0.615050002 0)
(-0.556933928 0.60924215 1.39986108e-25)
(-0.449011947 0.602083125 -8.32135787e-27)
(-0.323068295 0.593473519 -1.46133059e-25)
(-0.176780714 0.583617308 0)
(-0.00821820961 0.574067719 -2.20935004e-25)
(0.179148044 0.565401861 -1.3540202e-25)
(0.401033805 0.55531021 0)
(0.655463713 0.543968476 0)
(0.945993313 0.533092954 -2.49004413e-25)
(1.27691599 0.523205971 -2.63180548e-25)
(1.65215363 0.514390129 3.47133667e-26)
(2.07624939 0.507066846 0)
(2.5541177 0.501774992 3.73866457e-25)
(3.09058259 0.499155193 9.02561746e-25)
(3.69023722 0.499913386 5.33582988e-25)
(4.35719565 0.504803827 8.4517451e-27)
(5.09488845 0.514563377 -1.90720409e-27)
(5.9057768 0.529924561 0)
(6.79103371 0.551686175 -1.14943382e-24)
(7.75011017 0.5806877 4.76043958e-26)
(8.78021985 0.617752945 1.72749479e-24)
(9.87581102 0.663651733 1.14780174e-25)
(11.0281328 0.719105112 -2.31988647e-24)
(12.2242027 0.785047616 -5.66631931e-24)
(13.4480973 0.861843963 2.65619958e-32)
(14.6836172 0.949618702 2.99219116e-24)
(15.9121389 1.04597041 0)
(17.1175929 1.15146342 0)
(18.2742449 1.2605617 3.17339748e-25)
(19.3783212 1.37378192 3.45623526e-25)
(20.388551 1.47793648 0)
(21.3412441 1.57679933 7.36872676e-24)
(22.1463638 1.66254722 6.97322031e-24)
(22.9049678 1.73228302 -1.01228506e-23)
(23.4176943 1.77846645 -3.04130675e-23)
(23.734716 1.79915051 -1.13982822e-23)
(23.8203683 1.83291127 -6.92795934e-24)
(23.8719995 1.8413157 -5.18807392e-24)
(23.8818102 1.82360489 -1.95646118e-24)
(23.8743842 1.81353852 8.1784174e-24)
(23.8706184 1.77314135 1.18439954e-23)
(23.8694759 1.77106161 -9.99122651e-24)
(23.8690567 1.75459356 -1.09789598e-23)
(23.9392412 1.65950755 -1.34941139e-23)
(24.0149232 1.56849222 -1.2699266e-23)
(24.0299812 1.55524352 -1.30310888e-23)
(24.0240129 1.55290989 1.55158056e-31)
(24.0294901 1.55156931 1.74577012e-23)
(24.0240383 1.45297674 2.58615775e-23)
(-0.0302147109 0.0176808857 1.5543098e-27)
(-0.0898425986 0.0522891459 3.3487772e-28)
(-0.149837172 0.0867818328 4.42930755e-27)
(-0.210272839 0.121204741 -5.8493475e-34)
(-0.270985765 0.155491179 -3.44415462e-27)
(-0.331645311 0.189479908 -3.52588754e-27)
(-0.391819623 0.222960485 -3.57337241e-27)
(-0.451022246 0.255704847 -1.60617182e-27)
(-0.508743818 0.287487747 6.25639913e-28)
(-0.564473497 0.318100362 1.97904832e-27)
(-0.617718127 0.347351682 3.15391562e-27)
(-0.667986682 0.375072831 3.23451212e-27)
(-0.714792628 0.40113042 6.07776018e-27)
(-0.757704463 0.425416285 9.98026262e-27)
(-0.796284259 0.447884718 1.29436965e-27)
(-0.83011324 0.468436875 1.35394773e-27)
(-0.858696836 0.487088443 4.20190465e-26)
(-0.881579568 0.503756623 4.89052188e-26)
(-0.898225206 0.51841106 -3.06993586e-27)
(-0.908097651 0.531141631 -3.23890502e-27)
(-0.91061783 0.541925185 6.45575946e-26)
(-0.905120992 0.55078677 7.27823201e-26)
(-0.890887098 0.557756898 0)
(-0.86708921 0.56287363 3.81878394e-27)
(-0.832851015 0.566181476 0)
(-0.787171511 0.567756919 0)
(-0.728924492 0.567689165 4.25717986e-27)
(-0.656832023 0.566078548 -1.42176756e-25)
(-0.569415768 0.563035023 -1.37172739e-25)
(-0.465072108 0.558668102 1.33662336e-25)
(-0.342252516 0.552943204 1.57958807e-25)
(-0.198855222 0.546063425 9.70207794e-27)
(-0.0330262548 0.53934596 -9.83863675e-27)
(0.152678039 0.533269671 0)
(0.371816458 0.526190124 1.05687863e-26)
(0.623025125 0.518266761 0)
(0.909558333 0.511039617 0)
(1.23545395 0.505039587 1.11037709e-26)
(1.60440735 0.500476711 0)
(2.0206299 0.497866565 0)
(2.48861865 0.497780101 3.63118784e-25)
(3.01280315 0.500857532 4.3531158e-25)
(3.59743338 0.507796672 0)
(4.24638278 0.51933785 0)
(4.96298885 0.536260563 0)
(5.74980738 0.559365179 9.42212177e-27)
(6.60824547 0.589441743 9.53192272e-28)
(7.53820982 0.62723313 1.23087804e-24)
(8.53771384 0.67338727 1.49140471e-24)
(9.60247738 0.728391248 1.81316445e-24)
(10.7256318 0.792546361 2.19648865e-24)
(11.8971891 0.865958849 2.68128026e-24)
(13.1037002 0.948617099 3.05910367e-24)
(14.3283337 1.04028619 0)
(15.5535027 1.14034034 0)
(16.759704 1.24722771 -3.2987154e-24)
(17.9271399 1.36009227 -7.1105279e-24)
(19.0354645 1.47465386 -3.86214395e-24)
(20.0695113 1.5886892 -3.98773271e-24)
(21.0028949 1.69777249 -3.38985729e-24)
(21.840898 1.79891738 8.99402937e-24)
(22.5408576 1.88250472 1.90237842e-23)
(23.1699984 1.93287073 4.22044394e-25)
(23.597452 1.98035033 -1.43234431e-23)
(23.7323805 1.99823743 5.31581838e-25)
(23.7637348 2.04662481 -1.06730745e-24)
(23.7799795 2.07327754 7.35434566e-24)
(23.8051479 2.01316711 -1.12735176e-31)
(23.8187687 2.02005277 -1.04323309e-23)
(23.8445941 1.94511997 -1.15816038e-24)
(23.8507614 1.93207086 9.19570976e-24)
(23.8531729 1.92149115 9.6968585e-24)
(23.8740462 1.86518903 0)
(23.8844916 1.80926546 1.65734831e-24)
(23.910894 1.81948135 0)
(23.9942082 1.70170575 1.09834436e-23)
(24.0259342 1.63503945 3.08158463e-23)
(24.0172845 1.63582807 1.16992264e-23)
(24.0199945 1.6052349 1.01389173e-23)
(24.0276706 1.57229297 2.76805408e-23)
(-0.0326831952 0.0174388719 1.64093181e-27)
(-0.0968996748 0.0514047544 5.15309332e-27)
(-0.16118954 0.0850767815 -4.20889029e-28)
(-0.225577403 0.118486929 -3.92176296e-27)
(-0.289818153 0.151556738 -2.97259461e-27)
(-0.3534811 0.184115021 -2.40523107e-27)
(-0.416025032 0.215944893 -1.04038112e-27)
(-0.476850747 0.246816065 -1.91278296e-27)
(-0.535336677 0.276504799 -3.66130595e-27)
(-0.590863424 0.304806883 -5.68425527e-27)
(-0.642827804 0.331546753 0)
(-0.690640273 0.356598374 -2.66165582e-27)
(-0.733741295 0.379827887 1.39808375e-27)
(-0.771552845 0.401165308 0)
(-0.803512896 0.420524943 0)
(-0.829028305 0.437918513 0)
(-0.847512609 0.45331482 0)
(-0.858325701 0.46672433 -1.75862194e-27)
(-0.860772863 0.478170474 0)
(-0.854109146 0.487680504 -4.2757121e-26)
(-0.83750674 0.495319756 -4.78670884e-26)
(-0.810067097 0.501147947 9.41680408e-26)
(-0.770781727 0.505251324 1.0891594e-25)
(-0.718528575 0.507729014 -1.15487041e-25)
(-0.65204616 0.508696176 -1.36092997e-25)
(-0.569884261 0.508281931 -1.41596508e-25)
(-0.470449623 0.506616158 -1.41400534e-25)
(-0.352135166 0.503705467 -1.70667189e-25)
(-0.212959171 0.499733171 -4.06532036e-25)
(-0.0511078309 0.495814925 -2.17577965e-25)
(0.131534504 0.49252214 0)
(0.345741005 0.488793956 -1.15842428e-26)
(0.592311487 0.484517218 -1.21105067e-26)
(0.873480353 0.481040827 0)
(1.19297184 0.479053684 1.20892583e-26)
(1.55422268 0.478860485 0)
(1.96112513 0.480996129 0)
(2.41781969 0.486051419 3.65621392e-25)
(2.92839375 0.494685604 -1.24903296e-26)
(3.49680545 0.507632943 -4.53556829e-25)
(4.12671773 0.525688426 5.35862521e-25)
(4.82131538 0.549674658 6.11286753e-25)
(5.58312735 0.580412254 8.55846989e-27)
(6.41368333 0.618689957 0)
(7.31320928 0.665234378 1.02826048e-24)
(8.2802931 0.720662854 1.24779823e-24)
(9.31154268 0.785425504 0)
(10.4012544 0.859734471 0)
(11.5411162 0.943518573 -2.16922264e-24)
(12.7198304 1.03631121 -2.58697228e-24)
(13.9233329 1.13733656 3.0829997e-24)
(15.1338191 1.24525558 3.38163756e-24)
(16.3334823 1.35831873 -3.41164273e-24)
(17.5029427 1.47439861 2.91298704e-32)
(18.6218654 1.59134247 3.96305826e-24)
(19.6699626 1.70673296 2.04859006e-26)
(20.6272168 1.81663955 0)
(21.4771302 1.9207335 2.98048517e-25)
(22.2078996 2.00775903 -4.54384133e-24)
(22.8137857 2.08318125 3.59755811e-25)
(23.2793496 2.12780112 5.61499138e-24)
(23.6506305 2.17372205 0)
(23.7376157 2.18591829 4.3694878e-25)
(23.740516 2.23205565 0)
(23.730779 2.24094736 3.24690508e-25)
(23.747558 2.20498675 -3.63481122e-25)
(23.7578443 2.18686183 -9.5014245e-25)
(23.7751588 2.15683166 -1.12095286e-23)
(23.8085958 2.11720858 -1.23691926e-23)
(23.8354647 2.08802053 -7.40499501e-25)
(23.8538785 2.03127341 -1.41588344e-23)
(23.8521857 2.02878836 -1.19003902e-23)
(23.8744873 2.01002479 -1.18674024e-23)
(23.8921759 1.98298874 -1.0763711e-23)
(23.9307589 1.94112458 -1.35439995e-23)
(24.0039212 1.91513787 -1.24859778e-23)
(24.0555343 1.85175521 1.44360398e-23)
(24.0545381 1.82711833 1.06254503e-23)
(24.0652021 1.80598559 -1.78872705e-24)
(24.0948565 1.76134353 2.48065009e-24)
(-0.0351985582 0.0170427536 1.40928337e-27)
(-0.103922703 0.0500586451 -4.7905599e-27)
(-0.172215531 0.0825962307 -5.09661083e-28)
(-0.240013562 0.11466653 -5.2323005e-34)
(-0.306960645 0.146175658 -1.2189373e-27)
(-0.372502186 0.176944705 -5.93271215e-28)
(-0.435969149 0.206756366 1.9041206e-27)
(-0.496635539 0.235387062 9.91545055e-34)
(-0.553751887 0.262635686 -1.19776053e-26)
(-0.606572437 0.288304786 -9.51260837e-27)
(-0.654350727 0.312246605 1.51724857e-27)
(-0.696361584 0.334323444 -1.64443291e-26)
(-0.731877499 0.354474043 -1.6380359e-26)
(-0.760189891 0.372633701 -2.181475e-26)
(-0.780570803 0.388781946 -2.59177565e-26)
(-0.792269106 0.402926186 3.03837985e-26)
(-0.794492343 0.41510243 3.50510239e-26)
(-0.786400486 0.425350405 -2.0585158e-27)
(-0.767057004 0.433761546 0)
(-0.735466552 0.440416124 -4.85195945e-26)
(-0.690513959 0.44543174 -5.66027444e-26)
(-0.630959182 0.448940663 -4.90724707e-27)
(-0.555402598 0.45109419 6.85492428e-26)
(-0.462293298 0.452046388 7.76879296e-26)
(-0.35003248 0.451851713 -1.07831437e-26)
(-0.21668342 0.450713586 0)
(-0.0604491805 0.449565167 5.81342767e-27)
(0.117390788 0.448964533 1.17693402e-28)
(0.32532092 0.448294381 -2.00192579e-25)
(0.565519035 0.447406543 -2.40198598e-25)
(0.839498039 0.447472455 2.7200531e-25)
(1.15075153 0.449268701 2.63311326e-25)
(1.5025526 0.453150681 -2.67908154e-26)
(1.89846053 0.459641751 -3.14013328e-25)
(2.34228422 0.46937349 -9.73232892e-33)
(2.83781053 0.483048513 3.98585143e-25)
(3.38872844 0.501430061 -4.60751085e-25)
(3.99848567 0.525332758 -5.06878828e-25)
(4.67010844 0.555595553 -2.37945783e-26)
(5.40608637 0.593052324 1.10098775e-26)
(6.20805575 0.638505022 8.35483015e-27)
(7.07652989 0.692696832 -9.16587647e-25)
(8.01059491 0.756265047 -2.17320467e-24)
(9.00759737 0.829685193 -1.29731731e-24)
(10.0628424 0.913210997 -1.53775126e-24)
(11.1693135 1.00681327 -1.84914837e-24)
(12.3174181 1.11011494 0)
(13.4948037 1.22232808 2.650378e-24)
(14.6862573 1.3423079 3.12373175e-24)
(15.873173 1.46827689 3.40703772e-24)
(17.0366221 1.5977532 7.13262473e-24)
(18.1576933 1.72766609 7.45270976e-24)
(19.217315 1.85441092 7.88261577e-24)
(20.1969819 1.9749826 8.3015786e-24)
(21.0784265 2.08581676 4.35556542e-24)
(21.846285 2.18598621 -4.25550649e-25)
(22.4881364 2.26870298 0)
(23.0000881 2.33930934 -4.51380794e-24)
(23.3739004 2.38872682 -4.52176511e-24)
(23.6455372 2.41138179 0)
(23.7696791 2.43487418 -5.98386652e-24)
(23.7566091 2.44273992 -4.13932788e-24)
(23.7360294 2.44940539 0)
(23.7430362 2.420386 -4.14884854e-25)
(23.748644 2.41065036 0)
(23.7926276 2.38928303 -1.06896007e-23)
(23.8135122 2.36838312 -1.31389119e-24)
(23.820942 2.37055879 9.44348725e-24)
(23.8493212 2.33979984 -1.11880218e-24)
(23.8845675 2.32521153 -1.07474196e-24)
(23.920153 2.29639053 -1.09556751e-23)
(23.9534616 2.2722858 -1.00431107e-23)
(23.9888054 2.25706975 -9.82351355e-25)
(24.0310438 2.241375 -9.77450327e-25)
(24.0846978 2.22858052 -5.00481256e-26)
(24.1465686 2.20317364 -1.08326227e-24)
(24.179655 2.19823095 1.36701731e-23)
(24.1778909 2.17376155 1.94981228e-23)
(24.1835744 2.16727852 7.29424206e-24)
(24.2102836 2.12096648 -2.33375401e-24)
(-0.0373773225 0.0163254731 0)
(-0.109733976 0.0477737557 -5.8905863e-28)
(-0.180904469 0.0785822767 6.19203416e-28)
(-0.25070038 0.108744303 -1.32503756e-27)
(-0.318625527 0.13815007 6.85147253e-28)
(-0.383970847 0.166621105 7.20034555e-28)
(-0.445907405 0.193947326 -7.01002383e-27)
(-0.50354424 0.219920184 0)
(-0.555968758 0.244340458 1.65922159e-27)
(-0.602264433 0.267061337 -1.53550805e-26)
(-0.641530797 0.287953142 -1.71215502e-26)
(-0.672873551 0.306932287 2.28707082e-26)
(-0.695402086 0.323954124 2.00607603e-27)
(-0.708217776 0.33901154 -6.16651513e-26)
(-0.710391862 0.352137649 -7.36285619e-26)
(-0.700965577 0.36337172 -3.96247084e-26)
(-0.678880295 0.372826166 -2.38318427e-27)
(-0.643038896 0.380597793 -5.37218483e-26)
(-0.592218121 0.386833434 -5.75409241e-26)
(-0.525061914 0.391695039 2.64839833e-27)
(-0.440085686 0.39535554 -2.78343815e-27)
(-0.33572669 0.397929206 -1.14591247e-26)
(-0.210159152 0.399671908 -9.58650963e-26)
(-0.0616117414 0.401378871 -2.07676349e-25)
(0.109107663 0.403454062 -9.78686931e-26)
(0.309690625 0.405599777 -6.60184514e-27)
(0.541284367 0.407894344 -1.10478185e-25)
(0.806030674 0.41134214 6.91361833e-27)
(1.10709629 0.416637246 -7.03492602e-27)
(1.44753688 0.424199093 -1.48476787e-25)
(1.8306285 0.434576681 0)
(2.25986939 0.448438648 -3.78692479e-25)
(2.73877505 0.466505391 -1.48207439e-26)
(3.27078103 0.489550367 4.68856972e-25)
(3.85913118 0.518396287 5.2421568e-25)
(4.50670646 0.553892282 5.86943864e-25)
(5.21595764 0.596880716 -1.2812338e-26)