/*--------------------------------*- C++ -*----------------------------------*\
  =========                 |
  \\      /  F ield         | OpenFOAM: The Open Source CFD Toolbox
   \\    /   O peration     | Website:  https://openfoam.org
    \\  /    A nd           | Version:  8
     \\/     M anipulation  |
\*---------------------------------------------------------------------------*/
FoamFile
{
    version     2.0;
    format      ascii;
    class       volScalarField;
    location    "0.04";
    object      p;
}
// * * * * * * * * * * * * * * * * * * * * * * * * * * * * * * * * * * * * * //

dimensions      [1 -1 -2 0 0 0 0];

internalField   nonuniform List<scalar> 
42400
(
101464.566
101464.554
101464.54
101464.528
101464.517
101464.507
101464.498
101464.49
101464.483
101464.478
101464.473
101464.47
101464.468
101464.467
101464.467
101464.469
101464.472
101464.476
101464.481
101464.488
101464.495
101464.504
101464.514
101464.524
101464.536
101464.549
101464.562
101464.576
101464.591
101464.607
101464.623
101464.64
101464.657
101464.675
101464.693
101464.711
101464.728
101464.746
101464.774
101464.814
101464.857
101464.884
101464.886
101464.883
101464.879
101464.891
101464.922
101464.956
101464.993
101465.034
101465.074
101465.113
101465.177
101465.268
101465.373
101465.457
101465.514
101465.6
101465.729
101465.888
101466.057
101466.241
101466.447
101466.683
101466.944
101467.237
101467.547
101467.811
101468.311
101468.707
101468.334
101468.912
101471.025
101470.444
101469.019
101468.418
101471.928
101476.883
101475.586
101478.774
101463.601
101463.59
101463.579
101463.57
101463.561
101463.553
101463.546
101463.54
101463.535
101463.531
101463.528
101463.526
101463.525
101463.525
101463.527
101463.529
101463.533
101463.538
101463.544
101463.551
101463.559
101463.568
101463.578
101463.589
101463.601
101463.614
101463.628
101463.642
101463.657
101463.672
101463.688
101463.705
101463.721
101463.737
101463.753
101463.776
101463.809
101463.845
101463.864
101463.864
101463.861
101463.869
101463.892
101463.918
101463.945
101463.974
101464.003
101464.03
101464.051
101464.095
101464.172
101464.235
101464.255
101464.287
101464.361
101464.461
101464.564
101464.673
101464.798
101464.945
101465.118
101465.323
101465.549
101465.795
101466.05
101466.344
101466.702
101466.948
101467.349
101468.107
101467.891
101467.858
101468.835
101468.622
101469.704
101473.099
101476.897
101479.131
101481.226
101481.912
101462.516
101462.508
101462.5
101462.492
101462.485
101462.48
101462.475
101462.47
101462.467
101462.465
101462.464
101462.464
101462.465
101462.467
101462.471
101462.475
101462.481
101462.488
101462.496
101462.505
101462.515
101462.526
101462.539
101462.552
101462.567
101462.582
101462.599
101462.616
101462.634
101462.652
101462.67
101462.692
101462.718
101462.748
101462.78
101462.802
101462.811
101462.818
101462.835
101462.861
101462.888
101462.915
101462.943
101462.969
101462.988
101463.02
101463.071
101463.14
101463.181
101463.19
101463.225
101463.287
101463.355
101463.421
101463.494
101463.58
101463.685
101463.812
101463.962
101464.135
101464.33
101464.556
101464.821
101465.133
101465.456
101465.807
101466.266
101466.726
101467.186
101468.026
101468.396
101468.536
101471.452
101475.643
101476.451
101474.882
101475.852
101480.423
101482.574
101482.761
101461.34
101461.333
101461.327
101461.321
101461.316
101461.311
101461.308
101461.306
101461.305
101461.305
101461.305
101461.308
101461.311
101461.315
101461.321
101461.329
101461.337
101461.347
101461.358
101461.371
101461.385
101461.401
101461.417
101461.436
101461.455
101461.476
101461.497
101461.521
101461.547
101461.575
101461.606
101461.634
101461.657
101461.678
101461.7
101461.729
101461.763
101461.798
101461.832
101461.868
101461.901
101461.928
101461.97
101462.038
101462.092
101462.105
101462.126
101462.172
101462.233
101462.289
101462.344
101462.404
101462.473
101462.554
101462.646
101462.752
101462.875
101463.022
101463.197
101463.407
101463.662
101463.96
101464.31
101464.74
101465.225
101465.759
101466.35
101467.131
101467.813
101469.046
101471.809
101473.959
101474.576
101474.848
101476.113
101477.105
101478.447
101480.175
101481.502
101482.831
101460.069
101460.063
101460.057
101460.052
101460.048
101460.045
101460.043
101460.042
101460.043
101460.045
101460.048
101460.052
101460.058
101460.065
101460.074
101460.085
101460.097
101460.111
101460.127
101460.144
101460.164
101460.184
101460.206
101460.23
101460.255
101460.283
101460.313
101460.344
101460.376
101460.409
101460.442
101460.479
101460.52
101460.562
101460.604
101460.647
101460.692
101460.734
101460.772
101460.822
101460.896
101460.948
101460.972
101461.013
101461.07
101461.13
101461.184
101461.24
101461.3
101461.366
101461.436
101461.513
101461.598
101461.696
101461.811
101461.948
101462.11
101462.305
101462.54
101462.818
101463.164
101463.569
101464.07
101464.648
101465.376
101466.17
101466.765
101467.616
101470.042
101471.752
101472.457
101473.353
101474.095
101474.991
101476.34
101477.729
101478.92
101480.198
101482.308
101483.943
101458.695
101458.689
101458.683
101458.679
101458.676
101458.674
101458.673
101458.673
101458.675
101458.678
101458.683
101458.69
101458.699
101458.709
101458.722
101458.736
101458.753
101458.771
101458.791
101458.812
101458.836
101458.862
101458.893
101458.926
101458.962
101458.999
101459.038
101459.08
101459.123
101459.169
101459.216
101459.265
101459.315
101459.367
101459.419
101459.467
101459.526
101459.605
101459.665
101459.701
101459.755
101459.823
101459.889
101459.953
101460.018
101460.085
101460.155
101460.228
101460.305
101460.39
101460.484
101460.591
101460.714
101460.858
101461.024
101461.217
101461.443
101461.706
101462.023
101462.398
101462.889
101463.429
101464.115
101464.657
101465.308
101466.927
101469.41
101471.166
101471.4
101471.649
101472.232
101473.223
101474.761
101476.084
101477.369
101478.811
101480.365
101482.197
101483.93
101485.078
101457.185
101457.179
101457.173
101457.169
101457.166
101457.165
101457.165
101457.167
101457.171
101457.176
101457.183
101457.193
101457.205
101457.219
101457.235
101457.252
101457.273
101457.297
101457.324
101457.356
101457.389
101457.425
101457.463
101457.503
101457.546
101457.592
101457.64
101457.691
101457.744
101457.799
101457.857
101457.916
101457.972
101458.038
101458.121
101458.189
101458.237
101458.303
101458.381
101458.455
101458.528
101458.603
101458.679
101458.757
101458.838
101458.924
101459.016
101459.115
101459.225
101459.349
101459.491
101459.656
101459.845
101460.065
101460.319
101460.607
101460.937
101461.319
101461.764
101462.239
101462.802
101463.343
101464.381
101466.65
101468.632
101469.129
101469.153
101469.817
101470.71
101472.062
101473.438
101474.831
101476.265
101477.918
101479.574
101480.874
101482.018
101482.857
101483.889
101484.996
101455.51
101455.505
101455.499
101455.496
101455.494
101455.494
101455.496
101455.5
101455.505
101455.513
101455.523
101455.535
101455.551
101455.569
101455.591
101455.616
101455.643
101455.673
101455.705
101455.742
101455.781
101455.823
101455.868
101455.917
101455.969
101456.024
101456.081
101456.142
101456.205
101456.266
101456.335
101456.421
101456.494
101456.552
101456.626
101456.711
101456.792
101456.873
101456.956
101457.041
101457.128
101457.218
101457.312
101457.411
101457.518
101457.633
101457.76
101457.903
101458.065
101458.253
101458.469
101458.718
101459.005
101459.332
101459.707
101460.132
101460.618
101461.155
101461.784
101462.538
101463.698
101465.631
101466.927
101467.14
101467.418
101468.123
101469.426
101470.837
101472.166
101473.5
101474.932
101476.195
101477.54
101478.97
101479.87
101480.494
101482.077
101483.942
101485.642
101487.146
101453.621
101453.617
101453.612
101453.61
101453.611
101453.613
101453.617
101453.624
101453.633
101453.646
101453.661
101453.679
101453.699
101453.723
101453.75
101453.779
101453.813
101453.85
101453.89
101453.933
101453.98
101454.031
101454.085
101454.142
101454.203
101454.267
101454.33
101454.401
101454.487
101454.563
101454.627
101454.707
101454.795
101454.881
101454.968
101455.058
101455.15
101455.244
101455.342
101455.443
101455.55
101455.662
101455.783
101455.914
101456.058
101456.221
101456.405
101456.618
101456.864
101457.147
101457.473
101457.845
101458.272
101458.764
101459.329
101459.965
101460.691
101461.427
101462.424
101464.096
101465.356
101465.784
101466.242
101466.969
101468.133
101469.443
101470.661
101471.907
101473.243
101474.669
101475.889
101477.269
101479.116
101480.032
101480.91
101482.542
101484.103
101485.481
101487.061
101488.826
101451.492
101451.489
101451.487
101451.488
101451.491
101451.497
101451.506
101451.517
101451.531
101451.548
101451.568
101451.591
101451.617
101451.647
101451.681
101451.719
101451.76
101451.804
101451.853
101451.905
101451.961
101452.021
101452.082
101452.148
101452.22
101452.305
101452.381
101452.45
101452.532
101452.623
101452.713
101452.805
101452.899
101452.997
101453.097
101453.201
101453.309
101453.421
101453.54
101453.665
101453.8
101453.947
101454.11
101454.291
101454.497
101454.731
101455.002
101455.313
101455.667
101456.07
101456.523
101457.037
101457.609
101458.25
101458.944
101459.75
101460.632
101462.103
101463.638
101464.352
101464.894
101465.749
101466.881
101467.988
101469.136
101470.59
101471.958
101473.31
101474.722
101476.293
101477.764
101478.922
101479.649
101480.866
101482.558
101483.92
101485.272
101486.565
101488.21
101489.736
101449.078
101449.079
101449.082
101449.087
101449.094
101449.105
101449.118
101449.135
101449.155
101449.178
101449.205
101449.235
101449.27
101449.308
101449.35
101449.396
101449.446
101449.5
101449.558
101449.619
101449.686
101449.763
101449.838
101449.91
101449.99
101450.077
101450.169
101450.262
101450.357
101450.456
101450.559
101450.665
101450.774
101450.888
101451.007
101451.132
101451.263
101451.404
101451.555
101451.72
101451.903
101452.107
101452.336
101452.596
101452.893
101453.234
101453.622
101454.061
101454.553
101455.113
101455.738
101456.463
101457.241
101458.028
101458.827
101460.102
101461.767
101462.655
101463.004
101463.757
101464.994
101466.1
101467.323
101468.605
101469.828
101471.425
101472.926
101474.28
101475.565
101476.62
101477.889
101479.353
101480.572
101481.738
101483.088
101484.725
101486.221
101487.362
101489.103
101491.112
101446.347
101446.352
101446.36
101446.371
101446.385
101446.402
101446.422
101446.446
101446.474
101446.505
101446.541
101446.581
101446.625
101446.673
101446.725
101446.782
101446.842
101446.908
101446.983
101447.058
101447.131
101447.214
101447.303
101447.395
101447.49
101447.589
101447.692
101447.799
101447.91
101448.025
101448.145
101448.271
101448.402
101448.541
101448.688
101448.847
101449.018
101449.206
101449.413
101449.644
101449.903
101450.194
101450.523
101450.895
101451.315
101451.785
101452.305
101452.875
101453.487
101454.151
101454.81
101455.607
101456.896
101458.489
101460.012
101460.818
101460.967
101461.61
101462.913
101464.179
101465.465
101466.577
101467.606
101468.931
101470.074
101471.241
101473.099
101474.847
101476.177
101477.401
101478.511
101479.693
101481.147
101482.612
101484.461
101486.82
101489.057
101491.702
101493.516
101494.678
101443.252
101443.263
101443.279
101443.297
101443.319
101443.344
101443.373
101443.406
101443.444
101443.486
101443.532
101443.583
101443.638
101443.697
101443.762
101443.835
101443.909
101443.984
101444.067
101444.157
101444.25
101444.347
101444.448
101444.554
101444.664
101444.779
101444.898
101445.023
101445.153
101445.29
101445.435
101445.588
101445.752
101445.929
101446.121
101446.332
101446.566
101446.826
101447.118
101447.445
101447.813
101448.226
101448.689
101449.207
101449.781
101450.413
101451.11
101451.858
101452.672
101453.683
101455.172
101456.683
101457.433
101457.858
101458.371
101459.212
101460.64
101462.021
101463.259
101464.514
101465.904
101467.299
101468.517
101469.973
101472.026
101473.502
101474.089
101474.866
101476.56
101478.36
101480.186
101481.936
101483.752
101485.652
101487.432
101489.156
101490.796
101492.438
101494.541
101496.869
101439.75
101439.769
101439.794
101439.822
101439.853
101439.889
101439.929
101439.973
101440.022
101440.075
101440.133
101440.197
101440.267
101440.34
101440.416
101440.499
101440.588
101440.681
101440.779
101440.882
101440.989
101441.101
101441.219
101441.341
101441.469
101441.603
101441.744
101441.892
101442.049
101442.217
101442.398
101442.594
101442.808
101443.044
101443.305
101443.597
101443.923
101444.289
101444.7
101445.16
101445.673
101446.243
101446.872
101447.564
101448.312
101449.12
101449.981
101450.868
101452.115
101453.661
101454.618
101455.218
101456.112
101457.28
101458.491
101459.728
101461.015
101462.367
101463.91
101465.47
101466.988
101468.56
101470.097
101471.448
101472.37
101473.347
101475.143
101477.033
101478.418
101479.855
101481.464
101483.136
101484.905
101486.766
101488.231
101489.762
101492.095
101494.407
101496.637
101498.144
101435.803
101435.832
101435.868
101435.907
101435.95
101435.998
101436.05
101436.107
101436.169
101436.236
101436.307
101436.384
101436.466
101436.554
101436.647
101436.744
101436.847
101436.955
101437.068
101437.186
101437.309
101437.439
101437.574
101437.717
101437.867
101438.025
101438.194
101438.375
101438.571
101438.784
101439.017
101439.275
101439.56
101439.88
101440.237
101440.637
101441.085
101441.587
101442.147
101442.768
101443.454
101444.208
101445.027
101445.916
101446.848
101447.856
101448.861
101450.205
101451.739
101452.527
101453.321
101454.517
101455.769
101456.958
101458.094
101459.568
101461.384
101463.238
101464.793
101466.096
101467.406
101468.68
101469.916
101471.16
101472.632
101474.468
101476.172
101477.467
101478.681
101480.178
101481.74
101483.709
101486.401
101488.545
101490.773
101492.767
101494.176
101495.474
101497.007
101499.095
101431.385
101431.427
101431.477
101431.529
101431.586
101431.647
101431.713
101431.784
101431.861
101431.942
101432.029
101432.121
101432.218
101432.32
101432.428
101432.541
101432.66
101432.784
101432.915
101433.052
101433.195
101433.346
101433.506
101433.676
101433.858
101434.053
101434.265
101434.496
101434.75
101435.031
101435.343
101435.691
101436.08
101436.516
101437.002
101437.545
101438.149
101438.816
101439.551
101440.356
101441.229
101442.176
101443.173
101444.253
101445.368
101446.804
101448.704
101449.913
101450.532
101451.526
101452.974
101454.349
101455.742
101457.169
101458.606
101460.007
101461.272
101462.415
101463.694
101465.328
101467.009
101468.608
101470.237
101472.037
101473.705
101475.082
101476.553
101478.593
101480.852
101482.946
101485.126
101486.936
101488.271
101489.989
101491.494
101493.153
101496.041
101497.975
101499.23
101501.013
101426.5
101426.555
101426.621
101426.688
101426.76
101426.837
101426.918
101427.005
101427.097
101427.194
101427.297
101427.405
101427.519
101427.639
101427.764
101427.896
101428.035
101428.181
101428.335
101428.498
101428.671
101428.856
101429.054
101429.269
101429.503
101429.759
101430.041
101430.354
101430.702
101431.089
101431.522
101432.006
101432.545
101433.144
101433.808
101434.54
101435.342
101436.216
101437.163
101438.18
101439.248
101440.395
101441.584
101443.121
101445.201
101446.544
101447.164
101448.127
101449.649
101451.186
101452.72
101454.303
101455.904
101457.679
101459.572
101461.048
101462.258
101463.49
101464.932
101466.587
101468.161
101469.644
101471.101
101472.564
101474.119
101475.699
101477.252
101479.201
101481.52
101483.678
101485.931
101487.784
101489.146
101491.009
101493.107
101494.65
101496.054
101498.235
101500.673
101501.973
101421.171
101421.241
101421.324
101421.408
101421.496
101421.589
101421.688
101421.791
101421.9
101422.014
101422.135
101422.261
101422.394
101422.533
101422.68
101422.835
101422.999
101423.173
101423.359
101423.558
101423.773
101424.007
101424.261
101424.541
101424.85
101425.192
101425.573
101425.998
101426.472
101426.999
101427.586
101428.237
101428.955
101429.743
101430.603
101431.535
101432.539
101433.61
101434.745
101435.917
101437.125
101438.749
101440.891
101442.595
101443.392
101444.352
101445.971
101447.588
101449.113
101450.648
101452.175
101453.737
101455.253
101456.704
101458.391
101460.231
101462.001
101463.758
101465.451
101467.046
101468.721
101470.564
101471.883
101472.884
101474.682
101477.015
101478.551
101480.081
101482.391
101484.828
101486.751
101488.593
101490.848
101493.294
101495.997
101498.479
101500.039
101501.62
101502.842
101504.01
101415.438
101415.525
101415.625
101415.726
101415.831
101415.94
101416.055
101416.175
101416.3
101416.432
101416.571
101416.717
101416.87
101417.033
101417.205
101417.389
101417.587
101417.799
101418.03
101418.282
101418.558
101418.863
101419.201
101419.577
101419.996
101420.464
101420.987
101421.571
101422.22
101422.941
101423.737
101424.613
101425.569
101426.609
101427.731
101428.936
101430.215
101431.558
101432.981
101434.438
101436.336
101438.404
101439.612
101440.502
101441.79
101443.542
101445.216
101446.869
101448.584
101450.361
101452.132
101454.178
101456.747
101459.313
101460.822
101461.921
101463.271
101464.683
101466.07
101467.422
101468.68
101469.9
101471.92
101475.075
101476.804
101477.589
101479.574
101482.307
101484.631
101486.706
101489.149
101491.638
101493.496
101495.366
101497.211
101499.167
101501.425
101503.624
101505.674
101507.88
101409.425
101409.527
101409.645
101409.763
101409.883
101410.009
101410.14
101410.277
101410.42
101410.57
101410.729
101410.896
101411.075
101411.265
101411.47
101411.692
101411.933
101412.197
101412.488
101412.81
101413.168
101413.567
101414.013
101414.511
101415.068
101415.689
101416.38
101417.147
101417.992
101418.921
101419.933
101421.031
101422.212
101423.476
101424.815
101426.222
101427.667
101429.237
101431.327
101433.935
101435.534
101436.407
101437.647
101439.463
101441.284
101443.034
101444.763
101446.78
101449.075
101451.457
101454.035
101455.8
101456.894
101457.94
101459.516
101461.514
101463.519
101465.497
101467.456
101469.541
101471.351
101473.039
101474.583
101475.987
101478.017
101480.293
101481.856
101483.106
101484.874
101487.831
101491.01
101493.127
101494.569
101496.178
101498.053
101500.142
101502.306
101504.17
101505.865
101507.915
101448.447
101448.451
101448.456
101448.464
101448.472
101448.483
101448.495
101448.509
101448.525
101448.543
101448.563
101448.585
101448.608
101448.634
101448.662
101448.692
101448.725
101448.76
101448.797
101448.837
101448.879
101448.924
101448.972
101449.023
101449.076
101449.133
101449.193
101449.256
101449.323
101449.394
101449.468
101449.546
101449.628
101449.714
101449.805
101449.901
101450.001
101450.106
101450.217
101450.333
101450.455
101450.583
101450.716
101450.856
101451.002
101451.155
101451.314
101451.484
101451.666
101451.86
101452.059
101452.261
101452.471
101452.69
101452.917
101453.153
101453.397
101453.644
101453.894
101454.144
101454.39
101454.629
101454.854
101455.058
101455.234
101455.373
101455.467
101455.504
101455.475
101455.366
101455.228
101454.889
101454.459
101453.946
101453.227
101452.193
101451.077
101449.781
101448.458
101447.62
101450.991
101450.995
101451.001
101451.008
101451.018
101451.029
101451.042
101451.056
101451.073
101451.091
101451.111
101451.133
101451.157
101451.183
101451.211
101451.242
101451.274
101451.309
101451.346
101451.386
101451.428
101451.472
101451.52
101451.57
101451.623
101451.678
101451.737
101451.799
101451.865
101451.933
101452.005
101452.081
101452.161
101452.244
101452.332
101452.423
101452.519
101452.62
101452.725
101452.835
101452.95
101453.071
101453.197
101453.328
101453.465
101453.607
101453.755
101453.91
101454.07
101454.235
101454.404
101454.58
101454.767
101454.968
101455.179
101455.402
101455.626
101455.846
101456.069
101456.292
101456.516
101456.737
101456.952
101457.154
101457.338
101457.499
101457.623
101457.687
101457.672
101457.562
101457.299
101456.914
101456.408
101455.651
101454.524
101453.859
101453.619
101452.972
101452.377
101451.318
101453.306
101453.31
101453.317
101453.324
101453.334
101453.345
101453.358
101453.373
101453.389
101453.407
101453.427
101453.449
101453.473
101453.499
101453.527
101453.556
101453.588
101453.622
101453.659
101453.697
101453.738
101453.781
101453.827
101453.876
101453.927
101453.981
101454.038
101454.097
101454.16
101454.226
101454.294
101454.367
101454.442
101454.521
101454.604
101454.691
101454.781
101454.875
101454.974
101455.077
101455.184
101455.296
101455.412
101455.533
101455.66
101455.792
101455.929
101456.072
101456.22
101456.372
101456.528
101456.692
101456.862
101457.037
101457.214
101457.393
101457.573
101457.757
101457.942
101458.127
101458.308
101458.481
101458.643
101458.786
101458.902
101458.982
101459.031
101459.074
101459.126
101459.183
101459.183
101458.967
101458.575
101458.051
101457.48
101456.466
101454.711
101453.917
101453.261
101451.701
101455.397
101455.402
101455.408
101455.416
101455.426
101455.437
101455.45
101455.464
101455.481
101455.499
101455.518
101455.54
101455.563
101455.588
101455.615
101455.643
101455.674
101455.707
101455.742
101455.779
101455.819
101455.86
101455.904
101455.951
101456
101456.051
101456.105
101456.162
101456.221
101456.283
101456.348
101456.417
101456.488
101456.562
101456.64
101456.721
101456.805
101456.893
101456.985
101457.08
101457.179
101457.282
101457.39
101457.501
101457.617
101457.737
101457.862
101457.991
101458.126
101458.265
101458.409
101458.558
101458.712
101458.868
101459.025
101459.183
101459.342
101459.503
101459.667
101459.831
101459.993
101460.151
101460.299
101460.435
101460.552
101460.638
101460.682
101460.67
101460.58
101460.376
101460.178
101460.035
101459.884
101459.657
101459.184
101458.55
101457.855
101456.81
101455.073
101453.451
101457.278
101457.283
101457.289
101457.297
101457.307
101457.318
101457.33
101457.344
101457.36
101457.378
101457.396
101457.417
101457.439
101457.463
101457.489
101457.517
101457.547
101457.578
101457.611
101457.647
101457.684
101457.724
101457.766
101457.81
101457.856
101457.905
101457.956
101458.009
101458.065
101458.124
101458.185
101458.249
101458.316
101458.386
101458.458
101458.534
101458.613
101458.695
101458.78
101458.868
101458.96
101459.056
101459.155
101459.257
101459.364
101459.475
101459.589
101459.708
101459.83
101459.957
101460.088
101460.223
101460.362
101460.504
101460.65
101460.799
101460.952
101461.107
101461.265
101461.425
101461.585
101461.744
101461.898
101462.046
101462.184
101462.309
101462.408
101462.463
101462.454
101462.368
101462.138
101461.825
101461.4
101460.936
101460.436
101459.935
101459.549
101458.807
101457.514
101456.06
101458.958
101458.963
101458.969
101458.977
101458.986
101458.997
101459.009
101459.022
101459.037
101459.054
101459.072
101459.092
101459.113
101459.136
101459.161
101459.187
101459.215
101459.245
101459.277
101459.311
101459.346
101459.384
101459.423
101459.465
101459.509
101459.555
101459.603
101459.653
101459.706
101459.761
101459.819
101459.879
101459.942
101460.008
101460.076
101460.148
101460.222
101460.299
101460.379
101460.462
101460.549
101460.639
101460.732
101460.829
101460.929
101461.034
101461.142
101461.255
101461.372
101461.493
101461.619
101461.749
101461.884
101462.024
101462.168
101462.316
101462.469
101462.626
101462.787
101462.951
101463.117
101463.285
101463.451
101463.613
101463.767
101463.908
101464.03
101464.124
101464.183
101464.197
101464.16
101464.012
101463.738
101463.293
101462.759
101461.978
101460.908
101460.064
101459.378
101458.534
101460.451
101460.456
101460.462
101460.469
101460.478
101460.488
101460.499
101460.512
101460.527
101460.542
101460.56
101460.578
101460.599
101460.62
101460.644
101460.669
101460.695
101460.724
101460.754
101460.785
101460.819
101460.854
101460.892
101460.931
101460.973
101461.016
101461.061
101461.11
101461.16
101461.212
101461.266
101461.323
101461.382
101461.445
101461.51
101461.577
101461.647
101461.72
101461.796
101461.875
101461.958
101462.044
101462.133
101462.226
101462.323
101462.424
101462.53
101462.64
101462.754
101462.874
101462.999
101463.129
101463.265
101463.407
101463.555
101463.709
101463.87
101464.036
101464.209
101464.388
101464.573
101464.762
101464.954
101465.147
101465.339
101465.523
101465.696
101465.851
101465.978
101466.066
101466.103
101466.071
101465.959
101465.748
101465.383
101464.871
101464.109
101463.083
101461.826
101461.002
101461.766
101461.77
101461.776
101461.782
101461.79
101461.8
101461.811
101461.823
101461.836
101461.851
101461.867
101461.885
101461.904
101461.924
101461.946
101461.97
101461.995
101462.021
101462.05
101462.08
101462.112
101462.145
101462.181
101462.218
101462.257
101462.298
101462.341
101462.387
101462.434
101462.484
101462.535
101462.589
101462.646
101462.705
101462.766
101462.83
101462.896
101462.967
101463.04
101463.116
101463.196
101463.279
101463.366
101463.457
101463.553
101463.653
101463.758
101463.868
101463.983
101464.105
101464.233
101464.368
101464.509
101464.659
101464.816
101464.982
101465.156
101465.339
101465.531
101465.733
101465.944
101466.164
101466.393
101466.628
101466.868
101467.11
101467.348
101467.578
101467.791
101467.979
101468.129
101468.227
101468.259
101468.205
101468.048
101467.756
101467.316
101466.724
101465.793
101464.576
101462.917
101462.921
101462.925
101462.931
101462.939
101462.947
101462.957
101462.968
101462.98
101462.993
101463.008
101463.025
101463.042
101463.061
101463.082
101463.104
101463.127
101463.152
101463.179
101463.207
101463.236
101463.268
101463.301
101463.336
101463.373
101463.412
101463.453
101463.496
101463.541
101463.587
101463.636
101463.688
101463.741
101463.797
101463.856
101463.917
101463.981
101464.049
101464.118
101464.193
101464.271
101464.352
101464.437
101464.527
101464.622
101464.722
101464.827
101464.939
101465.057
101465.183
101465.316
101465.457
101465.608
101465.768
101465.938
101466.118
101466.31
101466.515
101466.731
101466.961
101467.204
101467.461
101467.731
101468.015
101468.309
101468.613
101468.923
101469.233
101469.538
101469.83
101470.098
101470.329
101470.508
101470.618
101470.636
101470.54
101470.321
101469.945
101469.403
101468.525
101463.908
101463.91
101463.914
101463.919
101463.924
101463.932
101463.94
101463.95
101463.961
101463.973
101463.986
101464.001
101464.017
101464.034
101464.053
101464.073
101464.095
101464.118
101464.143
101464.169
101464.197
101464.226
101464.257
101464.29
101464.324
101464.361
101464.399
101464.439
101464.481
101464.525
101464.571
101464.619
101464.67
101464.723
101464.779
101464.838
101464.899
101464.964
101465.031
101465.103
101465.178
101465.258
101465.343
101465.433
101465.528
101465.629
101465.737
101465.851
101465.973
101466.103
101466.243
101466.392
101466.552
101466.724
101466.909
101467.106
101467.318
101467.546
101467.789
101468.048
101468.325
101468.62
101468.934
101469.267
101469.618
101469.985
101470.366
101470.758
101471.155
101471.551
101471.936
101472.3
101472.628
101472.903
101473.107
101473.216
101473.213
101473.081
101472.812
101472.301
101464.754
101464.755
101464.757
101464.76
101464.764
101464.77
101464.776
101464.784
101464.793
101464.803
101464.815
101464.828
101464.842
101464.857
101464.873
101464.891
101464.91
101464.931
101464.953
101464.976
101465.001
101465.028
101465.056
101465.086
101465.118
101465.152
101465.187
101465.225
101465.264
101465.306
101465.35
101465.396
101465.444
101465.496
101465.548
101465.603
101465.662
101465.725
101465.792
101465.863
101465.937
101466.016
101466.098
101466.186
101466.281
101466.382
101466.49
101466.607
101466.732
101466.867
101467.013
101467.169
101467.337
101467.519
101467.717
101467.93
101468.16
101468.409
101468.678
101468.967
101469.279
101469.613
101469.97
101470.351
101470.756
101471.184
101471.634
101472.103
101472.587
101473.08
101473.577
101474.066
101474.535
101474.971
101475.355
101475.666
101475.879
101475.979
101475.962
101475.752
101465.452
101465.452
101465.452
101465.453
101465.456
101465.459
101465.464
101465.47
101465.477
101465.485
101465.494
101465.505
101465.517
101465.53
101465.545
101465.561
101465.578
101465.597
101465.617
101465.639
101465.662
101465.686
101465.713
101465.74
101465.769
101465.8
101465.833
101465.868
101465.904
101465.942
101465.983
101466.025
101466.07
101466.118
101466.168
101466.222
101466.279
101466.338
101466.401
101466.467
101466.538
101466.614
101466.696
101466.785
101466.879
101466.98
101467.089
101467.206
101467.332
101467.467
101467.613
101467.771
101467.94
101468.133
101468.351
101468.585
101468.838
101469.111
101469.405
101469.719
101470.057
101470.419
101470.811
101471.231
101471.681
101472.159
101472.666
101473.201
101473.761
101474.342
101474.936
101475.537
101476.133
101476.71
101477.252
101477.739
101478.145
101478.443
101478.622
101478.624
101466.02
101466.017
101466.015
101466.014
101466.014
101466.015
101466.017
101466.02
101466.025
101466.03
101466.037
101466.045
101466.055
101466.065
101466.077
101466.09
101466.105
101466.121
101466.138
101466.157
101466.177
101466.199
101466.222
101466.247
101466.274
101466.302
101466.332
101466.364
101466.398
101466.434
101466.471
101466.51
101466.55
101466.593
101466.64
101466.691
101466.743
101466.799
101466.858
101466.921
101466.988
101467.06
101467.138
101467.222
101467.313
101467.411
101467.519
101467.638
101467.77
101467.916
101468.081
101468.261
101468.453
101468.649
101468.855
101469.081
101469.33
101469.6
101469.892
101470.209
101470.55
101470.947
101471.4
101471.878
101472.382
101472.914
101473.474
101474.059
101474.671
101475.313
101475.979
101476.66
101477.349
101478.033
101478.701
101479.327
101479.882
101480.334
101480.644
101480.751
101466.437
101466.431
101466.426
101466.422
101466.419
101466.417
101466.417
101466.417
101466.419
101466.422
101466.426
101466.432
101466.439
101466.447
101466.456
101466.467
101466.479
101466.493
101466.508
101466.525
101466.543
101466.563
101466.584
101466.607
101466.631
101466.657
101466.684
101466.713
101466.743
101466.774
101466.808
101466.846
101466.886
101466.928
101466.972
101467.017
101467.065
101467.117
101467.171
101467.23
101467.293
101467.36
101467.433
101467.511
101467.596
101467.689
101467.79
101467.9
101468.021
101468.152