/*--------------------------------*- C++ -*----------------------------------*\
  =========                 |
  \\      /  F ield         | OpenFOAM: The Open Source CFD Toolbox
   \\    /   O peration     | Website:  https://openfoam.org
    \\  /    A nd           | Version:  8
     \\/     M anipulation  |
\*---------------------------------------------------------------------------*/
FoamFile
{
    version     2.0;
    format      ascii;
    class       volScalarField;
    location    "0.03";
    object      p_rgh;
}
// * * * * * * * * * * * * * * * * * * * * * * * * * * * * * * * * * * * * * //

dimensions      [1 -1 -2 0 0 0 0];

internalField   nonuniform List<scalar> 
42400
(
101423.765
101423.752
101423.737
101423.724
101423.712
101423.701
101423.691
101423.682
101423.674
101423.667
101423.661
101423.657
101423.653
101423.651
101423.65
101423.65
101423.651
101423.653
101423.657
101423.661
101423.666
101423.673
101423.68
101423.688
101423.697
101423.707
101423.717
101423.728
101423.739
101423.751
101423.763
101423.775
101423.788
101423.801
101423.814
101423.826
101423.839
101423.851
101423.863
101423.887
101423.926
101423.971
101423.991
101423.982
101423.969
101423.961
101423.972
101423.998
101424.026
101424.054
101424.085
101424.112
101424.134
101424.181
101424.263
101424.36
101424.423
101424.453
101424.495
101424.565
101424.67
101424.777
101424.878
101424.988
101425.121
101425.274
101425.469
101425.769
101426.011
101426.486
101427.588
101427.277
101426.323
101428.038
101429.771
101428.775
101428.073
101429.295
101431.348
101434.169
101423.687
101423.676
101423.664
101423.654
101423.644
101423.635
101423.627
101423.621
101423.615
101423.61
101423.606
101423.603
101423.602
101423.601
101423.602
101423.604
101423.607
101423.611
101423.616
101423.622
101423.629
101423.637
101423.646
101423.656
101423.667
101423.678
101423.69
101423.703
101423.716
101423.729
101423.743
101423.757
101423.772
101423.786
101423.799
101423.82
101423.85
101423.885
101423.923
101423.941
101423.934
101423.925
101423.931
101423.954
101423.978
101424.002
101424.027
101424.052
101424.074
101424.089
101424.131
101424.216
101424.289
101424.294
101424.297
101424.346
101424.427
101424.507
101424.585
101424.664
101424.752
101424.852
101424.963
101425.086
101425.238
101425.417
101425.642
101426.095
101426.57
101427.116
101428.531
101429.673
101429.571
101430.642
101432.83
101434.618
101436.923
101437.533
101439.418
101442.216
101423.495
101423.487
101423.477
101423.469
101423.462
101423.455
101423.45
101423.445
101423.442
101423.439
101423.438
101423.437
101423.438
101423.44
101423.443
101423.447
101423.453
101423.46
101423.468
101423.477
101423.488
101423.499
101423.512
101423.526
101423.541
101423.556
101423.573
101423.591
101423.609
101423.628
101423.648
101423.67
101423.698
101423.728
101423.762
101423.792
101423.809
101423.816
101423.822
101423.84
101423.869
101423.898
101423.926
101423.956
101423.982
101424.001
101424.038
101424.097
101424.177
101424.224
101424.228
101424.257
101424.317
101424.383
101424.44
101424.499
101424.564
101424.641
101424.731
101424.834
101424.946
101425.067
101425.21
101425.379
101425.599
101425.857
101426.112
101426.621
101427.291
101428.108
101429.085
101429.934
101430.829
101432.575
101434.778
101437.043
101439.072
101440.555
101442.666
101445.075
101423.21
101423.202
101423.195
101423.188
101423.183
101423.178
101423.174
101423.172
101423.171
101423.17
101423.171
101423.174
101423.177
101423.182
101423.189
101423.197
101423.206
101423.217
101423.23
101423.244
101423.26
101423.277
101423.296
101423.316
101423.338
101423.361
101423.385
101423.411
101423.439
101423.471
101423.505
101423.539
101423.569
101423.596
101423.621
101423.646
101423.679
101423.719
101423.759
101423.799
101423.839
101423.877
101423.908
101423.956
101424.038
101424.096
101424.109
101424.134
101424.182
101424.246
101424.304
101424.357
101424.413
101424.475
101424.545
101424.621
101424.707
101424.806
101424.918
101425.055
101425.237
101425.458
101425.715
101425.988
101426.306
101426.667
101427.012
101427.474
101427.669
101428.56
101431.3
101434.043
101436.226
101437.443
101438.114
101439.446
101441.213
101442.487
101443.83
101445.742
101422.832
101422.825
101422.818
101422.813
101422.808
101422.805
101422.802
101422.802
101422.802
101422.804
101422.808
101422.813
101422.82
101422.828
101422.839
101422.851
101422.865
101422.881
101422.899
101422.919
101422.941
101422.965
101422.991
101423.019
101423.047
101423.079
101423.114
101423.151
101423.189
101423.228
101423.268
101423.308
101423.352
101423.401
101423.451
101423.501
101423.552
101423.604
101423.654
101423.697
101423.757
101423.845
101423.907
101423.934
101423.979
101424.044
101424.108
101424.166
101424.223
101424.283
101424.345
101424.409
101424.476
101424.548
101424.629
101424.724
101424.834
101424.971
101425.151
101425.379
101425.68
101426.044
101426.475
101426.953
101427.491
101427.973
101428.533
101429.953
101432.785
101434.486
101434.631
101434.824
101435.895
101437.621
101439.417
101441.094
101442.366
101443.805
101445.298
101446.577
101422.34
101422.333
101422.326
101422.321
101422.317
101422.315
101422.314
101422.315
101422.317
101422.321
101422.328
101422.336
101422.346
101422.359
101422.373
101422.39
101422.41
101422.432
101422.457
101422.483
101422.51
101422.541
101422.575
101422.614
101422.656
101422.701
101422.747
101422.796
101422.848
101422.902
101422.957
101423.015
101423.074
101423.135
101423.198
101423.26
101423.317
101423.388
101423.483
101423.556
101423.598
101423.66
101423.738
101423.812
101423.882
101423.951
101424.02
101424.089
101424.158
101424.23
101424.305
101424.386
101424.475
101424.575
101424.689
101424.825
101424.996
101425.21
101425.478
101425.82
101426.278
101426.864
101427.533
101428.136
101428.895
101430.479
101432.483
101433.56
101433.755
101434.37
101435.462
101436.7
101437.85
101439.481
101440.999
101442.044
101443.143
101444.716
101446.381
101447.872
101421.703
101421.696
101421.689
101421.684
101421.681
101421.68
101421.68
101421.682
101421.687
101421.694
101421.703
101421.714
101421.729
101421.746
101421.766
101421.787
101421.811
101421.839
101421.87
101421.906
101421.947
101421.99
101422.036
101422.084
101422.136
101422.19
101422.248
101422.308
101422.372
101422.438
101422.507
101422.578
101422.651
101422.719
101422.8
101422.903
101422.985
101423.044
101423.122
101423.214
101423.301
101423.384
101423.468
101423.551
101423.635
101423.719
101423.805
101423.895
101423.989
101424.089
101424.198
101424.318
101424.451
101424.604
101424.784
101424.998
101425.238
101425.527
101425.845
101426.209
101426.572
101426.896
101428.013
101430.3
101432.099
101432.747
101433
101433.676
101434.542
101435.604
101436.927
101438.29
101439.473
101440.925
101442.604
101443.933
101445.42
101446.934
101448.348
101449.601
101420.874
101420.867
101420.861
101420.856
101420.854
101420.854
101420.857
101420.862
101420.869
101420.878
101420.891
101420.907
101420.926
101420.948
101420.973
101421.003
101421.037
101421.074
101421.114
101421.158
101421.205
101421.256
101421.31
101421.369
101421.431
101421.497
101421.566
101421.639
101421.715
101421.793
101421.868
101421.955
101422.063
101422.154
101422.225
101422.316
101422.419
101422.516
101422.612
101422.71
101422.808
101422.907
101423.007
101423.111
101423.217
101423.328
101423.445
101423.57
101423.706
101423.856
101424.021
101424.21
101424.43
101424.691
101424.985
101425.342
101425.737
101426.213
101426.653
101427.218
101428.631
101430.656
101431.316
101431.146
101431.361
101432.359
101433.698
101434.991
101436.268
101437.391
101438.621
101440.141
101442.109
101443.432
101444.352
101445.501
101447.054
101448.356
101449.799
101451.034
101419.803
101419.797
101419.792
101419.789
101419.789
101419.792
101419.797
101419.805
101419.816
101419.831
101419.848
101419.869
101419.894
101419.923
101419.955
101419.991
101420.032
101420.076
101420.125
101420.178
101420.234
101420.296
101420.361
101420.431
101420.505
101420.582
101420.659
101420.742
101420.836
101420.944
101421.035
101421.115
101421.213
101421.323
101421.428
101421.533
101421.641
101421.751
101421.862
101421.976
101422.093
101422.213
101422.338
101422.47
101422.61
101422.76
101422.924
101423.106
101423.308
101423.537
101423.801
101424.107
101424.458
101424.872
101425.327
101425.87
101426.424
101427.184
101428.601
101430.101
101430.811
101430.998
101431.658
101432.632
101433.57
101434.506
101435.778
101437.071
101438.379
101439.702
101440.96
101442.031
101442.805
101443.838
101445.333
101446.818
101448.266
101449.672
101451.379
101453.113
101418.439
101418.435
101418.432
101418.433
101418.436
101418.442
101418.452
101418.465
101418.482
101418.502
101418.526
101418.554
101418.586
101418.622
101418.662
101418.707
101418.756
101418.809
101418.867
101418.93
101418.997
101419.069
101419.144
101419.222
101419.308
101419.408
101419.503
101419.589
101419.686
101419.791
101419.903
101420.013
101420.124
101420.239
101420.356
101420.475
101420.598
101420.724
101420.853
101420.988
101421.129
101421.278
101421.437
101421.609
101421.796
101422.003
101422.233
101422.49
101422.779
101423.109
101423.482
101423.907
101424.377
101424.919
101425.456
101426.155
101427.611
101428.977
101429.652
101430.016
101430.608
101431.574
101432.424
101433.34
101434.503
101435.522
101436.836
101438.183
101439.179
101440.31
101441.743
101442.893
101444.08
101445.598
101447.097
101448.652
101450.246
101451.671
101453.435
101455.353
101416.74
101416.74
101416.741
101416.746
101416.754
101416.766
101416.781
101416.8
101416.823
101416.85
101416.881
101416.917
101416.958
101417.003
101417.053
101417.107
101417.166
101417.231
101417.3
101417.374
101417.45
101417.534
101417.631
101417.724
101417.811
101417.911
101418.02
101418.13
101418.242
101418.358
101418.477
101418.599
101418.725
101418.853
101418.986
101419.123
101419.265
101419.414
101419.571
101419.738
101419.917
101420.111
101420.324
101420.559
101420.82
101421.112
101421.44
101421.81
101422.225
101422.69
101423.207
101423.781
101424.395
101425.18
101426.602
101428.006
101428.492
101428.76
101429.33
101430.228
101431.254
101432.359
101433.497
101434.49
101435.559
101436.792
101438.138
101439.487
101440.948
101442.372
101443.619
101444.919
101446.321
101447.711
101449.167
101450.647
101452.31
101454.115
101455.883
101457.845
101414.656
101414.66
101414.668
101414.678
101414.693
101414.711
101414.733
101414.76
101414.792
101414.828
101414.868
101414.914
101414.965
101415.02
101415.081
101415.147
101415.219
101415.293
101415.375
101415.469
101415.56
101415.65
101415.75
101415.859
101415.969
101416.083
101416.201
101416.323
101416.449
101416.579
101416.712
101416.85
101416.993
101417.141
101417.296
101417.459
101417.632
101417.817
101418.016
101418.234
101418.473
101418.737
101419.032
101419.36
101419.729
101420.141
101420.602
101421.116
101421.683
101422.308
101422.967
101423.731
101424.998
101426.356
101426.95
101427.212
101427.848
101428.896
101429.948
101431.05
101432.272
101433.787
101435.137
101436.071
101436.978
101438.133
101439.293
101440.346
101441.334
101442.555
101444.067
101445.546
101447.054
101448.636
101450.269
101451.96
101453.571
101455.375
101457.1
101458.948
101412.134
101412.145
101412.16
101412.178
101412.201
101412.228
101412.259
101412.296
101412.337
101412.384
101412.436
101412.493
101412.556
101412.624
101412.696
101412.776
101412.865
101412.955
101413.046
101413.146
101413.253
101413.364
101413.478
101413.598
101413.722
101413.85
101413.983
101414.12
101414.262
101414.409
101414.562
101414.722
101414.889
101415.066
101415.255
101415.458
101415.677
101415.917
101416.181
101416.472
101416.795
101417.155
101417.556
101418.001
101418.495
101419.041
101419.63
101420.277
101420.938
101421.768
101423.082
101424.473
101425.161
101425.438
101426.068
101427.131
101428.177
101429.285
101430.533
101431.905
101433.172
101434.099
101434.906
101435.897
101436.976
101438.179
101439.477
101440.859
101442.314
101443.812
101445.275
101446.794
101448.346
101449.906
101451.529
101453.164
101454.599
101456.351
101458.583
101460.284
101409.124
101409.142
101409.167
101409.195
101409.228
101409.265
101409.308
101409.356
101409.41
101409.469
101409.533
101409.603
101409.682
101409.766
101409.851
101409.942
101410.041
101410.147
101410.257
101410.372
101410.492
101410.618
101410.748
101410.883
101411.024
101411.169
101411.321
101411.479
101411.644
101411.817
101412
101412.195
101412.404
101412.629
101412.874
101413.142
101413.437
101413.764
101414.125
101414.526
101414.971
101415.461
101416.003
101416.594
101417.235
101417.921
101418.638
101419.56
101420.956
101422.311
101423.02
101423.388
101424.104
101425.272
101426.44
101427.566
101428.855
101430.311
101431.657
101432.536
101433.192
101434.181
101435.528
101436.919
101438.331
101439.749
101441.185
101442.637
101444.109
101445.622
101447.163
101448.771
101450.434
101452.084
101453.833
101455.569
101457.447
101459.406
101460.516
101461.381
101405.577
101405.606
101405.643
101405.683
101405.728
101405.778
101405.833
101405.895
101405.962
101406.036
101406.115
101406.199
101406.289
101406.387
101406.49
101406.599
101406.713
101406.833
101406.959
101407.09
101407.227
101407.37
101407.519
101407.674
101407.837
101408.007
101408.186
101408.375
101408.576
101408.792
101409.024
101409.277
101409.552
101409.855
101410.189
101410.559
101410.968
101411.421
101411.923
101412.476
101413.083
101413.745
101414.467
101415.231
101416.051
101416.964
101418.254
101419.651
101420.432
101420.899
101421.654
101422.834
101424.062
101425.247
101426.61
101428.249
101429.493
101430.269
101431.058
101432.319
101433.831
101435.273
101436.65
101437.99
101439.293
101440.79
101442.508
101443.905
101445.205
101446.806
101448.534
101450.208
101452
101453.941
101455.935
101457.983
101459.974
101461.313
101462.289
101463.624
101401.461
101401.502
101401.552
101401.606
101401.665
101401.729
101401.8
101401.876
101401.957
101402.045
101402.14
101402.24
101402.346
101402.459
101402.577
101402.702
101402.833
101402.97
101403.113
101403.263
101403.421
101403.585
101403.758
101403.94
101404.133
101404.339
101404.559
101404.796
101405.053
101405.333
101405.64
101405.978
101406.352
101406.765
101407.222
101407.728
101408.285
101408.897
101409.567
101410.295
101411.085
101411.917
101412.81
101413.748
101414.995
101416.594
101417.591
101418.119
101418.902
101420.104
101421.315
101422.664
101424.188
101425.844
101427.098
101427.891
101428.767
101429.931
101431.255
101432.754
101434.356
101435.971
101437.631
101439.47
101441.409
101443.108
101444.509
101446.197
101448.133
101449.883
101451.502
101453.138
101454.953
101456.589
101457.886
101459.396
101461.142
101462.579
101463.758
101465.323
101396.763
101396.818
101396.884
101396.953
101397.027
101397.106
101397.192
101397.283
101397.381
101397.484
101397.594
101397.71
101397.832
101397.96
101398.095
101398.237
101398.385
101398.541
101398.705
101398.878
101399.06
101399.254
101399.46
101399.681
101399.918
101400.176
101400.457
101400.765
101401.104
101401.479
101401.893
101402.351
101402.858
101403.419
101404.035
101404.71
101405.446
101406.244
101407.101
101408.005
101408.971
101410
101411.354
101413.138
101414.29
101414.861
101415.701
101416.979
101418.414
101419.983
101421.733
101423.157
101424.155
101425.061
101426.094
101427.681
101429.708
101431.761
101433.479
101434.866
101436.179
101437.597
101439.171
101440.946
101442.788
101444.417
101445.893
101447.656
101449.509
101451.287
101453.092
101454.783
101456.245
101458.146
101460.839
101462.508
101463.944
101465.649
101467.799
101469.755
101391.503
101391.573
101391.656
101391.742
101391.832
101391.927
101392.028
101392.135
101392.248
101392.367
101392.492
101392.624
101392.762
101392.908
101393.061
101393.222
101393.392
101393.572
101393.763
101393.967
101394.186
101394.422
101394.678
101394.957
101395.263
101395.6
101395.973
101396.386
101396.845
101397.353
101397.917
101398.539
101399.225
101399.976
101400.794
101401.681
101402.637
101403.655
101404.719
101405.84
101407.251
101409.12
101410.438
101411.114
101412.084
101413.545
101415.02
101416.404
101417.974
101419.452
101420.489
101421.594
101423.325
101425.443
101427.734
101429.42
101430.711
101431.891
101433.301
101435.324
101437.273
101439.277
101440.944
101442.19
101443.438
101444.786
101446.31
101448.181
101450.403
101452.626
101454.934
101457.359
101459.623
101461.332
101463.14
101465.34
101467.335
101468.249
101470.046
101472.486
101385.769
101385.856
101385.957
101386.059
101386.165
101386.276
101386.392
101386.514
101386.643
101386.777
101386.918
101387.067
101387.223
101387.388
101387.563
101387.748
101387.946
101388.159
101388.389
101388.638
101388.91
101389.208
101389.537
101389.901
101390.306
101390.756
101391.256
101391.813
101392.431
101393.114
101393.867
101394.693
101395.594
101396.571
101397.623
101398.751
101399.948
101401.189
101402.491
101404.074
101405.852
101407.012
101408.075
101409.516
101411.03
101412.496
101413.937
101415.469
101416.943
101418.599
101420.808
101422.689
101424.259
101425.79
101427.291
101429.087
101430.866
101432.631
101434.744
101436.374
101437.595
101438.696
101440.306
101442.688
101444.755
101446.917
101449.408
101451.901
101453.935
101455.95
101457.789
101459.455
101461.151
101462.867
101464.743
101466.605
101468.202
101469.667
101470.907
101472.89
101379.678
101379.78
101379.898
101380.017
101380.138
101380.264
101380.396
101380.533
101380.676
101380.827
101380.985
101381.152
101381.329
101381.517
101381.719
101381.936
101382.172
101382.429
101382.711
101383.021
101383.365
101383.747
101384.172
101384.646
101385.175
101385.763
101386.417
101387.139
101387.935
101388.807
101389.757
101390.784
101391.887
101393.064
101394.311
101395.61
101396.969
101398.349
101400.18
101402.516
101403.93
101405.109
101406.707
101408.353
101409.994
101411.67
101413.365
101415.421
101417.489
101419.264
101421.161
101423.058
101424.572
101425.846
101427.166
101428.748
101430.666
101432.404
101434.336
101436.518
101438.173
101439.754
101441.977
101444.283
101446.602
101449.059
101451.286
101453.174
101454.843
101456.736
101458.912
101460.986
101462.627
101464.649
101466.601
101468.362
101470.102
101471.571
101472.943
101475.415
101385.656
101385.657
101385.657
101385.657
101385.657
101385.657
101385.657
101385.657
101385.656
101385.656
101385.656
101385.656
101385.655
101385.655
101385.654
101385.653
101385.652
101385.651
101385.65
101385.648
101385.647
101385.645
101385.643
101385.641
101385.639
101385.636
101385.634
101385.631
101385.629
101385.626
101385.623
101385.621
101385.618
101385.616
101385.613
101385.611
101385.61
101385.61
101385.611
101385.613
101385.616
101385.621
101385.628
101385.637
101385.649
101385.663
101385.681
101385.702
101385.726
101385.755
101385.788
101385.825
101385.866
101385.911
101385.957
101386.003
101386.047
101386.082
101386.101
101386.095
101386.051
101385.952
101385.779
101385.511
101385.134
101384.645
101384.054
101383.366
101382.578
101381.671
101380.618
101379.376
101377.963
101376.437
101374.872
101373.322
101371.765
101370.034
101368.031
101365.752
101389.185
101389.186
101389.186
101389.187
101389.188
101389.189
101389.191
101389.194
101389.196
101389.2
101389.203
101389.207
101389.212
101389.217
101389.223
101389.229
101389.235
101389.242
101389.249
101389.257
101389.266
101389.275
101389.285
101389.295
101389.306
101389.318
101389.33
101389.344
101389.358
101389.374
101389.39
101389.408
101389.427
101389.448
101389.47
101389.494
101389.519
101389.547
101389.578
101389.612
101389.649
101389.69
101389.735
101389.783
101389.837
101389.896
101389.961
101390.032
101390.109
101390.194
101390.287
101390.389
101390.499
101390.617
101390.744
101390.878
101391.019
101391.163
101391.307
101391.447
101391.574
101391.678
101391.741
101391.746
101391.676
101391.51
101391.235
101390.848
101390.351
101389.743
101389.016
101388.141
101387.131
101386.06
101384.975
101383.859
101382.655
101381.511
101380.438
101379.1
101392.672
101392.672
101392.672
101392.674
101392.676
101392.679
101392.683
101392.687
101392.693
101392.699
101392.706
101392.714
101392.723
101392.733
101392.744
101392.756
101392.769
101392.783
101392.798
101392.814
101392.832
101392.85
101392.87
101392.892
101392.914
101392.938
101392.964
101392.991
101393.02
101393.051
101393.085
101393.12
101393.157
101393.197
101393.24
101393.286
101393.335
101393.387
101393.442
101393.502
101393.567
101393.637
101393.712
101393.792
101393.879
101393.973
101394.074
101394.182
101394.3
101394.426
101394.562
101394.709
101394.868
101395.039
101395.222
101395.417
101395.624
101395.842
101396.07
101396.303
101396.539
101396.771
101396.993
101397.194
101397.358
101397.461
101397.478
101397.391
101397.191
101396.879
101396.466
101395.967
101395.363
101394.636
101393.828
101393.13
101392.503
101391.772
101391.28
101390.646
101396.063
101396.063
101396.064
101396.066
101396.069
101396.073
101396.078
101396.085
101396.092
101396.101
101396.112
101396.123
101396.136
101396.15
101396.165
101396.182
101396.201
101396.221
101396.242
101396.265
101396.29
101396.316
101396.344
101396.374
101396.406
101396.441
101396.477
101396.516
101396.557
101396.6
101396.647
101396.696
101396.748
101396.804
101396.864
101396.927
101396.994
101397.066
101397.142
101397.223
101397.308
101397.399
101397.498
101397.603
101397.714
101397.834
101397.961
101398.098
101398.243
101398.399
101398.565
101398.743
101398.933
101399.135
101399.35
101399.577
101399.817
101400.07
101400.334
101400.611
101400.899
101401.195
101401.496
101401.798
101402.093
101402.365
101402.601
101402.78
101402.88
101402.877
101402.782
101402.623
101402.456
101402.286
101401.881
101401.274
101400.987
101400.432
101400.199
101400.174
101399.315
101399.315
101399.316
101399.319
101399.322
101399.328
101399.334
101399.342
101399.352
101399.363
101399.375
101399.389
101399.405
101399.422
101399.441
101399.462
101399.485
101399.509
101399.536
101399.564
101399.594
101399.627
101399.661
101399.698
101399.738
101399.78
101399.824
101399.872
101399.922
101399.975
101400.032
101400.092
101400.155
101400.223
101400.295
101400.371
101400.452
101400.537
101400.627
101400.723
101400.825
101400.933
101401.047
101401.169
101401.299
101401.437
101401.584
101401.74
101401.906
101402.082
101402.27
101402.47
101402.682
101402.906
101403.145
101403.398
101403.663
101403.942
101404.234
101404.539
101404.853
101405.174
101405.497
101405.82
101406.141
101406.46
101406.784
101407.116
101407.407
101407.638
101407.795
101407.896
101407.973
101408.048
101408.136
101408.123
101408.034
101407.909
101407.604
101407.625
101402.394
101402.395
101402.396
101402.399
101402.403
101402.409
101402.416
101402.425
101402.436
101402.449
101402.463
101402.479
101402.497
101402.516
101402.538
101402.562
101402.587
101402.615
101402.645
101402.677
101402.711
101402.748
101402.787
101402.829
101402.874
101402.921
101402.972
101403.025
101403.081
101403.141
101403.205
101403.272
101403.344
101403.419
101403.499
101403.583
101403.672
101403.766
101403.866
101403.971
101404.082
101404.201
101404.326
101404.459
101404.6
101404.749
101404.906
101405.073
101405.249
101405.436
101405.635
101405.845
101406.068
101406.304
101406.555
101406.819
101407.1
101407.397
101407.713
101408.046
101408.396
101408.76
101409.138
101409.524
101409.909
101410.279
101410.612
101410.879
101411.121
101411.379
101411.644
101411.968
101412.383
101412.785
101413.117
101413.318
101413.397
101413.562
101413.777
101414.08
101405.276
101405.277
101405.278
101405.281
101405.285
101405.292
101405.3
101405.309
101405.321
101405.334
101405.35
101405.367
101405.386
101405.407
101405.43
101405.456
101405.483
101405.513
101405.545
101405.58
101405.617
101405.656
101405.698
101405.743
101405.791
101405.841
101405.895
101405.952
101406.013
101406.077
101406.144
101406.216
101406.292
101406.372
101406.456
101406.545
101406.639
101406.738
101406.843
101406.954
101407.072
101407.197
101407.328
101407.466
101407.612
101407.766
101407.929
101408.101
101408.282
101408.474
101408.677
101408.892
101409.12
101409.36
101409.614
101409.881
101410.163
101410.459
101410.77
101411.096
101411.438
101411.796
101412.172
101412.564
101412.977
101413.418
101413.896
101414.392
101414.872
101415.305
101415.698
101416.039
101416.269
101416.531
101416.96
101417.576
101418.107
101418.367
101418.626
101419.007
101407.945
101407.945
101407.946
101407.949
101407.954
101407.96
101407.968
101407.978
101407.99
101408.004
101408.02
101408.037
101408.057
101408.079
101408.103
101408.129
101408.157
101408.188
101408.221
101408.257
101408.295
101408.335
101408.378
101408.425
101408.474
101408.526
101408.581
101408.64
101408.701
101408.767
101408.837
101408.91
101408.987
101409.069
101409.155
101409.246
101409.342
101409.443
101409.55
101409.663
101409.782
101409.908
101410.04
101410.179
101410.326
101410.48
101410.643
101410.815
101410.997
101411.189
101411.391
101411.606
101411.832
101412.07
101412.32
101412.584
101412.863
101413.156
101413.466
101413.793
101414.14
101414.506
101414.892
101415.299
101415.728
101416.177
101416.638
101417.108
101417.605
101418.147
101418.749
101419.373
101419.988
101420.556
101420.992
101421.221
101421.48
101422.066
101423.089
101423.681
101410.392
101410.391
101410.392
101410.395
101410.399
101410.406
101410.414
101410.423
101410.435
101410.449
101410.464
101410.482
101410.501
101410.523
101410.547
101410.572
101410.601
101410.631
101410.664
101410.699
101410.737
101410.778
101410.821
101410.867
101410.916
101410.968
101411.023
101411.081
101411.143
101411.208
101411.277
101411.349
101411.426
101411.506
101411.592
101411.682
101411.777
101411.878
101411.984
101412.095
101412.212
101412.335
101412.464
101412.6
101412.744
101412.895
101413.055
101413.224
101413.401
101413.589
101413.788
101413.998
101414.219
101414.452
101414.698
101414.957
101415.231
101415.521
101415.827
101416.152
101416.494
101416.856
101417.24
101417.647
101418.078
101418.532
101419.007
101419.512
101420.062
101420.656
101421.277
101421.897
101422.543
101423.253
101424.032
101424.846
101425.646
101426.401
101427.166
101427.718
101412.616
101412.616
101412.616
101412.618
101412.622
101412.628
101412.635
101412.644
101412.655
101412.667
101412.682
101412.699
101412.717
101412.738
101412.761
101412.786
101412.813
101412.842
101412.874
101412.908
101412.944
101412.983
101413.025
101413.069
101413.116
101413.166
101413.219
101413.276
101413.335
101413.399
101413.465
101413.536
101413.61
101413.689
101413.771
101413.858
101413.949
101414.044
101414.145
101414.251
101414.363
101414.481
101414.605
101414.735
101414.873
101415.018
101415.172
101415.337
101415.51
101415.692
101415.884
101416.085
101416.298
101416.524
101416.762
101417.014
101417.28
101417.562
101417.861
101418.179
101418.513
101418.863
101419.233
101419.63
101420.059
101420.521
101421.013
101421.54
101422.101
101422.69
101423.303
101423.978
101424.75
101425.576
101426.379
101427.159
101427.96
101428.826
101429.909
101430.935
101414.621
101414.62
101414.619
101414.62
101414.623
101414.627
101414.634
101414.641
101414.651
101414.662
101414.676
101414.691
101414.708
101414.727
101414.748
101414.771
101414.796
101414.823
101414.853
101414.885
101414.919
101414.956
101414.995
101415.037
101415.081
101415.129
101415.178
101415.231
101415.287
101415.346
101415.408
101415.473
101415.542
101415.615
101415.691
101415.772
101415.858
101415.948
101416.042
101416.14
101416.244
101416.353
101416.471
101416.597
101416.729
101416.869
101417.015
101417.169
101417.332
101417.505
101417.686
101417.879
101418.082
101418.297
101418.524
101418.763
101419.017
101419.287
101419.575
101419.883
101420.215
101420.572
101420.952
101421.351
101421.761
101422.193
101422.662
101423.169
101423.742
101424.381
101425.065
101425.798
101426.559
101427.331
101428.169
101429.122
101430.137
101431.191
101432.178
101433.146
101416.416
101416.413
101416.411
101416.41
101416.411
101416.414
101416.418
101416.424
101416.432
101416.441
101416.453
101416.465
101416.48
101416.497
101416.515
101416.536
101416.558
101416.582
101416.609
101416.637
101416.668
101416.701
101416.736
101416.773
101416.813
101416.856
101416.901
101416.948
101416.999
101417.052
101417.109
101417.169
101417.232
101417.299
101417.369
101417.442
101417.518
101417.598
101417.685
101417.779
101417.878
101417.982
101418.091
101418.205
101418.326
101418.456
101418.592
101418.736
101418.887
101419.048
101419.218
101419.399
101419.59
101419.792
101420.007
101420.234
101420.475
101420.731
101421.003
101421.291
101421.598
101421.926
101422.28
101422.67
101423.101
101423.575
101424.095
101424.66
101425.224
101425.796
101426.434
101427.14
101427.91
101428.797
101429.792
101430.816
101431.836
101432.794
101433.74
101434.73
101418.003
101417.998
101417.994
101417.992
101417.99
101417.991
101417.993
101417.996
101418.001
101418.008
101418.016
101418.026
101418.038
101418.052
101418.067
101418.084
101418.103
101418.123
101418.146
101418.171
101418.197
101418.226
101418.257
101418.29
101418.325
101418.363
101418.403
101418.446
101418.492
101418.54
101418.59
101418.642
101418.696
101418.754
101418.816
101418.885
101418.956
101419.032
101419.11
101419.191
101419.279
101419.372
101419.47
101419.573
101419.683
101419.798
101419.922
101420.053
101420.192
101420.34
101420.498
101420.665
101420.843
101421.032
101421.233
101421.446
101421.673
101421.913
101422.169
101422.441
101422.731
101423.04
101423.371
101423.726
101424.108
101424.518
101424.966
101425.459
101426.019
101426.659
101427.394
101428.245
101429.157
101430.02
101430.865
101431.799
101432.798
101433.834
101434.921
101435.932
101419.396
101419.39
101419.383
101419.378
101419.374
101419.372
101419.371
101419.371
101419.373
101419.377
101419.382
101419.389
101419.397
101419.407
101419.419
101419.432
101419.448
101419.465
101419.483
101419.504
101419.527
101419.551
101419.578
101419.606
101419.637
101419.668
101419.702
101419.738
101419.775
101419.815
101419.858
101419.905
101419.955
101420.007
101420.061
101420.118
101420.177
101420.241
101420.308
101420.38
101420.455
101420.535
101420.621
101420.711
101420.808
101420.911
101421.02
101421.138