/*--------------------------------*- C++ -*----------------------------------*\
  =========                 |
  \\      /  F ield         | OpenFOAM: The Open Source CFD Toolbox
   \\    /   O peration     | Website:  https://openfoam.org
    \\  /    A nd           | Version:  8
     \\/     M anipulation  |
\*---------------------------------------------------------------------------*/
FoamFile
{
    version     2.0;
    format      ascii;
    class       surfaceScalarField;
    location    "0.03";
    object      phi;
}
// * * * * * * * * * * * * * * * * * * * * * * * * * * * * * * * * * * * * * //

dimensions      [1 0 -1 0 0 0 0];

internalField   nonuniform List<scalar> 
84340
(
-7.23201693e-08
3.56661611e-07
-2.84415022e-07
-2.89024092e-07
1.09812944e-06
-8.81544431e-07
-6.54518411e-07
1.88614371e-06
-1.52079609e-06
-1.17335582e-06
2.71571005e-06
-2.1970434e-06
-1.85041428e-06
3.58434472e-06
-2.90747845e-06
-2.69090879e-06
4.49136623e-06
-3.65108399e-06
-3.70039079e-06
5.4375381e-06
-4.42828818e-06
-4.88470731e-06
6.42460567e-06
-5.2405416e-06
-6.24994399e-06
7.45485518e-06
-6.0898924e-06
-7.80235746e-06
8.53076592e-06
-6.97864931e-06
-9.54829709e-06
9.65478344e-06
-7.90916541e-06
-1.1494115e-05
1.08291857e-05
-8.88371612e-06
-1.36460659e-05
1.20560155e-05
-9.90444183e-06
-1.60101977e-05
1.3337056e-05
-1.09733328e-05
-1.85922223e-05
1.46738235e-05
-1.20922412e-05
-2.13973899e-05
1.60675904e-05
-1.32629016e-05
-2.44303328e-05
1.75194015e-05
-1.44869765e-05
-2.76949116e-05
1.90300993e-05
-1.57660804e-05
-3.11940366e-05
2.06003502e-05
-1.71018302e-05
-3.4929476e-05
2.2230658e-05
-1.84958717e-05
-3.89016464e-05
2.39213756e-05
-1.99499099e-05
-4.31093785e-05
2.5672706e-05
-2.14657336e-05
-4.75496525e-05
2.74846864e-05
-2.30452306e-05
-5.22173124e-05
2.93571699e-05
-2.46903903e-05
-5.71047284e-05
3.12897747e-05
-2.6403305e-05
-6.22014246e-05
3.32818283e-05
-2.81861483e-05
-6.74936614e-05
3.5332275e-05
-3.00411285e-05
-7.29639526e-05
3.74395677e-05
-3.1970445e-05
-7.85905232e-05
3.96015118e-05
-3.39761928e-05
-8.43466631e-05
4.1815054e-05
-3.60602533e-05
-9.01999931e-05
4.40760452e-05
-3.82241474e-05
-9.61117714e-05
4.63790955e-05
-4.04688474e-05
-0.000102036547
4.8717704e-05
-4.27945636e-05
-0.000107922368
5.1084461e-05
-4.52003854e-05
-0.000113710742
5.34704421e-05
-4.76839326e-05
-0.000119334275
5.5862632e-05
-5.02410876e-05
-0.000124704341
5.82345475e-05
-5.28666057e-05
-0.000129722471
6.05705701e-05
-5.55547184e-05
-0.000134282364
6.28560779e-05
-5.82986201e-05
-0.000138293696
6.50925909e-05
-6.10838668e-05
-0.000141648374
6.72190692e-05
-6.38671478e-05
-0.00014415519
6.91523397e-05
-6.66484269e-05
-0.000145496182
7.0768702e-05
-6.94308787e-05
-0.000145347747
7.20220414e-05
-7.21739422e-05
-0.000143389687
7.28314301e-05
-7.47932488e-05
-0.000139292608
7.30736876e-05
-7.71748671e-05
-0.00013264523
7.26128416e-05
-7.92646961e-05
-0.000123044899
7.13173323e-05
-8.09225474e-05
-0.000109992645
6.90182144e-05
-8.20758237e-05
-9.29750685e-05
6.5531457e-05
-8.25548917e-05
-7.13711692e-05
6.05436221e-05
-8.21539519e-05
-4.46677564e-05
5.39807982e-05
-8.06912473e-05
-1.26232059e-05
4.59477386e-05
-7.79999903e-05
2.5275875e-05
3.58010597e-05
-7.3708589e-05
7.02655841e-05
2.28296437e-05
-6.78284934e-05
0.000123481972
6.75931155e-06
-5.99854526e-05
0.000186249095
-1.2478597e-05
-5.02992576e-05
0.000260114576
-3.63604286e-05
-3.75167461e-05
0.00034657954
-6.49651217e-05
-2.15123413e-05
0.000447619343
-9.93960561e-05
-1.65690258e-06
0.000565153443
-0.000139887851
2.23400445e-05
0.000701204474
-0.000187467102
5.14019695e-05
0.000857366861
-0.000243212882
8.7036045e-05
0.00103591393
-0.000308286099
0.000129724473
0.00123991956
-0.000384071228
0.000180050937
0.00147125592
-0.000470682143
0.000239332169
0.00173337199
-0.000572693926
0.000310565937
0.00203470487
-0.000696550616
0.000395207309
0.00236595605
-0.000818335151
0.000487074526
0.00272475784
-0.000979497169
0.000620686878
0.0031701139
-0.00121512389
0.000769759624
0.00368666013
-0.00130682053
0.000790266195
0.00408878143
-0.00135298202
0.000950852476
0.00443680559
-0.00173807068
0.00139003802
0.00508288367
-0.0021166149
0.0014705273
0.00590228083
-0.00214987532
0.00133046807
0.00643028363
-0.00223663559
0.00170862153
0.0066565345
-0.00257492269
0.00234865855
0.00687944234
-0.00284604096
0.0026230862
-0.00300167876
0.00262865841
0.0072524074
-5.91232023e-08
4.15636001e-07
-2.36068276e-07
1.27486303e-06
-5.34212711e-07
2.18404423e-06
-9.57051648e-07
3.13827515e-06
-1.50816168e-06
4.1351528e-06
-2.19144058e-06
5.17431581e-06
-3.01101089e-06
6.25675148e-06
-3.97117206e-06
7.38438143e-06
-5.0763285e-06
8.5595963e-06
-6.3309048e-06
9.78489526e-06
-7.73924763e-06
1.10626456e-05
-9.30551608e-06
1.23949375e-05
-1.10335582e-05
1.37835026e-05
-1.29267716e-05
1.52296735e-05
-1.49879599e-05
1.6734372e-05
-1.72191566e-05
1.82981007e-05
-1.96214481e-05
1.99209566e-05
-2.21947705e-05
2.16026321e-05
-2.49376826e-05
2.33424158e-05
-2.78471198e-05
2.5139188e-05
-3.09181185e-05
2.6991402e-05
-3.41435004e-05
2.88970464e-05
-3.75135346e-05
3.08536048e-05
-4.1015543e-05
3.2857983e-05
-4.46334631e-05
3.4906414e-05
-4.83473563e-05
3.69943493e-05
-5.21328436e-05
3.91162917e-05
-5.59604842e-05
4.12656319e-05
-5.97951732e-05
4.34345102e-05
-6.35956656e-05
4.56137329e-05
-6.73140352e-05
4.77924687e-05
-7.08943989e-05
4.99573713e-05
-7.4268826e-05
5.20898861e-05
-7.73607329e-05
5.41739453e-05
-8.00861336e-05
5.6193242e-05
-8.23603835e-05
5.81341208e-05
-8.41037677e-05
5.99749849e-05
-8.5181457e-05
6.1645064e-05
-8.54155305e-05
6.30866798e-05
-8.45382816e-05
6.42116141e-05
-8.22748029e-05
6.49515807e-05
-7.83491119e-05
6.52222883e-05
-7.24980645e-05
6.49129054e-05
-6.44008748e-05
6.39197204e-05
-5.36795871e-05
6.21045894e-05
-3.99334335e-05
5.93215427e-05
-2.26710186e-05
5.53439517e-05
-1.49063403e-06
5.01299757e-05
2.41238236e-05
4.33962215e-05
5.4292079e-05
3.53550712e-05
8.99500749e-05
2.48769948e-05
0.000131963784
1.19580969e-05
0.00018140482
-3.502922e-06
0.000239550555
-2.23551464e-05
0.000307984438
-4.56155608e-05
0.000388068118
-7.33363882e-05
0.000481634394
-0.000106057602
0.000589814881
-0.000144554211
0.000714504821
-0.000189668941
0.000857366279
-0.000242271832
0.00102069274
-0.000303229051
0.00120678175
-0.000373570917
0.00141774458
-0.000454190326
0.00165570932
-0.000546264074
0.00192354315
-0.000651916777
0.00222136468
-0.000768514022
0.00254715537
-0.000898494353
0.00291161951
-0.00106102405
0.00332018468
-0.00122691002
0.00372984422
-0.0013891668
0.00414875858
-0.00163404952
0.004696863
-0.00185493731
0.00528269556
-0.00193882845
0.0056560035
-0.00211139379
0.00596843947
-0.00242906773
0.00646025779
-0.00264171178
0.00695081304
-0.00272721282
0.00722314543
-0.00284727982
0.00735367835
-0.00297660724
-0.00310952921
0.00746148336
-4.72911366e-08
4.62825779e-07
-1.88398901e-07
1.4158268e-06
-4.2541416e-07
2.4208936e-06
-7.60467452e-07
3.47314222e-06
-1.19571445e-06
4.57019423e-06
-1.73327387e-06
5.71165055e-06
-2.37540122e-06
6.89863452e-06
-3.12445701e-06
8.13317227e-06
-3.98273975e-06
9.41759203e-06
-4.9523805e-06
1.07542253e-05
-6.03522281e-06
1.21451515e-05
-7.23268824e-06
1.35920387e-05
-8.54562905e-06
1.50960492e-05
-9.97416426e-06
1.66577822e-05
-1.15174978e-05
1.82772442e-05
-1.31737231e-05
1.99538272e-05
-1.49395969e-05
2.16862915e-05
-1.68103002e-05
2.34727536e-05
-1.87791653e-05
2.53106532e-05
-2.08373757e-05
2.71967218e-05
-2.29736361e-05
2.91269338e-05
-2.5173795e-05
3.10964215e-05
-2.74204011e-05
3.30993684e-05
-2.96921745e-05
3.51288518e-05
-3.19634399e-05
3.71767088e-05
-3.42035025e-05
3.92333714e-05
-3.63760571e-05
4.1287732e-05
-3.84384337e-05
4.33268162e-05
-4.03410021e-05
4.5335802e-05
-4.20280015e-05
4.72993643e-05
-4.34369635e-05
4.91999719e-05
-4.45025684e-05
5.10214298e-05
-4.51577226e-05
5.27433921e-05
-4.52981873e-05
5.43126422e-05
-4.47950195e-05
5.5688189e-05
-4.3479398e-05
5.68164838e-05
-4.1141697e-05
5.76351129e-05
-3.75673416e-05
5.80683831e-05
-3.25157236e-05
5.80325463e-05
-2.57312881e-05
5.74244567e-05
-1.69425416e-05
5.61598946e-05
-5.83640237e-06
5.41129762e-05
7.92594418e-06
5.11471211e-05
2.47828291e-05
4.70591182e-05
4.51181181e-05
4.17652709e-05
6.90599781e-05
3.53753122e-05
9.72812626e-05
2.71178873e-05
0.000130574874
1.68312651e-05
0.000169734966
4.23069343e-06
0.000215707591
-1.06235212e-05
0.000269583325
-2.90053274e-05
0.000332638913
-5.1104623e-05
0.000406486111
-7.73578741e-05
0.000492421034
-0.000108298396
0.000591424484
-0.000144627967
0.000705096151
-0.000187017558
0.000835256763
-0.000236228359
0.000983826941
-0.00029313495
0.00115275954
-0.00035861253
0.00134428551
-0.000433809041
0.00156082262
-0.00051977731
0.00180430209
-0.000617060547
0.00207595426
-0.000725851928
0.00237588371
-0.000846202227
0.00270552818
-0.000981569907
0.00306481134
-0.00112780586
0.0034466567
-0.0012803492
0.00384590521
-0.00146028287
0.00428080986
-0.00166182651
0.00474073405
-0.00184910426
0.00514523374
-0.00203856447
0.00555160271
-0.00226132349
0.00603190871
-0.0024191524
0.0064416739
-0.00252117781
0.00665379898
-0.00264121373
0.00678531945
-0.00277325461
0.00695449147
-0.00289641463
0.00711774695
-0.00301056795
0.00726162401
-0.00312051792
-0.00321458413
0.00736664375
-3.99731692e-08
5.02625606e-07
-1.58139852e-07
1.53374609e-06
-3.55080516e-07
2.61754863e-06
-6.31248049e-07
3.74898933e-06
-9.87129895e-07
4.92572336e-06
-1.42310474e-06
6.14724163e-06
-1.93935894e-06
7.41447412e-06
-2.53583626e-06
8.7292036e-06
-3.21239465e-06
1.00936719e-05
-3.96849493e-06
1.15098129e-05
-4.80304985e-06
1.29791579e-05
-5.71426655e-06
1.45026691e-05
-6.6994638e-06
1.60806201e-05
-7.7548816e-06
1.77125313e-05
-8.8754679e-06
1.93971172e-05
-1.00546352e-05
2.11322341e-05
-1.12840016e-05
2.29148473e-05
-1.25530875e-05
2.47409764e-05
-1.38489918e-05
2.66056384e-05
-1.51559965e-05
2.85027484e-05
-1.64550929e-05
3.04249894e-05
-1.77234609e-05
3.2363682e-05
-1.89339458e-05
3.43086752e-05
-2.00546167e-05
3.62482695e-05
-2.10492948e-05
3.81700522e-05
-2.18771668e-05
4.00598209e-05
-2.24927066e-05
4.19017602e-05
-2.28460361e-05
4.36785389e-05
-2.28716065e-05
4.535966e-05
-2.24898691e-05
4.6915804e-05
-2.16056774e-05
4.83138408e-05
-2.01006853e-05
4.9514361e-05
-1.78282285e-05
5.04687009e-05
-1.46361079e-05
5.11181302e-05
-1.0345878e-05
5.13953936e-05
-4.75108449e-06
5.12189197e-05
2.38744591e-06
5.04935845e-05
1.13080635e-05
4.91445338e-05
2.22822957e-05
4.70548254e-05
3.56077061e-05
4.40952823e-05
5.16774576e-05
4.00860797e-05
7.0864471e-05
3.49215682e-05
9.33012845e-05
2.87055414e-05
0.000119690502
2.06648434e-05
0.000150676736
1.0773676e-05
0.000187042209
-9.95994499e-07
0.000229646823
-1.54931118e-05
0.000279528816
-3.305762e-05
0.000337745412
-5.39933606e-05
0.000405833856
-7.87199789e-05
0.000484619832
-0.000107799927
0.000575327977
-0.00014182197
0.000679371835
-0.000181411591
0.000798311126
-0.00022724814
0.00093371847
-0.000280046338
0.00108729827
-0.00034060875
0.00126081024
-0.00040975222
0.00145618322
-0.000488520212
0.00167535822
-0.000577799655
0.00192006806
-0.000678529866
0.00219191643
-0.00079163587
0.00249151326
-0.000916666798
0.00281797976
-0.00105232763
0.00316786454
-0.00119609607
0.00353772623
-0.00135144122
0.00392638223
-0.00151647212
0.00433312589
-0.00168710456
0.00473787246
-0.00186504258
0.0051317819
-0.00205575052
0.00551086306
-0.00222820052
0.00583882096
-0.00236654083
0.00607772592
-0.00250025228
0.00627461995
-0.00261607047
0.00647008376
-0.00271666999
0.00663937575
-0.00281053641
0.00677427736
-0.00290818452
0.00688241889
-0.00300459911
0.00697507111
-0.00310326244
0.00705750945
-0.00320298991
-0.00330548745
0.00714838173
-3.77574204e-08
5.40257999e-07
-1.47885341e-07
1.64369369e-06
-3.2925326e-07
2.79870701e-06
-5.80486191e-07
3.99998609e-06
-8.99984856e-07
5.24496094e-06
-1.2860887e-06
6.53306007e-06
-1.73681203e-06
7.86488734e-06
-2.24959663e-06
9.24165245e-06
-2.82131777e-06
1.06650302e-05
-3.44825475e-06
1.21363583e-05
-4.12580268e-06
1.36562835e-05
-4.84827192e-06
1.5224683e-05
-5.60867232e-06
1.68405299e-05
-6.39847325e-06
1.8501804e-05
-7.20734018e-06
2.02054157e-05
-8.02284001e-06
2.19471229e-05
-8.83007344e-06
2.37214244e-05
-9.61126411e-06
2.55214628e-05
-1.03453342e-05
2.73389535e-05
-1.10075774e-05
2.91641834e-05
-1.15698457e-05
3.09863928e-05
-1.20002516e-05
3.27931626e-05
-1.22630338e-05
3.45704717e-05
-1.2312941e-05
3.6297128e-05
-1.20969063e-05
3.79528997e-05
-1.15528505e-05
3.95145757e-05
-1.06072221e-05
4.09548684e-05
-9.17117191e-06
4.22411463e-05
-7.14769488e-06
4.33347538e-05
-4.4225937e-06
4.41891848e-05
-8.60201742e-07
4.47498366e-05
3.70043511e-06
4.49520032e-05
9.44782034e-06
4.47194762e-05
1.65742993e-05
4.39896927e-05
2.53007257e-05
4.26668772e-05
3.58729543e-05
4.06444607e-05
4.8562211e-05
3.78019416e-05
6.37248092e-05
3.3979385e-05
8.17195059e-05
2.90573875e-05
0.000102710175
2.31016617e-05
0.00012735513
1.54379951e-05
0.000156243448
6.02994011e-06
0.000190065763
-5.12038994e-06
0.000229592522
-1.88658686e-05
0.000275743389
-3.538149e-05
0.0003297655
-5.50227633e-05
0.000392463173
-7.81958463e-05
0.000464796748
-0.000105396664
0.000547946521
-0.000137149067
0.000643231022
-0.000174010878
0.000752016259
-0.000216592084
0.000875726973
-0.000265540037
0.00101583399
-0.000321526416
0.00117383381
-0.000385256133
0.00135121812
-0.000457439316
0.00154950809
-0.000538907771
0.00177002674
-0.000630279951
0.00201378752
-0.000732289453
0.00228119965
-0.000845219883
0.00257199893
-0.000969336838
0.00288547122
-0.00110511584
0.00322008147
-0.00125128473
0.00357232925
-0.0014045836
0.00393564993
-0.00155942547
0.00430227398
-0.00171807518
0.00466714691
-0.00188135613
0.00502024365
-0.00204021346
0.00533448976
-0.00217930169
0.00558707677
-0.0023083529
0.00577909463
-0.00242023932
0.00594687716
-0.00253435435
0.00609220495
-0.00264561135
0.00622452307
-0.00274841662
0.0063474966
-0.00283967515
0.00645926759
-0.002922345
0.0065603004
-0.00300926194
0.00665344846
-0.00309778864
0.00673948325
-0.00318933985
0.00682704612
-0.00329060743
-0.00339104176
0.00691255808
-3.93620907e-08
5.79406251e-07
-1.52384775e-07
1.75641193e-06
-3.36026925e-07
2.9819984e-06
-5.86842315e-07
4.25040882e-06
-9.00959278e-07
5.55864671e-06
-1.27404921e-06
6.905682e-06
-1.70137935e-06
8.29171272e-06
-2.17760806e-06
9.71733892e-06
-2.69603608e-06
1.11828775e-05
-3.24908088e-06
1.26887823e-05
-3.82778581e-06
1.42343256e-05
-4.42156789e-06
1.58177582e-05
-5.01793756e-06
1.74361464e-05
-5.60218894e-06
1.90852535e-05
-6.15705881e-06
2.07594326e-05
-6.66244268e-06
2.24516001e-05
-7.09509402e-06
2.41531121e-05
-7.4284465e-06
2.58537913e-05
-7.63105933e-06
2.75404816e-05
-7.66617691e-06
2.91981535e-05
-7.49093702e-06
3.0809937e-05
-7.05551656e-06
3.23564502e-05
-6.30145805e-06
3.38150443e-05
-5.16479285e-06
3.51590166e-05
-3.56960433e-06
3.63561808e-05
-1.42500925e-06
3.73683608e-05
1.37664538e-06
3.81514924e-05
4.96225904e-06
3.86537015e-05
9.46964814e-06
3.88254204e-05
1.50539415e-05
3.86028263e-05
2.18917484e-05
3.79098328e-05
3.01824155e-05
3.66589976e-05
4.01476338e-05
3.47517659e-05
5.20579825e-05
3.20766863e-05
6.62322668e-05
2.84897572e-05
8.30097745e-05
2.38639169e-05
0.000102575946
1.8232508e-05
0.00012553135
1.1020538e-05
0.000152410384
2.17471853e-06
0.000183819081
-8.3109739e-06
0.000220445888
-2.11931019e-05
0.00026309442
-3.66232164e-05
0.000312892987
-5.49239497e-05
0.000370513804
-7.64920611e-05
0.000436896585
-0.000101770065
0.000513102857
-0.000131235261
0.000600305218
-0.000165404915
0.000699732114
-0.000204830739
0.000812668271
-0.000250092864
0.000940442346
-0.000301792986
0.00108437441
-0.000360532591
0.00124574408
-0.000426918488
0.00142573169
-0.000501523263
0.00162544433
-0.000584978344
0.00184567395
-0.000677678406
0.00208679099
-0.000780033561
0.00234838801
-0.00089188521
0.00262936989
-0.00101327904
0.00292739273
-0.00114325022
0.00323976644
-0.00128171784
0.0035620156
-0.00142737251
0.00389015386
-0.00157943075
0.00422063273
-0.00173507097
0.00454397178
-0.00188277352
0.00484361183
-0.00201772531
0.00510462819
-0.00214238343
0.00531668149
-0.00225227949
0.00548489054
-0.00234752813
0.00561978616
-0.00244327189
0.00573957995
-0.00254005848
0.00584316984
-0.00263797047
0.00593634005
-0.002738815
0.00602307554
-0.00283518714
0.00610920388
-0.00292583606
0.00619834152
-0.00301152198
0.00629124945
-0.00310221731
0.0063879156
-0.0031944985
0.00648749764
-0.00328896878
0.00658697281
-0.00339013214
-0.00348891505
0.00668480966
-4.24383052e-08
6.21663949e-07
-1.62409542e-07
1.87612318e-06
-3.54546018e-07
3.17383321e-06
-6.12877902e-07
4.5084012e-06
-9.30752299e-07
5.87614652e-06
-1.30074758e-06
7.27526892e-06
-1.71452484e-06
8.70504767e-06
-2.16275735e-06
1.01650937e-05
-2.63481247e-06
1.16544178e-05
-3.11782935e-06
1.31712456e-05
-3.59721969e-06
1.47131211e-05
-4.0560769e-06
1.62759768e-05
-4.47481495e-06
1.7854199e-05
-4.83076113e-06
1.94404645e-05
-5.09760966e-06
2.1025495e-05
-5.2447517e-06
2.25979026e-05
-5.23689833e-06
2.41443599e-05
-5.03337619e-06
2.56493073e-05
-4.58795235e-06
2.70940331e-05
-3.84755837e-06
2.84566702e-05
-2.75022747e-06
2.97114471e-05
-1.22289234e-06
3.08278801e-05
8.20744509e-07
3.17700928e-05
3.47692947e-06
3.25014364e-05
6.85522861e-06
3.2976401e-05
1.1080123e-05
3.31418957e-05
1.62929064e-05
3.2937044e-05
2.26531473e-05
3.22916968e-05
3.03502626e-05
3.1126437e-05
3.95997657e-05
2.93513458e-05
5.06459799e-05
2.68615244e-05
6.37759029e-05
2.35268595e-05
7.93076135e-05
1.92177052e-05
9.74356077e-05
1.39461921e-05
0.000118698372
7.22437331e-06
0.000143575118
-1.0155664e-06
0.000172602561
-1.07978742e-05
0.000206395196
-2.27752597e-05
0.000245654711
-3.70881765e-05
0.000291368798
-5.40286714e-05
0.000344145058
-7.39732287e-05
0.000404840087
-9.73223809e-05
0.000474422653
-0.000124510951
0.000553936868
-0.000156011033
0.000644487742
-0.000192326043
0.000747230138
-0.000233983084
0.000863339125
-0.000281519663
0.000993974844
-0.00033547253
0.00114024263
-0.000396367053
0.00130314913
-0.000464706188
0.00148354758
-0.000540938117
0.00168215265
-0.000625530979
0.00189935115
-0.000718729184
0.00213505124
-0.000820685388
0.00238842201
-0.000931055791
0.00265790227
-0.00104952007
0.00294068088
-0.0011746699
0.00323362265
-0.00130622672
0.00353180841
-0.00144144201
0.00383174743
-0.00158166304
0.00412688691
-0.00172251855
0.00440574929
-0.00185829974
0.00465337871
-0.00198270728
0.00486617375
-0.00209557658
0.0050438581
-0.00219542102
0.00518649138
-0.00228502956
0.00530177406
-0.0023675765
0.00540390336
-0.00244967636
0.00549631053
-0.00253570187
0.00557914164
-0.00262291302
0.00565013793
-0.00270899077
0.00571157825
-0.00280028548
0.00577122106
-0.0028948635
0.00583781559
-0.00299246453
0.00591154538
-0.00308529298
0.00599041026
-0.00318112577
0.00608384551
-0.00328797681
0.00618904591
-0.00339421758
0.00629479874
-0.00349593268
-0.00359567357
0.00640151506
-4.40554153e-08
6.65463918e-07
-1.65991803e-07
1.99769666e-06
-3.57505449e-07
3.36492936e-06
-6.09436148e-07
4.75986491e-06
-9.11586517e-07
6.17778418e-06
-1.25255125e-06
7.61567721e-06
-1.61948363e-06
9.07138031e-06
-1.99782426e-06
1.05427902e-05
-2.37128538e-06
1.2027188e-05
-2.72105097e-06
1.35202714e-05
-3.02521676e-06
1.50164963e-05
-3.2585423e-06
1.65084583e-05
-3.39192954e-06
1.79866855e-05
-3.39187279e-06
1.94394471e-05
-3.21987453e-06
2.0852475e-05
-2.83182507e-06
2.22087674e-05
-2.17693368e-06
2.34883122e-05
-1.19575709e-06
2.46669001e-05
1.79602969e-07
2.57173658e-05
2.02647502e-06
2.66084109e-05
4.43364443e-06
2.73028059e-05
7.50179652e-06
2.77581663e-05
1.13448972e-05
2.79253356e-05
1.60965784e-05
2.77479996e-05
2.19097568e-05
2.7161362e-05
2.89582321e-05
2.60914496e-05
3.74398863e-05
2.44533019e-05
4.75846408e-05
2.21447301e-05
5.96285481e-05
1.90801879e-05
7.38696923e-05
1.51077167e-05
9.04989372e-05
1.02296351e-05
0.000110020426
4.00259794e-06
0.000132854462
-3.61923398e-06
0.000159475591
-1.26780442e-05
0.000190426888
-2.37302611e-05
0.000226319823
-3.69120563e-05
0.000268012928
-5.24947695e-05
0.000316057888
-7.08242612e-05
0.000371226784
-9.22613847e-05
0.000434393871
-0.00011720036
0.000506485181
-0.000146069458
0.000588481409
-0.000179323855
0.000681405185
-0.000217440294
0.000786293439
-0.000260905163
0.000904164562
-0.000310203359
0.00103598021
-0.000365805229
0.0011826033
-0.00042814954
0.00134474844
-0.000497624745
0.00152292827
-0.000574554282
0.001717427
-0.000659212663
0.00192819687
-0.000751715734
0.00215470251
-0.000852043905
0.00239574651
-0.000959780014
0.00264942561
-0.00107437087
0.00291288079
-0.00119451703
0.00318281253
-0.00131945759
0.0034543172
-0.00144618021
0.00372406508
-0.0015759802
0.0039855113
-0.0017028939
0.00422673999
-0.00182289705
0.00443524339
-0.00193102721
0.0046066468
-0.00202970991
0.00474389314
-0.00211996341
0.00486163167
-0.00221332514
0.00496970079
-0.00230349925
0.00507145898
-0.00238679923
0.0051635304
-0.00245966228
0.00524060075
-0.00252676365
0.00530723364
-0.00260235487
0.00536872533
-0.00268442764
0.00542793407
-0.00276822074
0.00548351291
-0.00285588629
0.00553652269
-0.00294790589
0.00559182071
-0.00304780522
0.00565381312
-0.0031473286
0.0057170915
-0.00324444645
0.00579106902
-0.00336199761
0.00588695052
-0.00349015142
0.00599364557
-0.00360267725
-0.00370100858
0.00609894554
-4.1119332e-08
7.06336613e-07
-1.51140104e-07
2.10736491e-06
-3.18173776e-07
3.53155579e-06
-5.2914043e-07
4.97037455e-06
-7.69479995e-07
6.41762047e-06
-1.02287233e-06
7.86852163e-06
-1.27087339e-06
9.31878896e-06
-1.49245873e-06
1.07637375e-05
-1.66356616e-06
1.21976086e-05
-1.75702869e-06
1.36129955e-05
-1.74124083e-06
1.49999161e-05
-1.57994348e-06
1.63463117e-05
-1.23154228e-06
1.76373745e-05
-6.48322688e-07
1.88552535e-05
2.24388817e-07
1.99787218e-05
1.4492303e-06
2.09828124e-05
3.09789368e-06
2.18384591e-05
5.25184971e-06
2.25116751e-05
8.00456173e-06
2.29633017e-05
1.14630321e-05
2.31484995e-05
1.57493656e-05
2.30149377e-05
2.10027446e-05
2.25031551e-05
2.73812452e-05
2.15451004e-05
3.50642605e-05
2.00631423e-05
4.42580959e-05
1.79655731e-05
5.51896047e-05
1.51578715e-05
6.80572159e-05
1.15834918e-05
8.31959297e-05
7.00367709e-06
0.000100956562
1.3171024e-06
0.000121710349
-5.64863719e-06
0.000145885618
-1.39483722e-05
0.000173968918
-2.40836274e-05
0.000206493225
-3.61466439e-05
0.000244204447
-5.03925581e-05
0.000287601112
-6.71304193e-05
0.000337372711
-8.66873612e-05
0.000394294176
-0.00010942017
0.000459180558
-0.000135714828
0.000532895858
-0.000165981129
0.00061633969
-0.000200648888
0.0007104232
-0.000240157924
0.000816042498
-0.000284948367
0.000934045037
-0.000335448314
0.00106519104
-0.00039205691
0.00121010641
-0.000455124738
0.0013692278
-0.000524932889
0.00154274615
-0.00060167446
0.00173054984
-0.000685435317
0.00193219586
-0.000776207322
0.00214673827
-0.000873761844
0.00237261017
-0.000977594052
0.00260755778
-0.00108699758
0.00284863278
-0.0012008608
0.00309246265
-0.00131820627
0.00333471332
-0.00143677313
0.00357167996
-0.00155642951
0.00379872547
-0.00167323083
0.00400355781
-0.00178081744
0.00418093487
-0.00188027581
0.00432667751
-0.00196864479
0.00444418587
-0.0020485421
0.00454162407
-0.00212715557
0.00462815065
-0.00220649772
0.00470347459
-0.00228865838
0.00477184796
-0.00237188353
0.00483900972
-0.00245397135
0.00491101457
-0.00253167922
0.00498022043
-0.00259598576
0.00504354888
-0.00266570137
0.00510375952
-0.00274465622
0.00516669516
-0.00283118015
0.00523352262
-0.00292274645
0.00530244348
-0.00301686113
0.00537316197
-0.00311855853
0.00544771485
-0.00322192249
0.0055213587
-0.00331813184
0.00558338931
-0.00342406787
0.00565957074
-0.00356638286
0.00575908139
-0.00370223439
-0.00380817713
0.00586621769
-3.2467623e-08
7.38511331e-07
-1.12891529e-07
2.18737371e-06
-2.24789414e-07
3.64297679e-06
-3.49942313e-07
5.0949943e-06
-4.68014784e-07
6.53510721e-06
-5.56151565e-07
7.95602186e-06
-5.88457443e-07
9.35040778e-06
-5.35426148e-07
1.07099673e-05
-3.63292438e-07
1.20246813e-05
-3.33064076e-08
1.32821582e-05
4.98514327e-07
1.44671836e-05
1.28241347e-06
1.55614367e-05
2.3757704e-06
1.65429737e-05
3.84409777e-06
1.73858101e-05
5.76191866e-06
1.80597092e-05
8.21453843e-06
1.85289209e-05
1.12991021e-05
1.87525381e-05
1.5126245e-05
1.8683084e-05
1.98218447e-05
1.82661585e-05
2.55291256e-05
1.74395745e-05
3.24098754e-05
1.61324377e-05
4.06490198e-05
1.42621494e-05
5.0452659e-05
1.17394802e-05
6.20034749e-05
8.51021544e-06
7.56068955e-05
4.35992366e-06
9.15659571e-05
-8.03534905e-07
0.000110214724
-7.06777505e-06
0.000131930114
-1.47143859e-05
0.000157151333
-2.39069561e-05
0.000186341264
-3.4841585e-05
0.000220151108
-4.7761422e-05
0.000259002678
-6.29386042e-05
0.000303515257
-8.06628429e-05
0.000354371327
-0.000101252475
0.000412289619
-0.000125052804
0.000478029191
-0.000152431279
0.000552378667
-0.000183774243
0.000636137622
-0.000219478634
0.000730095282
-0.0002599439
0.000835002601
-0.000305561579
0.00095153984
-0.0003567008
0.00108027647
-0.000413690894
0.00122162271
-0.000476800725
0.00137577494
-0.000546215557
0.00154265726
-0.000622013741
0.00172186829
-0.000704150908
0.00191265099
-0.000792464428
0.00211381141
-0.000886602939
0.00232359159
-0.000985994335
0.00253958117
-0.00108975792
0.00275874973
-0.00119676881
0.00297766015
-0.00130591392
0.00319239873
-0.00141560512
0.00339951389
-0.00152532699
0.00359469166
-0.00163195621
0.00376891815
-0.00173066101
0.00391790982
-0.00182222766
0.0040402801
-0.00190319254
0.00414080417
-0.00198080465
0.00422737986
-0.0020552257
0.00430632756
-0.00212749585
0.00437438489
-0.00219522052
0.00443208162
-0.00226420227
0.00448146987
-0.00233805415
0.00452401678
-0.0024144387
0.00456346724
-0.00249343038
0.00460778091
-0.00257600449
0.00466413913
-0.00265236016
0.00472802985
-0.00272960818
0.00479490996
-0.00281155377
0.00486584982
-0.00290214338
0.00494290571
-0.00299982862
0.00502511692
-0.00309910126
0.00511043545
-0.00320390979
0.00520599231
-0.00331751804
0.00531026722
-0.00342244321
0.00540216175
-0.00351599722
0.00548159125
-0.00364585803
0.0055755886
-0.00379627085
-0.003917044
0.00568443048
-1.75415334e-08
7.55751595e-07
-4.85877427e-08
2.21799213e-06
-7.05825324e-08
3.66447931e-06
-5.85443362e-08
5.08240488e-06
1.5464423e-08
6.46049196e-06
1.82899321e-07
7.78792685e-06
4.79354155e-07
9.05323918e-06
9.45178763e-07
1.02433736e-05
1.62621348e-06
1.13428196e-05
2.5745565e-06
1.23329271e-05
3.84944561e-06
1.31913415e-05
5.51837708e-06
1.38914832e-05
7.65789993e-06
1.44023563e-05
1.03555857e-05
1.46869531e-05
1.37109e-05
1.47031405e-05
1.7836869e-05
1.44016093e-05
2.28616868e-05
1.3726285e-05
2.89302666e-05
1.26129706e-05
3.62073726e-05
1.0987416e-05
4.4879097e-05
8.76610278e-06
5.51180404e-05
5.89162745e-06
6.71890272e-05
2.18918474e-06
8.1357678e-05
-2.43126309e-06
9.7920432e-05
-8.0547746e-06
0.000117211236
-1.49332706e-05
0.000139605083
-2.31999258e-05
0.000165573547
-3.30389466e-05
0.000195524421
-4.46681406e-05
0.000229939033
-5.83246323e-05
0.000269362983
-7.42687928e-05
0.000314383869
-9.27857711e-05
0.00036562501
-0.000114183431
0.000423747759
-0.000138789507
0.000489440745
-0.000166949608
0.000563404389
-0.000199020829
0.00064633324
-0.000235364752
0.000738893138
-0.000276339009
0.000841694603
-0.00032228522
0.000955259795
-0.000373514467
0.00107998236
-0.00043028978
0.00121608165
-0.000492805976
0.00136355177
-0.000561167162
0.00152210784
-0.000635363191
0.00169113251
-0.000715246917
0.0018696336
-0.000800521847
0.0020562474
-0.000890771884
0.00224914547
-0.000985369515
0.00244600319
-0.0010834674
0.00264392484
-0.00118392247
0.00283970166
-0.00128554101
0.0030297456
-0.00138681891
0.00321079918
-0.00148697355
0.00337949651
-0.00158430823
0.00352830972
-0.00167414528
0.00365427928
-0.00175793077
0.00375608077
-0.00183246852
0.0038392127
-0.00190536544
0.00391370293
-0.00197768876
0.0039808195
-0.00204792803
0.00404147758
-0.00211589049
0.00409493601
-0.00218096151
0.00414416238
-0.00224445399
0.00419120388
-0.00231125125
0.00423505713
-0.00238191598
0.00427571223
-0.00245510196
0.00431308391
-0.00253081097
0.00434881259
-0.00261174539
0.0043912786
-0.00269483872
0.00443899403
-0.00277733756
0.00449045645
-0.00286303447
0.00454774853
-0.00295945752
0.00461268019
-0.00306478504
0.00469017227
-0.003176621
0.00477390344
-0.00328767158
0.00486254873
-0.0034061957
0.00496751822
-0.0035274471
0.00508488775
-0.00363340229
0.00518376239
-0.00374476693
0.00526743001
-0.0038799711
-0.00400273846
0.00535308849
4.53722588e-09
7.50899246e-07
4.52786416e-08
2.17680595e-06
1.52373609e-07
3.55687441e-06
3.59227246e-07
4.8749814e-06
7.03177462e-07
6.1159157e-06
1.22616669e-06
7.26425688e-06
1.97547622e-06
8.30319386e-06
3.00462344e-06
9.21343372e-06
4.37428653e-06
9.9723042e-06
6.15332133e-06
1.05529767e-05
8.41955976e-06
1.09241211e-05
1.12618113e-05
1.10481791e-05
1.47805712e-05
1.08824672e-05
1.90896029e-05
1.03767103e-05
2.43178506e-05
9.47359523e-06
3.06109955e-05
8.10707554e-06
3.81338765e-05
6.20191644e-06
4.70475045e-05
3.69774877e-06
5.75796826e-05
4.53541558e-07
6.99625475e-05
-3.61856489e-06
8.44564431e-05
-8.60419988e-06
0.000101353461
-1.4709903e-05
0.000120978869
-2.20588818e-05
0.000143741012
-3.08192778e-05
0.000169989097
-4.11838737e-05
0.00020014952
-5.33630354e-05
0.000234695593
-6.75878839e-05
0.000274135623
-8.41112236e-05
0.000319013954
-0.00010320622
0.00036990611
-0.000125164418
0.000427410878
-0.000150294226
0.000492139566
-0.000178916025
0.000564702204
-0.000211356279
0.00064568912
-0.000247940891
0.000735649149
-0.000288985463
0.000835062903
-0.000334783356
0.000944310035
-0.000385591238
0.00106363172
-0.00044161225
0.00119308844
-0.00050297679
0.0013325148
-0.000569721987
0.00148147282
-0.000641770093
0.0016392069
-0.00071890758
0.00180460596
-0.000800768877
0.0019761775
-0.000886825409
0.00215207496
-0.000976426372
0.00233008199
-0.0010687858
0.00250756266
-0.00116285685
0.00268169743
-0.00125760865
0.00284930769
-0.00135153907
0.00300795667
-0.00144419626
0.00315447308
-0.00153334137
0.00328379355
-0.00161629953
0.00339364147
-0.00169416137
0.00348320849
-0.00176371763
0.00355577547
-0.00183050414
0.00361960994
-0.00189630915
0.00367580916