/*--------------------------------*- C++ -*----------------------------------*\
  =========                 |
  \\      /  F ield         | OpenFOAM: The Open Source CFD Toolbox
   \\    /   O peration     | Website:  https://openfoam.org
    \\  /    A nd           | Version:  8
     \\/     M anipulation  |
\*---------------------------------------------------------------------------*/
FoamFile
{
    version     2.0;
    format      ascii;
    class       volScalarField;
    location    "0.03";
    object      T;
}
// * * * * * * * * * * * * * * * * * * * * * * * * * * * * * * * * * * * * * //

dimensions      [0 0 0 1 0 0 0];

internalField   nonuniform List<scalar> 
42400
(
472.204028
470.594568
468.943012
467.248549
465.510433
463.727999
461.900676
460.028011
458.109685
456.145538
454.135596
452.080096
449.979521
447.834627
445.64648
443.416492
441.146453
438.838572
436.495511
434.120417
431.716953
429.289329
426.842315
424.381262
421.912105
419.441355
416.976084
414.52389
412.092857
409.691488
407.328633
405.013399
402.755051
400.562913
398.446228
396.414014
394.474929
392.637142
390.908242
389.295225
387.804477
386.441704
385.211896
384.119221
383.167033
382.357854
381.693307
381.174136
380.800145
380.5702
380.483529
380.53085
380.710674
381.016269
381.438711
381.965956
382.58197
383.26787
383.992603
384.731084
385.479581
386.146986
386.515517
386.49467
386.094895
385.337919
384.263869
382.776978
380.760361
377.932312
374.340873
370.688719
365.856711
359.097642
352.997799
347.409659
339.692825
331.645746
323.416348
318.74195
472.238907
470.699968
469.120781
467.500584
465.838683
464.134466
462.387423
460.597161
458.763426
456.886126
454.965358
453.001433
450.994905
448.946609
446.857687
444.729628
442.564304
440.363999
438.131454
435.869893
433.583056
431.275229
428.95126
426.616581
424.277208
421.939744
419.611359
417.299767
415.013183
412.760267
410.550055
408.391873
406.295243
404.269767
402.325011
400.470392
398.715073
397.067872
395.537121
394.130548
392.855129
391.716933
390.720966
389.87097
389.169382
388.617218
388.213901
387.956874
387.841752
387.861365
388.008171
388.269993
388.630891
389.071463
389.565325
390.085916
390.610742
391.129429
391.411986
391.392413
391.072939
390.314105
389.308202
387.973212
386.232788
383.917466
380.916405
377.122968
372.621472
367.269721
361.049402
355.028179
348.844643
341.242712
333.69202
326.969393
320.926332
314.675746
309.575734
304.772502
472.283675
470.835255
469.348976
467.824146
466.260147
464.656451
463.012636
461.328402
459.603594
457.838225
456.032498
454.186835
452.301907
450.378663
448.418364
446.422618
444.393412
442.333145
440.244667
438.131306
435.996901
433.845825
431.683006
429.513942
427.344708
425.181951
423.032875
420.905216
418.8072
416.747489
414.735113
412.779393
410.889855
409.076142
407.347875
405.714517
404.185215
402.768619
401.472645
400.304253
399.269179
398.37176
397.614692
396.998764
396.52247
396.181915
395.971376
395.881253
395.89577
395.996554
396.164733
396.377495
396.615157
396.83885
396.897123
396.765118
396.3203
395.518099
394.50392
393.206074
391.554847
389.431715
386.745272
383.445656
379.476754
374.846805
369.54563
363.508897
356.964403
350.092421
342.82518
335.749975
329.270748
322.988216
316.909817
311.558451
307.105216
303.653174
300.909339
300.187779
472.335057
470.990532
469.610896
468.195542
466.743947
465.255685
463.730444
462.168043
460.568451
458.931815
457.258476
455.549003
453.804215
452.025217
450.213426
448.370606
446.498896
444.600849
442.679456
440.738178
438.780969
436.8123
434.837175
432.861136
430.890268
428.931184
426.991014
425.077368
423.198302
421.362249
419.577941
417.854308
416.200365
414.625056
413.137062
411.744585
410.455107
409.275107
408.209801
407.262828
406.435904
405.728417
405.137132
404.65642
404.276427
403.98404
403.764959
403.602811
403.48385
403.310993
403.037102
402.607314
401.958126
401.052628
399.961769
398.627002
396.984916
394.94738
392.422137
389.362282
385.728532
381.49708
376.667566
371.277333
365.358851
359.014725
352.341365
345.37963
338.320223
331.508771
325.048013
319.030414
313.74641
309.305841
305.742179
302.943647
300.822566
300.060076
299.897705
299.866587
472.389323
471.154529
469.887533
468.587826
467.25499
465.888713
464.488807
463.055222
461.588069
460.087641
458.554435
456.989179
455.392857
453.766738
452.112406
450.431785
448.727169
447.001249
445.257138
443.498392
441.729029
439.953539
438.176893
436.404541
434.642396
432.896813
431.174549
429.482707
427.828665
426.219969
424.664207
423.168858
421.741101
420.387583
419.114182
417.925725
416.825672
415.815764
414.895659
414.062587
413.311411
412.633751
412.018531
411.453744
410.900502
410.322026
409.676925
408.917448
407.988267
406.926162
405.695332
404.250295
402.539942
400.493383
398.038342
395.134525
391.74711
387.849309
383.426798
378.470315
372.988692
367.044394
360.732376
354.172123
347.456258
340.704977
334.075402
327.710071
321.709303
316.273463
311.550886
307.644619
304.577502
302.296987
300.683006
300.065551
299.928596
299.891844
299.878921
299.877115
472.442227
471.314413
470.157248
468.970323
467.753331
466.506076
465.228491
463.920655
462.58281
461.215385
459.819012
458.394555
456.943129
455.466125
453.965233
452.442468
450.900185
449.341101
447.768309
446.185287
444.595904
443.004408
441.415421
439.833906
438.265129
436.714598
435.187991
433.691044
432.229428
430.808588
429.433563
428.108762
426.837711
425.622764
424.464815
423.362931
422.314012
421.312696
420.350725
419.416899
418.490915
417.546455
416.553446
415.478881
414.314172
413.035491
411.610559
410.002698
408.167824
406.044194
403.585914
400.756518
397.524007
393.863439
389.759639
385.207211
380.21178
374.783908
368.947197
362.757222
356.293261
349.667351
343.02076
336.498339
330.228157
324.306339
318.86261
314.02147
309.856952
306.440835
303.796714
301.920192
300.622328
300.065667
299.938045
299.894977
299.879365
299.876944
299.868206
299.862477
472.488948
471.455621
470.395476
469.308202
468.193587
467.051535
465.882075
464.685379
463.461778
462.211778
460.93608
459.635595
458.311465
456.965075
455.598072
454.212376
452.810188
451.393994
449.966565
448.530942
447.090422
445.648522
444.208936
442.775472
441.351972
439.942206
438.549749
437.177826
435.829134
434.505637
433.208335
431.936995
430.689856
429.463316
428.251729
427.046953
425.837726
424.608391
423.34146
422.016537
420.614094
419.112349
417.485315
415.701486
413.720158
411.503334
409.017249
406.228581
403.107481
399.629149
395.775371
391.535769
386.909377
381.905139
376.541723
370.846175
364.85119
358.617612
352.229128
345.772588
339.359967
333.111903
327.168445
321.640527
316.645646
312.27684
308.596169
305.629428
303.368336
301.759531
300.723096
300.113926
299.965275
299.916126
299.898169
299.88602
299.875641
299.863877
299.852142
299.838313
472.524391
471.56275
470.576227
469.564584
468.527673
467.46545
466.377983
465.265466
464.128227
462.966745
461.781658
460.573772
459.344073
458.09373
456.824098
455.536719
454.233309
452.915745
451.586045
450.246323
448.898753
447.545496
446.188628
444.830036
443.471306
442.113579
440.757386
439.402461
438.047533
436.690099
435.326237
433.950421
432.55544
431.131483
429.666688
428.146644
426.55469
424.873099
423.079713
421.149037
419.055356
416.771597
414.269952
411.522639
408.502724
405.186646
401.554926
397.593267
393.293731
388.655792
383.687395
378.405259
372.835544
367.013666
360.975406
354.783278
348.522657
342.279126
336.156072
330.259567
324.697902
319.561345
314.95055
310.949802
307.62848
305.014738
303.065595
301.692183
300.803617
300.287406
300.033996
299.960193
299.926763
299.904908
299.885805
299.866449
299.849225
299.837902
299.829909
299.824713
472.543851
471.621575
470.675486
469.70537
468.711084
467.692559
466.649811
465.582942
464.492148
463.377721
462.240055
461.079642
459.897075
458.693035
457.468283
456.223647
454.959991
453.678188
452.379078
451.063408
449.731769
448.384508
447.021623
445.642634
444.246442
442.831182
441.394
439.930766
438.435671
436.900641
435.317085
433.674996
431.962315
430.165533
428.268874
426.254666
424.103572
421.794861
419.306768
416.617035
413.703516
410.544721
407.121695
403.418559
399.423371
395.129105
390.534585
385.645356
380.474423
375.042979
369.380878
363.525504
357.520118
351.417109
345.29661
339.245688
333.366662
327.759818
322.518266
317.739583
313.503236
309.864203
306.85927
304.493978
302.739043
301.527322
300.756717
300.306319
300.064673
299.958514
299.919221
299.892985
299.871178
299.854639
299.842619
299.83169
299.823844
299.821616
299.823491
299.823962
472.544052
471.62218
470.676483
469.706706
468.71264
467.694125
466.651047
465.583341
464.490987
463.374003
462.232435
461.066347
459.8758
458.660833
457.421447
456.157578
454.869048
453.555514
452.216399
450.850804
449.45741
448.034343
446.579017
445.087175
443.552417
441.968833
440.330293
438.629539
436.858457
435.008402
433.068172
431.024681
428.863503
426.568987
424.124413
421.512268
418.714604
415.713452
412.491228
409.032107
405.322516
401.351757
397.112828
392.603262
387.825951
382.789937
377.511155
372.013246
366.328166
360.496749
354.567789
348.591807
342.637976
336.789765
331.140847
325.789737
320.826338
316.338175
312.396563
309.052112
306.326022
304.194867
302.6061
301.48753
300.752609
300.307789
300.065442
299.943167
299.895185
299.872905
299.858652
299.848879
299.841127
299.834094
299.83128
299.830329
299.824296
299.818909
299.818275
299.820221
472.525799
471.567041
470.583523
469.574955
468.541056
467.481553
466.396176
465.284651
464.146694
462.982008
461.790273
460.571134
459.323283
458.044864
456.734361
455.390332
454.011004
452.594211
451.137323
449.637178
448.090013
446.491398
444.836236
443.119503
441.336494
439.480183
437.541756
435.511349
433.378088
431.130098
428.754531
426.237684
423.565174
420.722189
417.693766
414.465098
411.022462
407.353726
403.448787
399.300245
394.904145
390.260749
385.375351
380.259103
374.929809
369.412651
363.741004
357.957158
352.112731
346.267854
340.484779
334.840769
329.422241
324.320502
319.615971
315.388759
311.695198
308.579408
306.050505
304.082115
302.618163
301.581441
300.884647
300.441154
300.175904
300.022106
299.94093
299.903352
299.882879
299.867501
299.855457
299.845957
299.83842
299.832054
299.8278
299.825827
299.821079
299.813794
299.806931
299.806369
472.487952
471.452674
470.390605
469.301338
468.184425
467.039365
465.865596
464.662081
463.427318
462.160063
460.858842
459.521908
458.148091
456.736321
455.284658
453.790461
452.250683
450.661822
449.019855
447.320205
445.557672
443.726341
441.819607
439.830108
437.749624
435.569088
433.27858
430.867365
428.323972
425.636311
422.791828
419.777706
416.5811
413.189713
409.592332
405.779122
401.74219
397.476217
392.979166
388.253053
383.304778
378.146993
372.798968
367.287399
361.647036
355.921206
350.162394
344.431898
338.799475
333.337178
328.123474
323.241693
318.764972
314.763051
311.281242
308.347609
305.961708
304.092992
302.68806
301.678029
300.985667
300.532691
300.24955
300.078894
299.979547
299.925892
299.895358
299.87572
299.860514
299.848294
299.838258
299.829019
299.822149
299.817011
299.812836
299.811291
299.81094
299.809123
299.802992
299.798042
472.432117
471.283916
470.105857
468.897328
467.657609
466.385854
465.080411
463.74023
462.364378
460.951252
459.499008
458.005525
456.468382
454.884808
453.251628
451.565228
449.821499
448.015801
446.142891
444.196927
442.171418
440.059155
437.852238
435.542065
433.119347
430.574148
427.895954
425.073777
422.096292
418.952008
415.629605
412.118468
408.408879
404.492489
400.362852
396.016053
391.45141
386.672253
381.686778
376.508928
371.159275
365.665844
360.064755
354.400605
348.726342
343.10298
337.598947
332.287396
327.244693
322.542615
318.246341
314.414866
311.085897
308.281226
305.993711
304.188061
302.81151
301.799767
301.085228
300.601119
300.286553
300.090294
299.972783
299.905302
299.870847
299.853295
299.845669
299.841403
299.83812
299.833569
299.828459
299.821849
299.81403
299.809787
299.807499
299.804622
299.8032
299.801151
299.797391
299.795961
472.362887
471.074688
469.752884
468.396669
467.00507
465.576735
464.110544
462.60493
461.058078
459.467883
457.831924
456.147423
454.411212
452.619698
450.768811
448.853979
446.870093
444.811474
442.67182
440.444215
438.121114
435.694347
433.155139
430.494156
427.701566
424.767145
421.6804
418.430743
415.008003
411.402551
407.605682
403.61007
399.410304
395.00351
390.390056
385.574341
380.565629
375.378928
370.035842
364.565342
359.004347
353.39802
347.799553
342.269522
336.874135
331.683604
326.769248
322.199766
318.033284
314.318566
311.087001
308.354872
306.113471
304.329765
302.955647
301.932948
301.198251
300.689495
300.350726
300.134916
300.003408
299.926865
299.884216
299.865491
299.856897
299.851606
299.845998
299.840561
299.83628
299.831679
299.827056
299.82097
299.813172
299.806632
299.803978
299.802542
299.800852
299.798105
299.793396
299.790498
472.283392
470.834442
469.347619
467.821927
466.256145
464.648811
462.99838
461.302905
459.560122
457.767418
455.921796
454.019839
452.057675
450.030945
447.934766
445.763701
443.511742
441.172298
438.738179
436.201616
433.554275
430.787306
427.891409
424.856934
421.674007
418.332836
414.823942
411.13842
407.268312
403.207061
398.950045
394.495194
389.843689
385.000736
379.976377
374.786335
369.452804
364.005145
358.48037
352.923331
347.386457
341.928928
336.614983
331.512058
326.686569
322.20264
318.114244
314.465259
311.282562
308.578331
306.343634
304.549409
303.152238
302.098929
301.331462
300.792489
300.428377
300.191985
300.04493
299.958227
299.909488
299.88266
299.868127
299.858011
299.8496
299.84232
299.835675
299.829403
299.824193
299.819526
299.814282
299.809432
299.804405
299.79798
299.793021
299.791257
299.793224
299.794552
299.789797
299.782128
472.19559
470.569093
468.900021
467.187182
465.429098
463.624126
461.77035
459.865434
457.906662
455.890908
453.814604
451.6737
449.463637
447.179321
444.8151
442.364752
439.821483
437.177929
434.426192
431.557875
428.56416
425.435903
422.163795
418.738638
415.151518
411.39411
407.459052
403.340389
399.0341
394.538707
389.855953
384.991548
379.955956
374.765184
369.441516
364.014134
358.519515
353.00152
347.511047
342.105157
336.845574
331.79655
327.021391
322.5806
318.525026
314.895739
311.717577
309.002184
306.74042
304.905829
303.459434
302.35307
301.534328
300.948703
300.544584
300.275748
300.10321
299.995956
299.931376
299.892684
299.869544
299.854581
299.843023
299.833744
299.826543
299.821252
299.817042
299.813682
299.809755
299.805952
299.802582
299.800379
299.795948
299.78998
299.784606
299.783083
299.784348
299.79184
299.792573
299.782209
472.100694
470.282304
468.416259
466.501189
464.53544
462.517082
460.443778
458.312783
456.120914
453.864524
451.539466
449.141067
446.664107
444.102807
441.45082
438.701246
435.846654
432.87913
429.790347
426.571663
423.21432
419.709624
416.049165
412.225116
408.230601
404.060128
399.710101
395.179409
390.47008
385.587996
380.543638
375.352825
370.037407
364.62582
359.153435
353.662598
348.202243
342.827002
337.59571
332.569315
327.808367
323.370226
319.303805
315.648025
312.428401
309.657808
307.330759
305.424013
303.901501
302.719034
301.827678
301.176188
300.714484
300.397638
300.187002
300.051136
299.965223
299.911159
299.876677
299.854103
299.839998
299.831663
299.82598
299.821832
299.820085
299.817831
299.814789
299.811758
299.808818
299.805751
299.803394
299.800765
299.796543
299.791005
299.785123
299.780915
299.778883
299.78181
299.792067
299.792556
471.999719
469.97714
467.90152
465.771308
463.584599
461.339105
459.032115
456.660462
454.220494
451.708041
449.118399
446.446307
443.685946
440.830947
437.874413
434.808965
431.626809
428.319838
424.879823
421.298562
417.568114
413.681085
409.630986
405.412648
401.022716
396.460208
391.727142
386.829208
381.776474
376.584083
371.272896
365.870016
360.409113
354.930466
349.48061
344.111508
338.879174
333.841722
329.056825
324.578893
320.456681
316.728488
313.421371
310.550293
308.113823
306.093767
304.459772
303.172192
302.184573
301.447207
300.912468
300.536344
300.279563
300.109089
299.998754
299.928933
299.885999
299.859728
299.844515
299.836152
299.832376
299.828486
299.824863
299.822435
299.82001
299.817282
299.813888
299.810445
299.806533
299.803119
299.80023
299.797778
299.795311
299.791562
299.789734
299.784286
299.775566
299.775253
299.781841
299.792
471.893629
469.656507
467.360646
465.004273
462.585211
460.100846
457.548094
454.923367
452.222554
449.440997
446.573485
443.614259
440.557031
437.395024
434.121038
430.727544
427.206852
423.551259
419.753272
415.805883
411.702904
407.439365
403.011977
398.419665
393.664154
388.750608
383.68829
378.491222
373.178793
367.776259
362.315071
356.832944
351.37358
345.985974
340.723221
335.6408
330.794354
326.237084
322.016661
318.17283
314.735439
311.721276
309.133116
306.959087
305.174821
303.745902
302.630712
301.783763
301.158605
300.710157
300.397206
300.185358
300.046411
299.95834
299.904321
299.872099
299.853577
299.844372
299.839692
299.836315
299.833012
299.828782
299.824023
299.820112
299.816186
299.812363
299.808089
299.802385
299.796853
299.792633
299.790015
299.789119
299.78911
299.78918
299.790391
299.795184
299.795138
299.782633
299.778886
299.788688
471.78341
469.323382
466.798676
464.207281
461.546736
458.814102
456.005932
453.118245
450.146518
447.085683
443.930139
440.673786
437.310085
433.832141
430.232845
426.505021
422.64163
418.63603
414.48228
410.175522
405.712407
401.091595
396.314305
391.384913
386.311579
381.106872
375.788356
370.379091
364.90797
359.409846
353.925341
348.500294
343.18476
338.031565
333.094381
328.425363
324.072503
320.077317
316.471673
313.27606
310.498668
308.133942
306.162949
304.556506
303.278128
302.286285
301.537108
300.986882
300.594827
300.324085
300.142732
300.024925
299.950772
299.905393
299.878197
299.861776
299.851178
299.843924
299.839165
299.836312
299.831642
299.826275
299.821098
299.816593
299.812154
299.806842
299.801629
299.797025
299.794778
299.792715
299.788994
299.787926
299.787851
299.787409
299.786854
299.790513
299.802328
299.809504
299.799231
299.794016
472.600478
471.792588
470.963496
470.112711
469.239734
468.344056
467.425155
466.482495
465.515519
464.523651
463.50629
462.462806
461.392539
460.294791
459.168823
458.013851
456.829038
455.613485
454.366226
453.086217
451.772326
450.42332
449.037854
447.614452
446.151493
444.647192
443.099579
441.506479
439.865499
438.17402
436.429187
434.627302
432.764035
430.835034
428.835242
426.759001
424.601693
422.35646
420.015729
417.571176
415.013708
412.333356
409.519314
406.560028
403.443384
400.15703
396.688887
393.027931
389.165321
385.095961
380.820579
376.348353
371.700042
366.911438
362.036706
357.150912
352.350679
347.751713
343.48172
339.66798
336.419916
333.809386
331.853174
330.508642
329.679159
329.233303
329.031425
328.947992
328.886462
328.804477
328.678795
328.499548
328.270381
328.003681
327.720932
327.438934
327.192942
327.028512
326.977675
326.992259
472.60051
471.792723
470.963819
470.113367
469.24093
468.346066
467.428325
466.487241
465.522339
464.533124
463.519081
462.479677
461.41435
460.322512
459.203542
458.056784
456.881542
455.677072
454.44258
453.17721
451.88004
450.550071
449.186217
447.787291
446.351998
444.878916
443.366459
441.812871
440.216201
438.574278
436.884683
435.144712
433.351357
431.501304
429.590932
427.616087
425.570332
423.447952
421.242237
418.945413
416.55182
414.052189
411.436404
408.693475
405.811585
402.77811
399.579919
396.203858
392.637504
388.870274
384.895004
380.71008
376.322171
371.749533
367.025685
362.20304
357.35569
352.580271
347.993545
343.725401
339.906498
336.651129
334.037239
332.088083
330.761816
329.956963
329.539042
329.369378
329.295241
329.243363
329.165921
329.033269
328.842933
328.591984
328.290175
327.961234
327.637573
327.365484
327.182926
327.104836
472.597402
471.783371
470.948143
470.091344
469.212601
468.311537
467.387769
466.440907
465.470549
464.476285
463.457686
462.41431
461.345698
460.251367
459.130817
457.98352
456.808919
455.606427
454.375419
453.11523
451.825146
450.504398
449.152155
447.767511
446.349471
444.896942
443.408729
441.883513
440.319827
438.716034
437.070305
435.380589
433.64459
431.859738
430.023069
428.131198
426.180302
424.166135
422.084036
419.928802
417.691403
415.364267
412.938302
410.404305
407.753841
404.974799
402.054215
398.978524
395.733758
392.306212
388.683453
384.855813
380.818465
376.574102
372.136222
367.532996
362.811176
358.039415
353.309903
348.736817
344.450062
340.583472
337.25779
334.560724
332.528593
331.134821
330.28977
329.857281
329.687493
329.647338
329.626188
329.570906
329.462406
329.288457
329.050012
328.773009
328.49003
328.244313
328.080085
328.064363
472.590976
471.763992
470.915558
470.045357
469.153077
468.238405
467.301027
466.340625
465.356876
464.349451
463.318009
462.262203
461.181674
460.07605
458.944947
457.787966
456.604689
455.394683
454.157488
452.892623
451.599573
450.277792
448.926692
447.545641
446.133949
444.690866
443.215566
441.707135
440.16456
438.586703
436.972282
435.31984
433.627712
431.893976
430.116481
428.292796
426.420129
424.495274
422.514572
420.473873
418.368149
416.191832
413.938861
411.601139
409.167476
406.627626
403.969307
401.183697
398.256998
395.174702
391.922181
388.485562
384.852845
381.015731
376.972091
372.729219
368.307599
363.745096
359.100893
354.458032
349.923129
345.621818
341.688572
338.250712
335.408655
333.216878
331.670634
330.702695
330.19278
330.051204
330.019287
330.039857
330.047294
330.004454
329.88924
329.716633
329.519023
329.333787
329.200705
329.190356
472.580954
471.733746
470.864646
469.97339
469.059721
468.12339
467.16415
466.181754
465.175957
464.14651
463.093165
462.01567
460.913769
459.787206
458.635718
457.45904
456.2569
455.02902
453.775115
452.494887
451.188025
449.854204
448.493075
447.104266
445.687373
444.241956
442.767529
441.26355
439.729413
438.164433
436.567829
434.938703
433.276022
431.578585
429.844997
428.073623
426.262545
424.409498
422.511795
420.566228
418.569273
416.5168
414.403993
412.225285
409.974192
407.64322
405.224387
402.7039
400.07023
397.310188
394.409441
391.356375
388.135732
384.733532
381.138454
377.343868
373.350635
369.170633
364.830833
360.377421
355.879277
351.42968
347.144465
343.154648
339.592639
336.572819
334.17165
332.4117
331.255235
330.611865
330.352394
330.327242
330.406622
330.499275
330.555417
330.556605
330.487987
330.393239
330.311068
330.310217
472.566994
471.691597
470.793653
469.872943
468.929263
467.962419
466.972223
465.958499
464.921072
463.859778
462.774454
461.664946
460.531108
459.372798
458.189883
456.982238
455.749745
454.492294
453.209781
451.902108
450.569179
449.210901
447.827177
446.417907
444.982977
443.522261
442.035608
440.522836
438.983727
437.418007
435.82534
434.20531
432.557404
430.880988
429.175286
427.439353
425.672039
423.871952
422.037413
420.166404
418.256502
416.304807
414.307835
412.261388
410.160509
407.999689
405.772379
403.470862
401.086421
398.608785
396.026485
393.32361
390.486674
387.501398
384.354413
381.032609
377.52622
373.831064
369.951444
365.903609
361.719613
357.451237
353.172486
348.979987
344.989508
341.327401
338.117353
335.461543
333.419414
331.991487
331.116613
330.684458
330.594438
330.675648
330.838909
331.009827
331.16086
331.250317
331.293397
331.331946
472.548912
471.636989
470.701643
469.742695
468.759985
467.753368
466.722714
465.667908
464.588845
463.485438
462.35761
461.205303
460.028473
458.827096
457.601166
456.350697
455.075726
453.776308
452.452524
451.104472
449.732273
448.336065
446.916003
445.472256
444.005002
442.514424
441.000704
439.464018
437.904527
436.322365
434.717631
433.090376
431.440585
429.76816
428.0729
426.354474
424.612397
422.845995
421.054368
419.236353
417.390469
415.514877
413.607313
411.665024
409.684697
407.662373
405.593334
403.471957
401.291532
399.044617
396.722426
394.314669
391.809667
389.1944
386.454308
383.575429
380.544217
377.349035
373.982027
370.441555
366.735154
362.883197
358.92162
354.904804
350.906761
347.020563
343.354377
340.023993
337.139153
334.782731
333.000149
331.790253
331.100555
330.868609
330.906321
331.075142
331.330992
331.599781
331.83506
332.023084
472.526501
471.569298
470.587561
469.581142
468.549918
467.493786
466.412664
465.306492
464.175229
463.018857
461.837382
460.630835
459.399272
458.142782
456.861484
455.55553
454.225107
452.870439
451.491788
450.089452
448.663768
447.215107
445.743877
444.250518
442.735499
441.199313
439.642475
438.065512
436.468958
434.853346
433.219194
431.566999
429.897218
428.210254
426.506439
424.786007
423.04908
421.295636
419.525481
417.738214
415.933186
414.109459
412.265754
410.400392
408.511234
406.595609
404.650244
402.671183
400.653735
398.592416
396.480903
394.311951
392.077196
389.76707
387.370664
384.875571
382.268055
379.535022
376.66414
373.645338
370.472715
367.14718
363.678604
360.08879
356.413961
352.70728
349.039594
345.498451
342.181753
339.186897
336.604333
334.501757
332.912577
331.842343
331.253575
331.139617
331.251056
331.489648
331.82554
332.174247
472.499536
471.487837
470.450243
469.386625
468.296883
467.180946
466.038768
464.870333
463.675654
462.454774
461.20777
459.934755
458.635881
457.311342
455.961377
454.586274
453.186369
451.762055
450.313776
448.842035
447.347388
445.83045
444.291888
442.732425
441.152831
439.553925
437.936564
436.30164
434.650073
432.982801
431.300767
429.604913
427.896161
426.175398
424.443459
422.701105
420.949
419.187695
417.417594
415.63893
413.851732
412.055802
410.250669
408.435559
406.609349
404.770519
402.917094
401.046568
399.155824
397.241005
395.297378
393.319188
391.29965
389.23093
387.10405
384.91398
382.652026
380.307177
377.867134
375.318839
372.650818
369.855501
366.929255
363.874895
360.704336
357.440997
354.121268
350.794625
347.52183
344.375237
341.434945
338.784411
336.487301
334.588175
333.116506
332.084785
331.545549
331.508876
331.655895
331.976069
472.467921
471.392321
470.289202
469.158438
467.999937
466.813642
465.599529
464.357609
463.087933
461.790591
460.465719
459.113499
457.734167
456.328013
454.89539
453.436715
451.952474
450.443223
448.909597
447.352305
445.772137
444.169961
442.546725
440.903452
439.241243
437.561266
435.864755
434.153002
432.427348
430.689169
428.93987
427.180866
425.413565
423.639355
421.859577
420.075504
418.288322
416.499101
414.708776
412.918111
411.127686
409.337858
407.548749
405.760202
403.971772
402.182695
400.391855
398.597747
396.79846
394.991606
393.174288
391.34304
389.49379
387.621774
385.721379
383.781235
381.792399
379.745107
377.628787
375.448644
373.197172
370.863282
368.436349
365.906666
363.273898
360.543846
357.729608
354.853448
351.948311
349.058644
346.236164
343.536477
341.015862
338.730231
336.71825
335.01681
333.651632
332.609544
332.054418
332.036507
472.431861
471.283361
470.10546
468.898017
467.660926
466.394124
465.097585
463.771331
462.415429
461.029998
459.615213
458.171311
456.698594
455.197439
453.668302
452.111722
450.528328
448.918845
447.284099
445.625018
443.942636
442.238095
440.512647
438.767647
437.004558
435.224942
433.430452
431.622831
429.80389
427.975506
426.139598
424.298112
422.453
420.606197
418.759594
416.915012
415.074171
413.238665
411.409928
409.589203
407.777517
405.975655
404.184137
402.4032
400.632789
398.872581
397.121924
395.379837
393.645033
391.915887
390.190419
388.466269
386.740653
385.0103
383.27136
381.519311
379.749311
377.956364
376.135492
374.264293
372.335007
370.339204
368.268534
366.147922
363.973681
361.738761
359.439332
357.073471
354.661522
352.224459
349.789263
347.389074
345.062527
342.848942
340.786633
338.909341
337.242922
335.799917
334.616335
333.692598
472.391997
471.162892
469.902278
468.609973
467.285835
465.92977
464.541729
463.121719
461.6698
460.186099
458.670809
457.124202
455.546632
453.938545
452.300489
450.633116
448.937196
447.213621
445.463413
443.68773
441.887868
440.065267
438.221511
436.358331
434.477596
432.581315
430.671625
428.750783
426.821152
424.88518
422.945387
421.00433
419.064589
417.128726
415.199253
413.278592
411.36904
409.472732
407.591601
405.727351
403.881415
402.054947
400.248763
398.463333
396.698767
394.954893
393.231182
391.52678
389.840548
388.17108
386.516714
384.875546
383.245424
381.623922
380.008301
378.39545
376.781822
375.163345
373.535275
371.892004
370.228622
368.541368
366.828241
365.053191
363.217953
361.323062
359.370805
357.406656
355.433995
353.451555
351.459822
349.48823
347.559496
345.695548
343.917294
342.242818
340.689903
339.264077
337.960469
336.738639
472.34951
471.034485
469.685675
468.302831
466.885752
465.434286
463.94834
462.427877
460.872931
459.283611
457.66011
456.002713
454.311811
452.587907
450.831627
449.043733
447.225135
445.376894
443.500241
441.596577
439.667486
437.714736
435.740288
433.746288
431.735075
429.709168
427.67126
425.624205
423.570998
421.514755
419.458681
417.406037
415.360108
413.32416
411.301395
409.294909
407.307631
405.34228
403.401313
401.486886
399.600797
397.744496
395.918987
394.124849
392.362219
390.630854
388.930119
387.259026
385.616287
384.000363
382.409517
380.841854
379.295357
377.767886
376.257169
374.760757
373.275962
371.79978
370.328824
368.859295
367.387056
365.907649
364.416218
362.90734
361.379061
359.833057
358.275133
356.66596
355.02742
353.37841
351.742055
350.150122
348.620504
347.171213
345.816383
344.561036
343.395865
342.291375
341.18732
339.979017
472.306223
470.903648
469.464939
467.98976
466.477828
464.928915
463.342854
461.719549
460.058984
458.361231
456.626462
454.854963
453.047145
451.203556
449.324898
447.412038
445.466025
443.488101
441.479715
439.442535
437.378457
435.28961
433.178365
431.047336
428.899372
426.737556
424.565193
422.38579
420.203041
418.020791
415.843009
413.67374
411.51706
409.377019
407.257591
405.162606
403.095681
401.060153
399.05901
397.094844
395.169789
393.28552
391.44318
389.643388
387.886238
386.171332
384.497815
382.864437
381.269629
379.711575
378.188301