/*--------------------------------*- C++ -*----------------------------------*\
  =========                 |
  \\      /  F ield         | OpenFOAM: The Open Source CFD Toolbox
   \\    /   O peration     | Website:  https://openfoam.org
    \\  /    A nd           | Version:  8
     \\/     M anipulation  |
\*---------------------------------------------------------------------------*/
FoamFile
{
    version     2.0;
    format      ascii;
    class       volScalarField;
    location    "0.034";
    object      p_rgh;
}
// * * * * * * * * * * * * * * * * * * * * * * * * * * * * * * * * * * * * * //

dimensions      [1 -1 -2 0 0 0 0];

internalField   nonuniform List<scalar> 
42400
(
101365.841
101365.832
101365.821
101365.809
101365.796
101365.782
101365.767
101365.75
101365.733
101365.714
101365.694
101365.673
101365.651
101365.627
101365.602
101365.576
101365.548
101365.519
101365.488
101365.456
101365.422
101365.386
101365.348
101365.309
101365.267
101365.224
101365.178
101365.129
101365.079
101365.026
101364.971
101364.913
101364.853
101364.79
101364.724
101364.655
101364.589
101364.526
101364.465
101364.389
101364.298
101364.202
101364.114
101364.034
101363.953
101363.87
101363.786
101363.703
101363.617
101363.527
101363.447
101363.376
101363.313
101363.226
101363.117
101363.028
101362.949
101362.862
101362.766
101362.661
101362.544
101362.418
101362.282
101362.141
101361.995
101361.828
101361.629
101361.405
101361.089
101360.818
101360.868
101360.416
101359.889
101360.933
101361.064
101359.123
101359.391
101359.601
101359.264
101362.242
101365.398
101365.391
101365.382
101365.373
101365.363
101365.352
101365.34
101365.326
101365.312
101365.297
101365.281
101365.264
101365.246
101365.227
101365.207
101365.186
101365.163
101365.14
101365.115
101365.089
101365.061
101365.032
101365.002
101364.97
101364.936
101364.901
101364.864
101364.825
101364.784
101364.742
101364.697
101364.649
101364.6
101364.552
101364.509
101364.464
101364.408
101364.338
101364.264
101364.197
101364.137
101364.075
101364.012
101363.948
101363.883
101363.815
101363.744
101363.683
101363.637
101363.573
101363.491
101363.421
101363.365
101363.316
101363.262
101363.207
101363.152
101363.098
101363.047
101363.004
101362.974
101362.95
101362.934
101362.927
101362.929
101362.952
101362.999
101363.112
101363.178
101363.221
101363.709
101364.269
101364.506
101365.399
101366.629
101367.654
101370.421
101374.155
101376.325
101378.324
101365.073
101365.068
101365.062
101365.055
101365.047
101365.039
101365.029
101365.019
101365.008
101364.997
101364.984
101364.971
101364.957
101364.942
101364.927
101364.911
101364.893
101364.875
101364.856
101364.836
101364.815
101364.793
101364.77
101364.746
101364.721
101364.694
101364.666
101364.636
101364.605
101364.573
101364.542
101364.512
101364.481
101364.442
101364.393
101364.342
101364.294
101364.252
101364.208
101364.162
101364.115
101364.066
101364.015
101363.965
101363.926
101363.896
101363.848
101363.783
101363.735
101363.699
101363.662
101363.626
101363.591
101363.561
101363.536
101363.523
101363.526
101363.542
101363.573
101363.619
101363.692
101363.797
101363.932
101364.112
101364.338
101364.644
101364.989
101365.473
101365.983
101366.503
101367.231
101367.846
101368.755
101371.945
101375.217
101377.096
101378.675
101381.517
101384.847
101386.983
101364.863
101364.859
101364.855
101364.85
101364.844
101364.837
101364.83
101364.822
101364.814
101364.805
101364.796
101364.787
101364.776
101364.766
101364.755
101364.743
101364.731
101364.719
101364.706
101364.692
101364.678
101364.663
101364.648
101364.632
101364.615
101364.597
101364.579
101364.561
101364.543
101364.522
101364.497
101364.469
101364.44
101364.413
101364.388
101364.361
101364.333
101364.304
101364.273
101364.241
101364.207
101364.183
101364.169
101364.131
101364.078
101364.048
101364.029
101364.005
101363.982
101363.961
101363.946
101363.94
101363.947
101363.969
101364.006
101364.06
101364.138
101364.248
101364.399
101364.59
101364.829
101365.123
101365.485
101365.923
101366.434
101367.086
101367.797
101368.682
101369.422
101370.294
101372.417
101376.369
101378.262
101378.377
101379.855
101382.726
101384.771
101386.526
101388.45
101390.898
101364.751
101364.747
101364.743
101364.739
101364.734
101364.729
101364.723
101364.717
101364.71
101364.704
101364.697
101364.691
101364.684
101364.677
101364.67
101364.663
101364.656
101364.649
101364.642
101364.635
101364.627
101364.618
101364.609
101364.6
101364.592
101364.585
101364.577
101364.567
101364.557
101364.547
101364.538
101364.528
101364.517
101364.505
101364.493
101364.48
101364.465
101364.445
101364.433
101364.434
101364.414
101364.38
101364.366
101364.36
101364.348
101364.336
101364.328
101364.326
101364.332
101364.349
101364.378
101364.42
101364.482
101364.57
101364.692
101364.854
101365.065
101365.328
101365.652
101366.043
101366.519
101367.066
101367.722
101368.461
101369.318
101370.198
101371.118
101372.63
101375.93
101378.517
101379.338
101379.812
101381.647
101383.841
101385.835
101387.838
101389.878
101392.319
101395.16
101397.36
101364.712
101364.708
101364.703
101364.699
101364.694
101364.69
101364.685
101364.68
101364.675
101364.67
101364.665
101364.661
101364.657
101364.654
101364.65
101364.647
101364.645
101364.642
101364.639
101364.636
101364.636
101364.638
101364.639
101364.641
101364.643
101364.644
101364.646
101364.648
101364.649
101364.651
101364.652
101364.653
101364.654
101364.654
101364.65
101364.652
101364.666
101364.665
101364.65
101364.649
101364.656
101364.657
101364.659
101364.665
101364.675
101364.692
101364.716
101364.751
101364.799
101364.865
101364.955
101365.076
101365.232
101365.433
101365.688
101366.003
101366.389
101366.854
101367.413
101368.055
101368.82
101369.656
101370.637
101371.606
101372.833
101374.966
101377.934
101379.397
101379.798
101381.298
101383.24
101384.627
101386.398
101388.375
101390.546
101392.722
101394.988
101397.321
101400.184
101402.987
101364.71
101364.706
101364.701
101364.696
101364.692
101364.687
101364.683
101364.68
101364.676
101364.673
101364.67
101364.669
101364.668
101364.667
101364.667
101364.668
101364.671
101364.675
101364.681
101364.687
101364.693
101364.701
101364.708
101364.717
101364.727
101364.737
101364.747
101364.758
101364.77
101364.782
101364.794
101364.803
101364.818
101364.843
101364.856
101364.857
101364.87
101364.89
101364.907
101364.924
101364.944
101364.967
101364.996
101365.03
101365.075
101365.131
101365.204
101365.297
101365.417
101365.568
101365.759
101365.996
101366.291
101366.65
101367.081
101367.596
101368.212
101368.924
101369.757
101370.677
101371.745
101372.863
101374.249
101376.735
101378.882
101379.806
101380.659
101382.406
101384.152
101385.69
101387.391
101389.311
101391.246
101393.573
101395.795
101398
101400.335
101402.952
101405.681
101407.855
101364.71
101364.706
101364.7
101364.696
101364.692
101364.688
101364.685
101364.683
101364.681
101364.68
101364.68
101364.681
101364.683
101364.687
101364.692
101364.699
101364.706
101364.715
101364.725
101364.737
101364.75
101364.764
101364.78
101364.797
101364.815
101364.834
101364.855
101364.875
101364.894
101364.919
101364.953
101364.977
101364.992
101365.018
101365.05
101365.079
101365.11
101365.143
101365.179
101365.22
101365.267
101365.322
101365.389
101365.469
101365.568
101365.689
101365.839
101366.024
101366.25
101366.527
101366.862
101367.264
101367.739
101368.3
101368.955
101369.699
101370.559
101371.521
101372.599
101373.672
101375.063
101377.669
101379.518
101380.273
101381.595
101383.395
101384.84
101386.416
101388.237
101390.124
101392.06
101394.087
101396.096
101398.193
101400.256
101402.43
101404.991
101407.538
101409.74
101412.254
101364.664
101364.66
101364.655
101364.652
101364.649
101364.647
101364.646
101364.646
101364.647
101364.65
101364.654
101364.66
101364.668
101364.676
101364.686
101364.698
101364.712
101364.727
101364.744
101364.763
101364.784
101364.807
101364.831
101364.857
101364.884
101364.911
101364.942
101364.983
101365.016
101365.043
101365.078
101365.12
101365.161
101365.203
101365.247
101365.296
101365.348
101365.406
101365.472
101365.548
101365.635
101365.739
101365.863
101366.011
101366.19
101366.406
101366.667
101366.981
101367.356
101367.8
101368.323
101368.935
101369.643
101370.448
101371.361
101372.349
101373.453
101374.661
101376.315
101378.509
101379.784
101380.545
101382.059
101383.757
101385.2
101386.849
101388.653
101390.55
101392.478
101394.372
101396.353
101398.359
101400.448
101402.588
101404.583
101406.732
101409.276
101412.178
101415.572
101418.572
101364.538
101364.535
101364.533
101364.531
101364.531
101364.532
101364.535
101364.539
101364.544
101364.552
101364.561
101364.571
101364.584
101364.599
101364.616
101364.636
101364.657
101364.681
101364.707
101364.735
101364.765
101364.798
101364.83
101364.868
101364.914
101364.955
101364.99
101365.035
101365.086
101365.136
101365.188
101365.243
101365.302
101365.365
101365.433
101365.508
101365.592
101365.686
101365.794
101365.918
101366.064
101366.236
101366.439
101366.68
101366.967
101367.307
101367.709
101368.182
101368.734
101369.375
101370.117
101370.964
101371.919
101372.976
101374.168
101375.42
101376.918
101378.727
101379.917
101380.921
101382.636
101384.286
101385.726
101387.313
101389.168
101391.043
101392.866
101394.706
101396.539
101398.419
101400.528
101402.994
101405.235
101407.373
101409.623
101412.07
101414.655
101417.123
101419.21
101421.066
101364.287
101364.287
101364.288
101364.29
101364.294
101364.3
101364.307
101364.317
101364.328
101364.342
101364.358
101364.376
101364.397
101364.421
101364.447
101364.476
101364.507
101364.542
101364.578
101364.616
101364.659
101364.71
101364.758
101364.802
101364.855
101364.914
101364.973
101365.035
101365.1
101365.169
101365.242
101365.321
101365.406
101365.498
101365.6
101365.714
101365.842
101365.989
101366.157
101366.352
101366.579
101366.843
101367.153
101367.514
101367.935
101368.424
101368.988
101369.635
101370.373
101371.211
101372.15
101373.204
101374.357
101375.55
101376.947
101378.61
101379.979
101381.234
101382.837
101384.479
101386.134
101387.775
101389.449
101391.098
101392.94
101395.157
101397.103
101398.92
101400.88
101403.225
101405.458
101407.123
101409.056
101411.828
101414.273
101416.47
101418.138
101419.604
101421.222
101423.324
101363.863
101363.867
101363.873
101363.881
101363.89
101363.902
101363.917
101363.933
101363.953
101363.975
101364
101364.029
101364.06
101364.094
101364.132
101364.173
101364.216
101364.263
101364.318
101364.372
101364.425
101364.486
101364.552
101364.62
101364.691
101364.766
101364.845
101364.929
101365.018
101365.113
101365.216
101365.328
101365.451
101365.586
101365.738
101365.91
101366.104
101366.327
101366.582
101366.876
101367.215
101367.605
101368.053
101368.564
101369.144
101369.797
101370.525
101371.328
101372.193
101373.124
101374.059
101375.206
101376.893
101378.781
101380.335
101381.693
101383.271
101385.005
101386.765
101388.51
101390.203
101391.917
101393.865
101395.826
101397.493
101398.967
101400.908
101403.435
101405.914
101407.757
101409.458
101411.208
101412.874
101414.481
101416.364
101419.224
101421.612
101423.374
101425.743
101428.036
101363.209
101363.219
101363.232
101363.247
101363.264
101363.284
101363.307
101363.333
101363.363
101363.396
101363.433
101363.473
101363.516
101363.563
101363.615
101363.673
101363.732
101363.792
101363.859
101363.931
101364.006
101364.085
101364.169
101364.257
101364.35
101364.448
101364.553
101364.666
101364.787
101364.919
101365.063
101365.222
101365.4
101365.599
101365.824
101366.079
101366.371
101366.704
101367.086
101367.521
101368.017
101368.58
101369.214
101369.925
101370.714
101371.592
101372.556
101373.608
101374.729
101376.059
101377.998
101380.114
101381.411
101382.347
101383.672
101385.152
101386.623
101388.267
101389.955
101391.793
101393.602
101395.457
101397.469
101399.304
101401.044
101403.105
101405.003
101406.501
101407.998
101409.736
101411.987
101413.932
101416.196
101419.149
101421.509
101423.6
101425.411
101427.278
101430.077
101432.446
101362.264
101362.281
101362.302
101362.326
101362.353
101362.384
101362.418
101362.456
101362.497
101362.542
101362.592
101362.647
101362.705
101362.766
101362.833
101362.904
101362.98
101363.06
101363.145
101363.234
101363.328
101363.427
101363.533
101363.644
101363.763
101363.89
101364.026
101364.175
101364.337
101364.515
101364.714
101364.936
101365.186
101365.469
101365.791
101366.159
101366.578
101367.055
101367.598
101368.212
101368.905
101369.68
101370.542
101371.492
101372.539
101373.689
101374.939
101376.254
101377.694
101378.963
101380.049
101381.339
101382.937
101384.795
101386.636
101388.51
101390.106
101391.734
101393.39
101394.951
101396.652
101398.232
101399.73
101401.583
101403.475
101404.939
101407.031
101409.369
101411.292
101413.571
101415.646
101417.407
101419.684
101422.346
101425.196
101427.519
101429.176
101431.049
101434.006
101436.636
101360.967
101360.994
101361.026
101361.062
101361.1
101361.143
101361.189
101361.24
101361.296
101361.355
101361.419
101361.487
101361.561
101361.639
101361.722
101361.809
101361.902
101361.999
101362.102
101362.21
101362.324
101362.445
101362.573
101362.71
101362.857
101363.015
101363.188
101363.377
101363.586
101363.819
101364.08
101364.373
101364.705
101365.082
101365.509
101365.993
101366.541
101367.159
101367.852
101368.625
101369.483
101370.428
101371.459
101372.575
101373.777
101375.056
101376.427
101377.862
101379.386
101381.186
101382.866
101384.224
101385.543
101386.925
101388.34
101389.79
101391.383
101393.057
101394.78
101396.664
101398.467
101400.404
101402.649
101404.97
101407.264
101409.402
101411.364
101412.994
101414.838
101417.47
101419.859
101421.728
101423.687
101426.082
101428.061
101430.048
101432.896
101434.666
101436.097
101438.168
101359.276
101359.315
101359.361
101359.409
101359.462
101359.518
101359.579
101359.644
101359.715
101359.79
101359.87
101359.955
101360.044
101360.139
101360.239
101360.344
101360.455
101360.572
101360.694
101360.824
101360.961
101361.107
101361.264
101361.432
101361.615
101361.814
101362.033
101362.276
101362.547
101362.85
101363.191
101363.575
101364.008
101364.497
101365.047
101365.663
101366.352
101367.118
101367.964
101368.894
101369.912
101371.017
101372.215
101373.514
101374.883
101376.335
101377.838
101379.367
101380.923
101382.439
101383.922
101385.376
101386.703
101388.14
101389.855
101391.701
101393.944
101396.431
101398.868
101401.335
101403.981
101406.361
101408.102
101409.721
101411.745
101413.567
101414.725
101416.665
101419.366
101420.956
101422.64
101425.174
101427.684
101429.635
101431.783
101433.434
101434.275
101435.992
101437.991
101439.567
101357.167
101357.219
101357.281
101357.345
101357.413
101357.486
101357.563
101357.646
101357.734
101357.827
101357.925
101358.029
101358.138
101358.253
101358.374
101358.502
101358.636
101358.778
101358.929
101359.09
101359.262
101359.447
101359.648
101359.866
101360.106
101360.371
101360.666
101360.994
101361.361
101361.772
101362.232
101362.748
101363.324
101363.965
101364.674
101365.454
101366.307
101367.23
101368.223
101369.272
101370.375
101371.496
101372.59
101373.906
101375.553
101377.296
101379.126
101380.952
101382.876
101384.945
101387.159
101389.556
101391.953
101394.142
101396.215
101398.077
101399.85
101401.847
101403.469
101404.828
101406.563
101408.472
101410.326
101412.464
101414.381
101416.229
101418.447
101420.897
101422.843
101424.639
101426.421
101428.49
101430.738
101431.927
101433.434
101435.694
101437.071
101438.923
101441.771
101443.97
101354.637
101354.705
101354.784
101354.866
101354.952
101355.043
101355.139
101355.241
101355.349
101355.462
101355.582
101355.709
101355.842
101355.983
101356.132
101356.29
101356.458
101356.638
101356.83
101357.039
101357.265
101357.511
101357.782
101358.081
101358.413
101358.781
101359.192
101359.651
101360.164
101360.734
101361.369
101362.071
101362.844
101363.69
101364.611
101365.606
101366.674
101367.802
101368.988
101370.25
101371.848
101373.996
101376.392
101378.633
101380.497
101382.111
101383.614
101385.147
101386.694
101388.322
101389.996
101391.712
101393.553
101395.555
101397.467
101399.162
101400.711
101402.311
101404.415
101406.655
101408.734
101410.919
101412.886
101415.054
101417.414
101419.44
101421.566
101423.714
101425.753
101428.055
101429.883
101431.829
101434.271
101436.734
101438.319
101439.93
101442.234
101444.528
101446.983
101449.451
101351.684
101351.768
101351.866
101351.965
101352.069
101352.178
101352.293
101352.415
101352.543
101352.678
101352.821
101352.972
101353.132
101353.302
101353.484
101353.679
101353.889
101354.118
101354.367
101354.64
101354.941
101355.275
101355.647
101356.062
101356.527
101357.047
101357.629
101358.281
101359.008
101359.816
101360.712
101361.698
101362.778
101363.955
101365.23
101366.601
101368.06
101369.59
101371.198
101372.901
101374.559
101376.105
101377.68
101379.34
101381.182
101383.269
101385.03
101386.649
101388.229
101389.706
101391.211
101392.811
101394.544
101396.431
101398.667
101401.278
101403.961
101406.214
101408.206
101410.172
101412.146
101414.166
101416.224
101418.155
101420.287
101422.681
101424.954
101427.24
101429.498
101431.804
101434.039
101436.178
101438.463
101440.819
101443.258
101446.008
101448.352
101450.298
101451.386
101452.934
101348.307
101348.406
101348.522
101348.638
101348.757
101348.883
101349.014
101349.153
101349.298
101349.452
101349.614
101349.787
101349.972
101350.17
101350.385
101350.617
101350.871
101351.151
101351.46
101351.802
101352.184
101352.61
101353.087
101353.622
101354.219
101354.887
101355.63
101356.455
101357.365
101358.365
101359.456
101360.639
101361.914
101363.278
101364.728
101366.261
101367.873
101369.582
101371.407
101373.332
101375.135
101376.767
101378.316
101379.834
101381.38
101382.947
101384.623
101386.385
101388.172
101390.115
101392.518
101395.586
101398.787
101401.97
101404.215
101405.818
101407.412
101409.026
101410.749
101412.854
101415.157
101417.315
101419.526
101421.769
101424.063
101426.471
101429.111
101431.794
101433.787
101435.393
101437.249
101439.344
101441.311
101443.675
101446.604
101448.983
101451.102
101452.98
101454.858
101456.824
101415.922
101415.926
101415.931
101415.938
101415.946
101415.957
101415.969
101415.983
101415.999
101416.016
101416.036
101416.058
101416.081
101416.107
101416.135
101416.166
101416.198
101416.233
101416.271
101416.311
101416.354
101416.399
101416.447
101416.499
101416.553
101416.61
101416.671
101416.735
101416.803
101416.875
101416.95
101417.03
101417.113
101417.202
101417.294
101417.392
101417.495
101417.603
101417.716
101417.834
101417.959
101418.089
101418.225
101418.368
101418.522
101418.685
101418.854
101419.029
101419.21
101419.401
101419.6
101419.808
101420.022
101420.244
101420.474
101420.712
101420.957
101421.208
101421.462
101421.717
101421.971
101422.217
101422.452
101422.668
101422.859
101423.015
101423.126
101423.175
101423.147
101423.02
101422.777
101422.41
101421.933
101421.226
101420.215
101419.268
101418.428
101417.807
101417.601
101416.619
101413.164
101413.166
101413.171
101413.177
101413.184
101413.194
101413.205
101413.218
101413.233
101413.25
101413.268
101413.289
101413.312
101413.337
101413.364
101413.393
101413.425
101413.459
101413.496
101413.535
101413.576
101413.621
101413.668
101413.719
101413.772
101413.829
101413.889
101413.953
101414.021
101414.092
101414.167
101414.247
101414.331
101414.42
101414.514
101414.612
101414.716
101414.826
101414.941
101415.063
101415.193
101415.331
101415.476
101415.627
101415.786
101415.954
101416.132
101416.318
101416.512
101416.716
101416.929
101417.152
101417.382
101417.622
101417.869
101418.127
101418.392
101418.665
101418.941
101419.22
101419.495
101419.764
101420.018
101420.25
101420.451
101420.606
101420.699
101420.708
101420.604
101420.356
101419.954
101419.403
101418.666
101417.938
101417.258
101416.403
101415.149
101413.241
101411.328
101409.978
101410.174
101410.176
101410.18
101410.185
101410.191
101410.2
101410.209
101410.221
101410.235
101410.25
101410.267
101410.286
101410.307
101410.33
101410.355
101410.382
101410.412
101410.443
101410.477
101410.514
101410.553
101410.595
101410.64
101410.687
101410.738
101410.792
101410.849
101410.91
101410.974
101411.042
101411.114
101411.191
101411.272
101411.357
101411.448
101411.544
101411.645
101411.754
101411.869
101411.99
101412.118
101412.253
101412.397
101412.549
101412.71
101412.879
101413.058
101413.246
101413.444
101413.653
101413.871
101414.1
101414.339
101414.586
101414.842
101415.107
101415.381
101415.661
101415.945
101416.229
101416.507
101416.772
101417.014
101417.218
101417.364
101417.421
101417.372
101417.198
101416.878
101416.408
101415.781
101415.009
101414.16
101413.254
101412.091
101410.374
101408.521
101406.955
101405.507
101403.418
101406.975
101406.976
101406.979
101406.983
101406.988
101406.995
101407.003
101407.013
101407.024
101407.037
101407.052
101407.068
101407.086
101407.106
101407.128
101407.152
101407.178
101407.206
101407.236
101407.268
101407.302
101407.339
101407.379
101407.421
101407.466
101407.514
101407.565
101407.619
101407.677
101407.738
101407.803
101407.872
101407.945
101408.023
101408.106
101408.195
101408.288
101408.387
101408.493
101408.605
101408.724
101408.85
101408.984
101409.126
101409.277
101409.436
101409.605
101409.783
101409.971
101410.169
101410.378
101410.596
101410.824
101411.061
101411.305
101411.555
101411.809
101412.065
101412.32
101412.566
101412.795
101413.003
101413.18
101413.318
101413.407
101413.413
101413.261
101412.904
101412.341
101411.602
101410.716
101409.69
101408.457
101406.896
101405.264
101403.784
101402.279
101400.424
101398.083
101395.962
101403.584
101403.585
101403.586
101403.589
101403.593
101403.598
101403.604
101403.612
101403.62
101403.63
101403.642
101403.655
101403.669
101403.684
101403.702
101403.721
101403.741
101403.763
101403.787
101403.813
101403.84
101403.87
101403.902
101403.936
101403.972
101404.011
101404.052
101404.096
101404.143
101404.193
101404.246
101404.303
101404.363
101404.428
101404.496
101404.57
101404.648
101404.731
101404.819
101404.913
101405.013
101405.12
101405.234
101405.355
101405.484
101405.62
101405.765
101405.919
101406.082
101406.254
101406.435
101406.625
101406.824
101407.029
101407.241
101407.457
101407.676
101407.895
101408.111
101408.322
101408.517
101408.665
101408.736
101408.682
101408.462
101408.086
101407.592
101406.97
101406.199
101405.256
101404.139
101402.858
101401.463
101399.973
101398.269
101396.385
101394.487
101392.921
101391.792
101389.471
101400.047
101400.047
101400.048
101400.049
101400.051
101400.054
101400.058
101400.063
101400.068
101400.075
101400.082
101400.091
101400.1
101400.11
101400.122
101400.134
101400.148
101400.162
101400.178
101400.196
101400.214
101400.234
101400.255
101400.278
101400.303
101400.329
101400.357
101400.387
101400.419
101400.453
101400.49
101400.529
101400.571
101400.616
101400.664
101400.715
101400.77
101400.828
101400.891
101400.957
101401.029
101401.105
101401.186
101401.273
101401.365
101401.464
101401.568
101401.678
101401.795
101401.918
101402.047
101402.182
101402.323
101402.468
101402.615
101402.756
101402.886
101402.994
101403.069
101403.096
101403.071
101402.975
101402.795
101402.501
101402.062
101401.443
101400.64
101399.668
101398.551
101397.311
101395.932
101394.397
101392.682
101390.788
101388.745
101386.603
101384.495
101382.581
101380.285
101375.867
101396.411
101396.41
101396.41
101396.411
101396.411
101396.412
101396.413
101396.415
101396.416
101396.419
101396.421
101396.424
101396.428
101396.432
101396.436
101396.441
101396.446
101396.452
101396.458
101396.465
101396.472
101396.48
101396.489
101396.498
101396.508
101396.519
101396.53
101396.543
101396.556
101396.571
101396.586
101396.603
101396.621
101396.641
101396.662
101396.685
101396.71
101396.736
101396.765
101396.796
101396.83
101396.866
101396.904
101396.946
101396.99
101397.035
101397.083
101397.133
101397.186
101397.241
101397.296
101397.348
101397.395
101397.436
101397.468
101397.489
101397.492
101397.468
101397.404
101397.283
101397.084
101396.789
101396.372
101395.825
101395.125
101394.256
101393.204
101391.97
101390.537
101388.909
101387.065
101384.949
101382.523
101379.883
101376.935
101373.65
101369.963
101365.899
101361.431
101356.703
101392.745
101392.745
101392.744
101392.743
101392.742
101392.741
101392.739
101392.737
101392.735
101392.733
101392.73
101392.727
101392.724
101392.721
101392.717
101392.714
101392.71
101392.705
101392.701
101392.696
101392.691
101392.685
101392.679
101392.673
101392.666
101392.659
101392.652
101392.644
101392.636
101392.628
101392.619
101392.61
101392.6
101392.59
101392.58
101392.57
101392.559
101392.548
101392.536
101392.525
101392.512
101392.5
101392.486
101392.471
101392.454
101392.437
101392.417
101392.393
101392.365
101392.333
101392.294
101392.247
101392.189
101392.116
101392.022
101391.903
101391.756
101391.573
101391.344
101391.059
101390.699
101390.246
101389.664
101388.927
101388.003
101386.872
101385.53
101383.978
101382.196
101380.106
101377.641
101374.788
101371.746
101368.177
101363.983
101359.482
101354.731
101349.362
101343.439
101336.623
101389.121
101389.121
101389.119
101389.117
101389.114
101389.111
101389.106
101389.101
101389.094
101389.087
101389.079
101389.071
101389.061
101389.05
101389.038
101389.026
101389.012
101388.997
101388.981
101388.963
101388.944
101388.924
101388.903
101388.881
101388.856
101388.831
101388.803
101388.774
101388.743
101388.71
101388.675
101388.638
101388.599
101388.558
101388.514
101388.467
101388.418
101388.366
101388.311
101388.253
101388.191
101388.126
101388.055
101387.976
101387.893
101387.808
101387.715
101387.614
101387.503
101387.38
101387.244
101387.093
101386.925
101386.735
101386.519
101386.27
101385.979
101385.637
101385.232
101384.746
101384.16
101383.451
101382.595
101381.558
101380.316
101378.85
101377.147
101375.172
101372.854
101370.178
101367.117
101363.859
101360.038
101355.09
101350.039
101344.959
101337.54
101327.994
101319.192
101310.455
101385.621
101385.62
101385.618
101385.614
101385.61
101385.604
101385.596
101385.587
101385.577
101385.565
101385.552
101385.537
101385.521
101385.503
101385.483
101385.461
101385.438
101385.413
101385.385
101385.356
101385.324
101385.291
101385.254
101385.215
101385.174
101385.13
101385.082
101385.032
101384.978
101384.921
101384.861
101384.797
101384.729
101384.656
101384.58
101384.498
101384.412
101384.32
101384.223
101384.119
101384.009
101383.889
101383.76
101383.625
101383.481
101383.329
101383.165
101382.988
101382.797
101382.59
101382.365
101382.117
101381.843
101381.541
101381.203
101380.826
101380.399
101379.91
101379.344
101378.677
101377.887
101376.945
101375.819
101374.472
101372.873
101370.986
101368.761
101366.215
101363.651
101361.01
101357.901
101353.832
101348.684
101343.027
101335.865
101326.373
101317.198
101309.353
101302.228
101297.168
101382.316
101382.315
101382.313
101382.308
101382.302
101382.293
101382.283
101382.271
101382.257
101382.241
101382.223
101382.202
101382.18
101382.155
101382.128
101382.098
101382.066
101382.031
101381.994
101381.953
101381.91
101381.863
101381.813
101381.76
101381.702
101381.641
101381.576
101381.507
101381.433
101381.355
101381.271
101381.183
101381.089
101380.989
101380.883
101380.77
101380.651
101380.523
101380.387
101380.241
101380.086
101379.922
101379.749
101379.565
101379.369
101379.16
101378.936
101378.696
101378.437
101378.158
101377.856
101377.528
101377.17
101376.777
101376.341
101375.856
101375.312
101374.694
101373.984
101373.162
101372.205
101371.086
101369.787
101368.374
101366.834
101365.111
101363.259
101361.264
101358.474
101354.533
101349.98
101344.864
101339.158
101333.092
101326.752
101320.056
101313.219
101306.579
101300.802
101296.111
101379.278
101379.276
101379.272
101379.266
101379.258
101379.248
101379.235
101379.22
101379.203
101379.183
101379.16
101379.135
101379.107
101379.077
101379.043
101379.007
101378.967
101378.925
101378.879
101378.829
101378.776
101378.718
101378.657
101378.592
101378.522
101378.447
101378.368
101378.283
101378.193
101378.097
101377.996
101377.888
101377.773
101377.651
101377.521
101377.383
101377.237
101377.08
101376.915
101376.741
101376.556
101376.362
101376.155
101375.936
101375.703
101375.455
101375.19
101374.908
101374.607
101374.284
101373.937
101373.562
101373.158
101372.718
101372.239
101371.714
101371.129
101370.471
101369.74
101368.93
101368.038
101367.069
101365.978
101364.582
101362.793
101360.701
101358.243
101355.339
101352.254
101349.035
101345.364
101341.283
101336.787
101331.84
101326.509
101320.902
101315.484
101310.434
101305.346
101300.221
101376.556
101376.553
101376.548
101376.54
101376.531
101376.518
101376.503
101376.485
101376.465
101376.442
101376.415
101376.386
101376.354
101376.319
101376.281
101376.239
101376.194
101376.145
101376.093
101376.036
101375.975
101375.911
101375.841
101375.767
101375.688
101375.604
101375.514
101375.419
101375.317
101375.209
101375.094
101374.971
101374.842
101374.706
101374.56
101374.406
101374.244
101374.072
101373.891
101373.699
101373.497
101373.283
101373.056
101372.815
101372.56
101372.291
101372.004
101371.7
101371.377
101371.034
101370.668
101370.278
101369.86
101369.414
101368.932
101368.397
101367.802
101367.164
101366.447
101365.611
101364.642
101363.508
101362.245
101360.879
101359.379
101357.69
101355.771
101353.595
101351.166
101348.459
101345.319
101341.857
101338.212
101334.304
101330.146
101325.945
101321.532
101316.083
101310.8
101306.75
101374.18
101374.175
101374.169
101374.16
101374.148
101374.133
101374.116
101374.096
101374.073
101374.047
101374.019
101373.987
101373.952
101373.914
101373.872
101373.827
101373.779
101373.726
101373.67
101373.61
101373.545
101373.476
101373.402
101373.323
101373.239
101373.149
101373.053
101372.951
101372.844
101372.731
101372.611
101372.484
101372.349
101372.206
101372.055
101371.895
101371.727
101371.55
101371.362
101371.164
101370.955
101370.734
101370.502
101370.256
101369.997
101369.724
101369.435
101369.131