/*--------------------------------*- C++ -*----------------------------------*\
  =========                 |
  \\      /  F ield         | OpenFOAM: The Open Source CFD Toolbox
   \\    /   O peration     | Website:  https://openfoam.org
    \\  /    A nd           | Version:  8
     \\/     M anipulation  |
\*---------------------------------------------------------------------------*/
FoamFile
{
    version     2.0;
    format      ascii;
    class       surfaceScalarField;
    location    "0.034";
    object      phi;
}
// * * * * * * * * * * * * * * * * * * * * * * * * * * * * * * * * * * * * * //

dimensions      [1 0 -1 0 0 0 0];

internalField   nonuniform List<scalar> 
84340
(
-4.06572593e-08
2.97630607e-07
-2.56660423e-07
-1.74283261e-07
9.0465465e-07
-7.70523007e-07
-4.14496877e-07
1.54665027e-06
-1.30581248e-06
-7.73707866e-07
2.22867563e-06
-1.86873795e-06
-1.26292823e-06
2.95460741e-06
-2.46456958e-06
-1.89184601e-06
3.72716202e-06
-3.0973422e-06
-2.66884852e-06
4.54775684e-06
-3.76976937e-06
-3.60115052e-06
5.41678677e-06
-4.48341521e-06
-4.6949479e-06
6.33394244e-06
-5.23898688e-06
-5.95556097e-06
7.29849908e-06
-6.0366335e-06
-7.38754536e-06
8.30954151e-06
-6.87620345e-06
-8.99475953e-06
9.36611437e-06
-7.75743753e-06
-1.07803889e-05
1.04673091e-05
-8.68009957e-06
-1.2746928e-05
1.16122987e-05
-9.64405257e-06
-1.48961177e-05
1.28003248e-05
-1.06492915e-05
-1.72288592e-05
1.40306697e-05
-1.16959373e-05
-1.97450833e-05
1.5302599e-05
-1.27842259e-05
-2.24436029e-05
1.66153042e-05
-1.39144653e-05
-2.53219328e-05
1.79678456e-05
-1.50870143e-05
-2.83760854e-05
1.93590934e-05
-1.63022439e-05
-3.16003433e-05
2.07876742e-05
-1.75605104e-05
-3.4987003e-05
2.22519203e-05
-1.88621312e-05
-3.85260873e-05
2.37498126e-05
-2.02073609e-05
-4.22050316e-05
2.52789309e-05
-2.1596365e-05
-4.6008322e-05
2.68363812e-05
-2.30291997e-05
-4.99170897e-05
2.84187233e-05
-2.45057776e-05
-5.39086562e-05
3.00218663e-05
-2.60258185e-05
-5.79559827e-05
3.16409354e-05
-2.75888058e-05
-6.20270244e-05
3.32700843e-05
-2.91939011e-05
-6.60840067e-05
3.4902337e-05
-3.08398546e-05
-7.0082911e-05
3.65296512e-05
-3.25248747e-05
-7.39729246e-05
3.81426512e-05
-3.4246374e-05
-7.76948837e-05
3.97292579e-05
-3.60006262e-05
-8.11802885e-05
4.12752396e-05
-3.77827105e-05
-8.43466891e-05
4.27607621e-05
-3.9586752e-05
-8.71036857e-05
4.41705678e-05
-4.14055985e-05
-8.93612539e-05
4.54926535e-05
-4.32267746e-05
-9.1013106e-05
4.66881316e-05
-4.50274155e-05
-9.19173803e-05
4.77082822e-05
-4.67945622e-05
-9.1874441e-05
4.84863163e-05
-4.85192885e-05
-9.06701367e-05
4.89711295e-05
-5.01649684e-05
-8.80849836e-05
4.90977407e-05
-5.16718456e-05
-8.38912597e-05
4.87813523e-05
-5.29633993e-05
-7.7812086e-05
4.79358695e-05
-5.4002757e-05
-6.95376929e-05
4.64460937e-05
-5.47076054e-05
-5.87384224e-05
4.41864411e-05
-5.49722013e-05
-4.5069123e-05
4.10152537e-05
-5.46704093e-05
-2.80909057e-05
3.67310381e-05
-5.36944515e-05
-7.37661961e-06
3.11927736e-05
-5.18916219e-05
1.73444474e-05
2.43841514e-05
-4.90890809e-05
4.6792244e-05
1.56108998e-05
-4.5041806e-05
8.17129277e-05
4.72596584e-06
-3.96292747e-05
0.00012288195
-8.65622559e-06
-3.24950856e-05
0.000171237114
-2.46079259e-05
-2.37286168e-05
0.000227855398
-4.42817736e-05
-1.23169426e-05
0.000293902887
-6.78835267e-05
1.85632659e-06
0.000370864586
-9.58677183e-05
1.89269851e-05
0.00045983057
-0.000128949675
4.00053967e-05
0.000562122244
-0.000167800087
6.55307891e-05
0.000679363613
-0.000213160565
9.59423592e-05
0.00081326378
-0.000265764698
0.000131888422
0.000965406818
-0.000326323845
0.000174205293
0.00113729625
-0.000395491792
0.000223627399
0.00133026895
-0.000473885679
0.000280938819
0.00154541044
-0.000561977433
0.000346861118
0.00178356994
-0.000660007843
0.000421871503
0.00204623438
-0.000769568958
0.000506926008
0.00233619139
-0.000890865813
0.000600928907
0.00264612287
-0.00101148075
0.000701568266
0.0029730135
-0.00115779924
0.000830926754
0.00335517817
-0.00135334024
0.000971193189
0.0037779598
-0.00148643502
0.00106367067
0.00413714993
-0.0016247548
0.00126558127
0.00451493562
-0.00194712705
0.00156935722
0.0051237142
-0.00219199626
0.00158323199
0.00576799819
-0.00221521998
0.00157094765
0.00612971915
-0.00240152913
0.00203981579
0.00635056568
-0.00275689927
0.00253605524
0.00666629592
-0.00301452332
0.00269877633
-0.00311930174
0.00271311541
0.00707245818
-3.00298677e-08
3.28099967e-07
-1.30480225e-07
1.00572548e-06
-3.12940938e-07
1.72982352e-06
-5.8807473e-07
2.50460767e-06
-9.65376669e-07
3.33278904e-06
-1.45301085e-06
4.2157561e-06
-2.05796595e-06
5.15375355e-06
-2.78606463e-06
6.14601244e-06
-3.64206713e-06
7.19116244e-06
-4.62977252e-06
8.28751884e-06
-5.75209415e-06
9.43328156e-06
-7.01109787e-06
1.06266486e-05
-8.4079977e-06
1.186586e-05
-9.94310712e-06
1.3149189e-05
-1.16157594e-05
1.44748976e-05
-1.34241764e-05
1.58411572e-05
-1.53653167e-05
1.72459707e-05
-1.7434687e-05
1.86870784e-05
-1.96261209e-05
2.01618678e-05
-2.19315323e-05
2.16672905e-05
-2.434064e-05
2.31997779e-05
-2.68406515e-05
2.47551525e-05
-2.94159268e-05
2.63285473e-05
-3.20475856e-05
2.79143034e-05
-3.47130676e-05
2.9505846e-05
-3.73856178e-05
3.10955424e-05
-4.00337163e-05
3.26745352e-05
-4.262047e-05
3.42325783e-05
-4.51028853e-05
3.57577266e-05
-4.74299734e-05
3.72350124e-05
-4.95434187e-05
3.86490293e-05
-5.1377462e-05
3.99829871e-05
-5.28597689e-05
4.12182631e-05
-5.39174719e-05
4.23400656e-05
-5.44562342e-05
4.33070637e-05
-5.43540316e-05
4.40763453e-05
-5.34457354e-05
4.45927933e-05
-5.15547146e-05
4.480602e-05
-4.84928357e-05
4.46558428e-05
-4.40630532e-05
4.40665321e-05
-3.80460297e-05
4.29646305e-05
-3.01861402e-05
4.12489244e-05
-2.01981131e-05
3.88049404e-05
-7.74741273e-06
3.54973526e-05
7.48583001e-06
3.12255883e-05
2.59017584e-05
2.57838475e-05
4.77322778e-05
1.91986679e-05
7.36786201e-05
1.07990658e-05
0.000104381981
5.04166367e-07
0.00014058441
-1.18027934e-05
0.000183136464
-2.69249513e-05
0.000233013039
-4.51337818e-05
0.00029121292
-6.68386766e-05
0.000359169523
-9.25464562e-05
0.000437799156
-0.000122892747
0.000528455592
-0.000158520662
0.000632700714
-0.000200092906
0.000752086012
-0.000248314393
0.000888182016
-0.000303875079
0.00104256556
-0.000367522666
0.00121660807
-0.00043978523
0.00141145848
-0.00052115174
0.00162808558
-0.000612097076
0.00186732779
-0.000713107739
0.00213021606
-0.000824846957
0.00241772967
-0.000947503701
0.0027289264
-0.00108074867
0.00306853979
-0.00123046256
0.00343611252
-0.00137903708
0.00380614401
-0.00152781439
0.00418947769
-0.00173665768
0.00464791057
-0.00194485187
0.00510952499
-0.00208635392
0.005451058
-0.0022886457
0.00582896207
-0.00256988859
0.00634024274
-0.00272649225
0.00674569801
-0.00280697957
0.00693246818
-0.00294366935
0.00703860926
-0.00312066765
-0.0032648796
0.00718417734
-2.04025683e-08
3.48933022e-07
-9.06196695e-08
1.07654948e-06
-2.20226678e-07
1.86012652e-06
-4.17915337e-07
2.70307513e-06
-6.91383875e-07
3.60711527e-06
-1.04710381e-06
4.57241148e-06
-1.49020597e-06
5.59787031e-06
-2.02454339e-06
6.6814472e-06
-2.6529806e-06
7.8207847e-06
-3.37730704e-06
9.01312416e-06
-4.19827696e-06
1.02556311e-05
-5.11561926e-06
1.15454789e-05
-6.12800926e-06
1.28798546e-05
-7.23299605e-06
1.42559058e-05
-8.42688881e-06
1.5670655e-05
-9.70460869e-06
1.71208862e-05
-1.10594974e-05
1.86030232e-05
-1.24831004e-05
2.01130106e-05
-1.39649104e-05
2.16461837e-05
-1.54920801e-05
2.31971548e-05
-1.70490992e-05
2.47596921e-05
-1.86173782e-05
2.63265402e-05
-2.01747611e-05
2.78892653e-05
-2.16949632e-05
2.94380803e-05
-2.31470401e-05
3.096175e-05
-2.4494404e-05
3.24470031e-05
-2.56952735e-05
3.38797887e-05
-2.67023135e-05
3.52442931e-05
-2.74636866e-05
3.65240578e-05
-2.7924926e-05
3.77015266e-05
-2.80164192e-05
3.87461425e-05
-2.76535822e-05
3.96261213e-05
-2.67334767e-05
4.03044932e-05
-2.5121494e-05
4.07347935e-05
-2.26737893e-05
4.08664498e-05
-1.92314909e-05
4.06415695e-05
-1.4620955e-05
3.99902249e-05
-8.65583909e-06
3.88493091e-05
-1.12073602e-06
3.71295858e-05
8.22747436e-06
3.47276217e-05
1.96783785e-05
3.15234858e-05
3.35214199e-05
2.74161096e-05
5.01071896e-05
2.22298519e-05
6.96075744e-05
1.60081633e-05
9.2720198e-05
8.12451228e-06
0.000120015179
-1.49927027e-06
0.000152152195
-1.29259014e-05
0.000189897701
-2.69333387e-05
0.000234123865
-4.37083737e-05
0.000285965313
-6.36300751e-05
0.000346271913
-8.72168712e-05
0.000416165608
-0.000115012249
0.000496942534
-0.000147599852
0.00059001872
-0.000185606295
0.000696846932
-0.00022970408
0.000818962093
-0.000280618502
0.000957881776
-0.000338994951
0.00111506064
-0.000405475235
0.00129184298
-0.000480638913
0.00148919335
-0.00056485415
0.00170801367
-0.00065858728
0.00194893933
-0.000762060402
0.00221251896
-0.000875660742
0.00249886924
-0.000999442755
0.00280792657
-0.00113388946
0.00314040911
-0.00127997155
0.00349178653
-0.00143211138
0.00386086545
-0.0015995265
0.0042546708
-0.00177282716
0.00466610289
-0.00193923077
0.00504828434
-0.00211882324
0.00543160549
-0.00232815792
0.0058419004
-0.00249663491
0.00616998073
-0.00261671288
0.00635947037
-0.00275936544
0.006536611
-0.00290361932
0.0067579508
-0.00302831018
0.0069459131
-0.00313162763
0.00706870277
-0.00324345437
-0.00334556331
0.00714938594
-1.47643903e-08
3.64126994e-07
-6.64733273e-08
1.1288638e-06
-1.62701768e-07
1.95704894e-06
-3.1015263e-07
2.85130211e-06
-5.14444242e-07
3.81226089e-06
-7.80035898e-07
4.83893375e-06
-1.11000408e-06
5.92884725e-06
-1.50615295e-06
7.07868638e-06
-1.96881494e-06
8.28462303e-06
-2.49717901e-06
9.54275638e-06
-3.08934647e-06
1.08491651e-05
-3.74218302e-06
1.21997876e-05
-4.4512579e-06
1.35905149e-05
-5.21074921e-06
1.50171043e-05
-6.01330361e-06
1.64750469e-05
-6.84984998e-06
1.79594099e-05
-7.70938263e-06
1.94646826e-05
-8.57867385e-06
2.09845884e-05
-9.4419098e-06
2.25118764e-05
-1.02802782e-05
2.40381613e-05
-1.10715404e-05
2.55537848e-05
-1.17895067e-05
2.70475438e-05
-1.24041361e-05
2.8507152e-05
-1.28816085e-05
2.9919035e-05
-1.3184618e-05
3.12684785e-05
-1.32694031e-05
3.25357601e-05
-1.30827348e-05
3.36973559e-05
-1.25614943e-05
3.47275738e-05
-1.16302218e-05
3.55976078e-05
-1.01964326e-05
3.62728752e-05
-8.15802255e-06
3.67131949e-05
-5.39755683e-06
3.68714555e-05
-1.77834935e-06
3.66914605e-05
2.85534763e-06
3.61076675e-05
8.66602082e-06
3.50627381e-05
1.5839659e-05
3.34753003e-05
2.45818916e-05
3.12557757e-05
3.51368124e-05
2.83026072e-05
4.77933398e-05
2.44817088e-05
6.28613875e-05
1.96686729e-05
8.05074459e-05
1.38870138e-05
0.000101343821
6.58967976e-06
0.000125870495
-2.28658628e-06
0.000154677199
-1.27877303e-05
0.000188513634
-2.57004846e-05
0.000228127321
-4.11009898e-05
0.000274563404
-5.93495062e-05
0.000328565726
-8.09226506e-05
0.000391179871
-0.000106308993
0.000463602234
-0.00013603837
0.000547094917
-0.00017069494
0.000643014597
-0.000210916765
0.000752783855
-0.000257353537
0.000877853606
-0.000310660142
0.00101967682
-0.00037151112
0.00117960872
-0.00044053392
0.00135891388
-0.000518283233
0.00155853052
-0.000605074792
0.00177913289
-0.000701224884
0.00202098652
-0.000806692592
0.00228416505
-0.000921751603
0.00256820328
-0.00104608514
0.00287264754
-0.00118009192
0.00319557081
-0.00132235309
0.00353501395
-0.0014733196
0.00388876355
-0.00163370784
0.00425253954
-0.00179587363
0.00462017205
-0.00196714469
0.00498556367
-0.00213820418
0.00534662078
-0.00230027379
0.00566317094
-0.00243535983
0.00590201895
-0.00256699006
0.00609455844
-0.00268915533
0.00628497219
-0.00280711116
0.00644300461
-0.00291738488
0.00656447049
-0.00302506697
0.00667315325
-0.00313697774
0.00678400779
-0.00324247463
0.00690106437
-0.00336050391
-0.0034507375
0.007006243
-1.39953434e-08
3.7853768e-07
-6.17598785e-08
1.17721279e-06
-1.48985226e-07
2.0449436e-06
-2.80337884e-07
2.98340277e-06
-4.59265186e-07
3.99201072e-06
-6.87821141e-07
5.06838545e-06
-9.66711104e-07
6.20870767e-06
-1.29521106e-06
7.40823505e-06
-1.67097691e-06
8.66152048e-06
-2.09009534e-06
9.96309478e-06
-2.54713198e-06
1.13075161e-05
-3.03536813e-06
1.26894396e-05
-3.54645537e-06
1.41031268e-05
-4.07026455e-06
1.55425548e-05
-4.59468951e-06
1.70012381e-05
-5.10539244e-06
1.84720128e-05
-5.5855045e-06
1.99468371e-05
-6.01534688e-06
2.14166261e-05
-6.37215622e-06
2.28710447e-05
-6.63011064e-06
2.42986436e-05
-6.75905919e-06
2.56854395e-05
-6.72346164e-06
2.70148468e-05
-6.48199646e-06
2.82687911e-05
-5.98606949e-06
2.94264214e-05
-5.17808935e-06
3.04640362e-05
-3.99256002e-06
3.13540132e-05
-2.35519434e-06
3.20640232e-05
-1.79015042e-07
3.25556881e-05
2.63913405e-06
3.27840385e-05
6.22075572e-06
3.26961368e-05
1.06966216e-05
3.22425163e-05
1.62144294e-05
3.13591546e-05
2.2939114e-05
2.99726126e-05
3.10531221e-05
2.7999839e-05
4.07760543e-05
2.5346338e-05
5.23661017e-05
2.18921454e-05
6.6109432e-05
1.75197192e-05
8.21951807e-05
1.22245451e-05
0.000101137305
5.54756667e-06
0.000123388616
-2.57438654e-06
0.000149480213
-1.21958616e-05
0.000180072093
-2.39929531e-05
0.000215849462
-3.80542687e-05
0.000257782677
-5.47108047e-05
0.000306481624
-7.43888391e-05
0.000362912832
-9.75211368e-05
0.000428164355
-0.0001245895
0.000503382298
-0.00015612856
0.000589790612
-0.000192704786
0.000688688243
-0.000234923055
0.000801420263
-0.000283413683
0.000929338848
-0.000338821767
0.00107378583
-0.000401786675
0.00123602071
-0.000472880884
0.00141710697
-0.000552582857
0.00161775747
-0.000641169708
0.0018383662
-0.000738877802
0.00207889335
-0.000845588799
0.00233901224
-0.000961331473
0.00261776758
-0.00108543626
0.00291395186
-0.00121792461
0.00322489263
-0.0013570148
0.00354865015
-0.00150383829
0.00388054105
-0.00165423258
0.00421882098
-0.00181158771
0.00455552803
-0.00197040257
0.00488183386
-0.00212216718
0.00517793684
-0.00226323558
0.00542810158
-0.00238835586
0.00562975672
-0.00250191235
0.0058057934
-0.00261137899
0.00595473418
-0.00271591586
0.00608266736
-0.00281707388
0.00619453246
-0.00291896068
0.00630286413
-0.00302569667
0.0064043137
-0.00312649802
0.00648859124
-0.0032212433
0.00656735874
-0.00332122944
0.00666686138
-0.00345999328
-0.00357196975
0.00678810157
-1.702548e-08
3.95982237e-07
-7.20486348e-08
1.23282652e-06
-1.68869687e-07
2.14244147e-06
-3.1002028e-07
3.12530985e-06
-4.96566346e-07
4.17938846e-06
-7.27941904e-07
5.30066627e-06
-1.00186357e-06
6.48360902e-06
-1.31428249e-06
7.72171107e-06
-1.65957942e-06
9.00795662e-06
-2.03021527e-06
1.03349577e-05
-2.41660401e-06
1.16952255e-05
-2.80714382e-06
1.30813998e-05
-3.18829908e-06
1.44858093e-05
-3.54418667e-06
1.59000838e-05
-3.85633622e-06
1.73151519e-05
-4.10329622e-06
1.87208686e-05
-4.26023527e-06
2.01058083e-05
-4.29834418e-06
2.14569123e-05
-4.18397842e-06
2.27590156e-05
-3.87825498e-06
2.39954241e-05
-3.33735219e-06
2.51472156e-05
-2.51153131e-06
2.61918918e-05
-1.34248175e-06
2.71028034e-05
2.38350042e-07
2.78488642e-05
2.31200266e-06
2.83938886e-05
4.97108532e-06
2.86986764e-05
8.31870176e-06
2.8720402e-05
1.24713818e-05
2.84072685e-05
1.75604059e-05
2.76995527e-05
2.37325787e-05
2.65287947e-05
3.11625929e-05
2.48176375e-05
4.00493555e-05
2.24778482e-05
5.06266112e-05
1.94011417e-05
6.31553919e-05
1.54771997e-05
7.78273569e-05
1.06808946e-05
9.50943211e-05
4.63200786e-06
0.000115368792
-2.74763027e-06
0.000139129133
-1.15282214e-05
0.00016692779
-2.22430322e-05
0.00019939272
-3.50308112e-05
0.000237391915
-5.0186097e-05
0.000281488581
-6.80801878e-05
0.00033254788
-8.91036557e-05
0.000391537828
-0.000113690342
0.00045947386
-0.000142313948
0.000537458935
-0.000175494753
0.000626667311
-0.000213785945
0.000728319011
-0.000257767917
0.000843675407
-0.000308048471
0.000973994212
-0.000365228808
0.00112047421
-0.000429880337
0.00128416361
-0.000502497492
0.00146586688
-0.000583475893
0.00166596034
-0.000672960033
0.00188443486
-0.000771043547
0.00212085875
-0.000877580784
0.00237445668
-0.000992463785
0.00264386868
-0.00111498954
0.00292723407
-0.0012446861
0.00322157647
-0.00137976818
0.00352423678
-0.00152057452
0.00383014141
-0.00166290891
0.00413696938
-0.00181065542
0.00443752754
-0.00195477974
0.00471887788
-0.00209292733
0.00496422541
-0.00221573886
0.00517094038
-0.00232886836
0.00533836394
-0.00243064329
0.00548161714
-0.00253159455
0.00560554694
-0.00262582465
0.0057184864
-0.00272429932
0.00582287053
-0.00282028339
0.00591880979
-0.00291299533
0.0060065963
-0.0030067288
0.00609352292
-0.00311260175
0.0061822511
-0.00321520574
0.00627515183
-0.00331412919
0.00636718792
-0.00341325095
0.00645392877
-0.00354671754
-0.00367288188
0.00655485371
-2.16004988e-08
4.17982124e-07
-8.83785551e-08
1.30016754e-06
-2.020586e-07
2.25676673e-06
-3.62692992e-07
3.28666549e-06
-5.68503046e-07
4.38599159e-06
-8.15714583e-07
5.54874132e-06
-1.098459e-06
6.76728839e-06
-1.40870589e-06
8.0329671e-06
-1.7361977e-06
9.336536e-06
-2.06850291e-06
1.06684349e-05
-2.39077719e-06
1.20187628e-05
-2.68523037e-06
1.33772134e-05
-2.93116982e-06
1.47332129e-05
-3.10475021e-06
1.60752372e-05
-3.17844289e-06
1.73905364e-05
-3.12054731e-06
1.86647937e-05
-2.89511716e-06
1.98823311e-05
-2.46100613e-06
2.10248942e-05
-1.77092831e-06
2.20711842e-05
-7.69393745e-07
2.29963011e-05
6.07605032e-07
2.37728011e-05
2.43284823e-06
2.43694147e-05
4.78860106e-06
2.47500103e-05
7.76796255e-06
2.4872668e-05
1.14758088e-05
2.46894235e-05
1.6032922e-05
2.41451718e-05
2.15803281e-05
2.31768434e-05
2.82789973e-05
2.17126978e-05
3.63119212e-05
1.96709907e-05
4.5891732e-05
1.6953619e-05
5.72571831e-05
1.34571149e-05
7.05991088e-05
9.14116678e-06
8.63129801e-05
3.69277855e-06
0.000104768873
-2.97292252e-06
0.000126392747
-1.09368358e-05
0.000151674892
-2.06435905e-05
0.000181168228
-3.22340453e-05
0.000215622609
-4.59752894e-05
0.000255581945
-6.21946551e-05
0.000301801881
-8.12426142e-05
0.000355131786
-0.000103507441
0.000416476665
-0.000129416053
0.000486818826
-0.000159436328
0.000567208402
-0.000194069981
0.000658750607
-0.000233845819
0.00076258291
-0.000279316336
0.000879847794
-0.000331039753
0.00101165214
-0.000389560847
0.00115899771
-0.000455382317
0.00132270538
-0.000528924431
0.00150332832
-0.000610490852
0.00170096562
-0.000700121997
0.00191524785
-0.000797745587
0.00214530744
-0.000903007924
0.00238980291
-0.00101552805
0.002646901
-0.00113466851
0.00291419454
-0.0012597474
0.00318846308
-0.00138924844
0.00346610837
-0.00152232186
0.00374211891
-0.0016557691
0.0040136513
-0.00179209713
0.00427453986
-0.0019237878
0.0045119341
-0.00204804009
0.00471710772
-0.00215994235
0.00488459524
-0.00226040175
0.00502398651
-0.00235511814
0.00514398216
-0.00244885072
0.00525261766
-0.00253926251
0.00535175074
-0.00263071253
0.00544689599
-0.00272095579
0.00553073199
-0.0028081176
0.00561024645
-0.00289977767
0.00568510643
-0.00298783901
0.00576331414
-0.00308491834
0.00584773031
-0.00319699717
0.00593628658
-0.00330374131
0.00603051539
-0.00340833743
0.00612701504
-0.00350973102
0.00620514953
-0.00362483205
-0.00374816365
0.00628044811
-2.50354448e-08
4.43435364e-07
-9.96389811e-08
1.37536095e-06
-2.22872047e-07
2.38067642e-06
-3.91669872e-07
3.45621976e-06
-6.00647384e-07
4.59580056e-06
-8.41934508e-07
5.79093305e-06
-1.10505795e-06
7.03139024e-06
-1.37683573e-06
8.3057997e-06
-1.64125596e-06
9.60209133e-06
-1.8793617e-06
1.09077611e-05
-2.06900722e-06
1.22097202e-05
-2.18444441e-06
1.34940617e-05
-2.19567396e-06
1.47459589e-05
-2.06847512e-06
1.59496644e-05
-1.76368e-06
1.70874863e-05
-1.2364074e-06
1.81393945e-05
-4.35067991e-07
1.90829999e-05
6.992311e-07
1.98927475e-05
2.23325142e-06
2.0539469e-05
4.24274471e-06
2.09892751e-05
6.81425087e-06
2.12039356e-05
1.00473114e-05
2.1139179e-05
1.40557324e-05
2.07446085e-05
1.89693491e-05
1.99622764e-05
2.49360159e-05
1.87261995e-05
3.21236312e-05
1.696123e-05
4.07257764e-05
1.45786128e-05
5.09607231e-05
1.14819271e-05
6.30149252e-05
7.62124625e-06
7.72344665e-05
2.73878557e-06
9.39502267e-05
-3.253684e-06
0.000113540924
-1.04442275e-05
0.000136440789
-1.92014169e-05
0.000163139046
-2.96651513e-05
0.000194285424
-4.20768129e-05
0.000230374771
-5.67261428e-05
0.000272074162
-7.39262312e-05
0.000320130818
-9.40243096e-05
0.000375347154
-0.000117402904
0.000438593517
-0.000144480402
0.000510801596
-0.000175706471
0.000592950757
-0.000211555718
0.000686051868
-0.000252527509
0.000791123026
-0.000299130781
0.000909157436
-0.000351869463
0.00104107492
-0.000411222661
0.00118766566
-0.000477618968
0.00134952082
-0.000551404126
0.00152693799
-0.000632787187
0.00171979417
-0.000721767824
0.00192746221
-0.00081814617
0.00214881025
-0.000921458027
0.00238217689
-0.00103110094
0.00262536536
-0.00114618573
0.00287550249
-0.001265655
0.00312919053
-0.00138834672
0.00338243743
-0.00151298466
0.00363064151
-0.00163744293
0.00386968137
-0.00176135194
0.00409426854
-0.00188034676
0.00429349239
-0.00199131193
0.00446201042
-0.00209229579
0.00459866611
-0.00218468384
0.00471389952
-0.00227516169
0.00481412662
-0.00236061497
0.00490558113
-0.00244656086
0.00498955172
-0.00253280863
0.0050684954
-0.0026181907
0.00514325476
-0.0027054528
0.00521609359
-0.00279377559
0.00528935969
-0.00288136664
0.00536237822
-0.00297277647
0.00543685033
-0.0030622902
0.00551192788
-0.00315997408
0.00558903196
-0.00327407953
0.00567244158
-0.00338712746
0.00575865605
-0.0034945294
0.00584811989
-0.00359917631
0.00593289198
-0.0037095836
-0.00382633138
0.00601107757
-2.4182857e-08
4.68018644e-07
-9.36107863e-08
1.44535462e-06
-2.04051024e-07
2.4917659e-06
-3.48478194e-07
3.60137314e-06
-5.16944988e-07
4.7650661e-06
-6.96412605e-07
5.97127029e-06
-8.70597215e-07
7.20651618e-06
-1.01977406e-06
8.45599297e-06
-1.12055772e-06
9.70397084e-06
-1.14560612e-06
1.09339893e-05
-1.06323579e-06
1.21286195e-05
-8.3706989e-07
1.32692629e-05
-4.25387827e-07
1.43357482e-05
2.19709225e-07
1.53061497e-05
1.15284337e-06
1.61560532e-05
2.43611163e-06
1.68579541e-05
4.1402034e-06
1.73808703e-05
6.34619158e-06
1.76888643e-05
9.14607819e-06
1.77418411e-05
1.26446181e-05
1.74931575e-05
1.69610123e-05
1.68901362e-05
2.22305179e-05
1.58724514e-05
2.86066694e-05
1.43714291e-05
3.62652095e-05
1.2306912e-05
4.54050286e-05
9.58977575e-06
5.62053281e-05
6.16456299e-06
6.89686958e-05
1.81909464e-06
8.39901348e-05
-3.53544e-06
0.000101605929
-9.99019046e-06
0.000122199984
-1.78506047e-05
0.000146203554
-2.7252288e-05
0.000174177524
-3.84129129e-05
0.000206570403
-5.15886766e-05
0.000243969706
-6.70584837e-05
0.000287030818
-8.51315865e-05
0.000336459799
-0.000106148395
0.000393021419
-0.000130480706
0.000457534301
-0.000158529626
0.000530859658
-0.000190720291
0.000613887738
-0.000227500109
0.000707518566
-0.000269328525
0.000812636534
-0.000316664514
0.000930069537
-0.00036995095
0.00106054335
-0.000429594649
0.00120462595
-0.000495941756
0.00136266171
-0.000569247744
0.00153469344
-0.000649639636
0.00172038141
-0.000737080555
0.00191886332
-0.000831257374
0.0021287827
-0.00093167584
0.00234827312
-0.00103762582
0.00257504121
-0.00114821588
0.002806236
-0.00126228592
0.00303836431
-0.00137830455
0.00326739525
-0.00149467666
0.00348910277
-0.00161004496
0.00369943262
-0.00172330524
0.00389337431
-0.00183137568
0.00406250224
-0.00193047087
0.00420449046
-0.00202232445
0.00432008636
-0.00210689606
0.0044180408
-0.00219023989
0.0045050606
-0.00227169268
0.00458298118
-0.00235306848
0.00465647092
-0.00243409207
0.00472478185
-0.00251485911
0.00478907246
-0.00259708369
0.00485077804
-0.00267987941
0.00491220233
-0.00276685936
0.0049766644
-0.00285821886
0.00504878979
-0.00295347247
0.00512602112
-0.00304998705
0.00520668906
-0.00314293642
0.00528403231
-0.00323729508
0.00535327624
-0.00334329912
0.00542094208
-0.00345476713
0.00549135841
-0.00356492459
0.00556572171
-0.0036735207
0.00564229337
-0.0037861354
-0.00389779602
0.00571377675
-1.80744877e-08
4.86525188e-07
-6.56755126e-08
1.4935664e-06
-1.34066354e-07
2.56085772e-06
-2.11026589e-07
3.67911717e-06
-2.80681267e-07
4.83558253e-06
-3.23274609e-07
6.01480125e-06
-3.14960427e-07
7.19921591e-06
-2.27501282e-07
8.36962719e-06
-2.78958856e-08
9.50554241e-06
3.22097087e-07
1.05852615e-05
8.66340516e-07
1.15857354e-05
1.65491526e-06
1.24821479e-05
2.74479114e-06
1.32474395e-05
4.20094411e-06
1.38516787e-05
6.09716864e-06
1.4261632e-05
8.5178215e-06
1.44392338e-05
1.15584367e-05
1.43423273e-05
1.53275214e-05
1.3922001e-05
1.99481096e-05
1.31236318e-05
2.55591286e-05
1.18846851e-05
3.23191031e-05
1.01328853e-05
4.04080414e-05
7.7864281e-06
4.99957039e-05
4.78688846e-06
6.13455302e-05
9.60403221e-07
7.47195214e-05
-3.78069515e-06
9.04155009e-05
-9.5276435e-06
0.000108771935
-1.65332945e-05
0.00013016759
-2.4926776e-05
0.000155085554
-3.49035452e-05
0.000183929561
-4.6689695e-05
0.000217215237
-6.05327204e-05
0.000255514917
-7.67070042e-05
0.000299446728
-9.55145321e-05
0.000349679317
-0.000117284723
0.0004069285
-0.000142374012
0.000471948781
-0.000171161511
0.000545522321
-0.000204046674
0.000628443148
-0.000241442465
0.000721495962
-0.000283764699
0.000825423982
-0.000331419301
0.000940890613
-0.000384785909
0.00106843372
-0.000444197959
0.00120841181
-0.000509918968
0.0013609429
-0.000582115265
0.0015258359
-0.000660823893
0.00170251325
-0.000745913756
0.0018899189
-0.000837033445
0.00208647988
-0.000933629726
0.0022901356
-0.00103490182
0.0024984367
-0.00113996615
0.00270849668
-0.00124767543
0.00291704863
-0.00135675778
0.00312045189
-0.00146567936
0.00331493529
-0.00157277823
0.0034969604
-0.00167669208
0.00366286562
-0.00177594081
0.00380758282
-0.00186801287
0.00392957982
-0.00195336148
0.00403149487
-0.00203237512
0.00411947696
-0.00211029617
0.00419853646
-0.00218594426
0.00427107793
-0.00226276869
0.00433876336
-0.00233936479
0.00440149965
-0.00241579359
0.00446156196
-0.00249414162
0.00452084646
-0.00257412814
0.00457915361
-0.00265537421
0.00463979013
-0.00274049808
0.00470174695
-0.00282879743
0.00476596682
-0.00292242035
0.00483290869
-0.00302039602
0.0049012787
-0.00311833659
0.00496942347
-0.00321105932
0.00504124653
-0.00330909491
0.00510634958
-0.00340837955
0.0051659779
-0.00351437403
0.00522510927
-0.0036240327
0.00527849179
-0.00372688
0.00533068482
-0.0038383069
-0.00395866296
0.00539156971
-6.01179951e-09
4.92953793e-07
-1.28940695e-08
1.50103829e-06
-5.8717006e-09
2.55451251e-06
3.41609551e-08
3.63984228e-06
1.30835323e-07
4.7397421e-06
3.12617341e-07
5.83392775e-06
6.13129171e-07
6.89968803e-06
1.07147782e-06
7.91234085e-06
1.73269611e-06
8.84546915e-06
2.64832869e-06
9.67086213e-06
3.87718215e-06
1.03582096e-05
5.48616051e-06
1.08745975e-05
7.55099937e-06
1.11841351e-05
1.01583109e-05
1.12460168e-05
1.34059042e-05
1.10158134e-05
1.74045006e-05
1.04425452e-05
2.22793909e-05
9.46948639e-06
2.81722926e-05
8.03129861e-06
3.52443857e-05
6.05390003e-06
4.36544807e-05
3.47712657e-06
5.36304715e-05
1.59600837e-07
6.54037464e-05
-3.98396322e-06
7.92367977e-05
-9.04306558e-06
9.54266029e-05
-1.52260753e-05
0.000114304215
-2.2654747e-05
0.000136284201
-3.15038216e-05
0.000161727449
-4.19724721e-05
0.000191084646
-5.42796228e-05
0.000224853637
-6.86678902e-05
0.000263573216
-8.54043144e-05
0.000307825684
-0.000104779891
0.000358234703
-0.000127110373
0.000415458899
-0.00015273272
0.000480183166
-0.00018200262
0.000553106127
-0.000215290233
0.00063492303
-0.000252971293
0.00072630085
-0.000295416987
0.000827846903
-0.000342980619
0.000940071795
-0.000395981298
0.00106334554
-0.000454684353
0.00119784757
-0.000519278856
0.00134351163
-0.000589852552
0.00149996742
-0.000666364905
0.00166648094
-0.000748618521
0.00184188895
-0.000836221148
0.0020245164
-0.000928530132
0.00221217737
-0.00102468348
0.00240229751
-0.00112373933
0.00259198138
-0.0012245755
0.00277818267
-0.0013261575
0.00295734961
-0.00142683265
0.00312696767
-0.00152636624
0.00328333227
-0.00162203442
0.00342361958
-0.00171305626
0.00354559927
-0.00179866211
0.00364884393
-0.00187917477
0.00373544356
-0.00195460286
0.00381038938
-0.00202829766
0.00387945528
-0.00210142914
0.0039444405
-0.00217527055
0.00400730902
-0.00224880153
0.00406716428
-0.00232261048
0.00412467963
-0.00239686588
0.00418281468
-0.00247391483
0.00424136012
-0.00255267372
0.00430234548
-0.00263509796
0.00436407662
-0.00271708779
0.00442704667
-0.00280345101
0.00449086566
-0.00289260069
0.00455134876
-0.00298288414
0.00460587
-0.00307489067
0.00466339574
-0.00317583957
0.00472407808
-0.00327172317
0.00478580449
-0.00337080046
0.00484661789
-0.00346917628
0.00490637617
-0.00357411251
0.00496922298
-0.00368685213
0.00503455094
-0.00379218415
0.00507527001
-0.00387900957
-0.00399488441
0.005111505
1.26637883e-08
4.80744516e-07
6.74909749e-08
1.4468539e-06
1.87029682e-07
2.43571192e-06
3.99120116e-07
3.42857762e-06
7.37118711e-07
4.40265157e-06
1.24026068e-06
5.33177403e-06
1.95409585e-06
6.18692199e-06
2.931003e-06
6.93658648e-06
4.23082411e-06
7.54688887e-06
5.92164591e-06
7.98137467e-06
8.08049007e-06
8.20079828e-06
1.07951582e-05
8.16146729e-06
1.41645608e-05
7.81638474e-06
1.83005583e-05
7.11179428e-06
2.33296318e-05
5.98864422e-06
2.93943654e-05
4.37985589e-06
3.664131e-05
2.2247372e-06
4.52661859e-05
-5.91232187e-07
5.54725835e-05
-4.14999488e-06
6.74904732e-05
-8.53807506e-06
8.15789459e-05
-1.39259844e-05
9.80257628e-05
-2.04276874e-05
0.000117184692
-2.8198683e-05
0.000139376221
-3.74140585e-05
0.000164992138
-4.82668685e-05
0.000194463351
-6.0970974e-05
0.000228256991
-7.57617686e-05
0.000266877759
-9.2895743e-05
0.000310866484
-0.000112651641
0.000360795425
-0.000135327947
0.000417261682
-0.0001612405
0.000480877319
-0.000190720008
0.000552255971
-0.000224105002
0.000631993931
-0.000261733833
0.000720645005
-0.000303934172
0.000818691131
-0.000351009887
0.000926507278
-0.000403225198
0.00104432127
-0.000460786265
0.001172169
-0.000523820274
0.00130984702
-0.000592353201
0.00145686431
-0.000666286568
0.00161239708
-0.000745375344
0.00177525078
-0.000829208172
0.00194383224
-0.000917189014
0.0021161029
-0.00100848055
0.00228962111
-0.00110203722
0.00246166758
-0.00119671912
0.00262944798
-0.00129150912
0.00279002353
-0.00138514051
0.00294110762
-0.00147723102
0.00307983822
-0.00156555309
0.00320262999
-0.00164914849
0.0033090368
-0.00172843177
0.00339891499
-0.00180292442
0.00347426703
-0.00187400367
0.00353958893
-0.0019444874
0.00359824212
-0.00201324664