/*--------------------------------*- C++ -*----------------------------------*\
  =========                 |
  \\      /  F ield         | OpenFOAM: The Open Source CFD Toolbox
   \\    /   O peration     | Website:  https://openfoam.org
    \\  /    A nd           | Version:  8
     \\/     M anipulation  |
\*---------------------------------------------------------------------------*/
FoamFile
{
    version     2.0;
    format      ascii;
    class       volVectorField;
    location    "0.034";
    object      U;
}
// * * * * * * * * * * * * * * * * * * * * * * * * * * * * * * * * * * * * * //

dimensions      [0 1 -1 0 0 0 0];

internalField   nonuniform List<vector> 
42400
(
(-0.0170025158 0.0163092316 -7.154878e-27)
(-0.0501187819 0.0473848483 2.49610773e-26)
(-0.0832194367 0.0775159822 2.87530903e-26)
(-0.116597715 0.106867702 0)
(-0.150442142 0.135554242 0)
(-0.184850349 0.163605786 -9.67225796e-28)
(-0.219837313 0.190983507 0)
(-0.255354176 0.21760243 1.06380169e-27)
(-0.291312049 0.243352792 0)
(-0.327602303 0.268117394 1.16740189e-27)
(-0.364110967 0.291783907 1.22179652e-27)
(-0.400727726 0.314252494 -1.27787435e-27)
(-0.437350594 0.335439668 -7.65636966e-26)
(-0.473887421 0.355279447 -8.32056053e-26)
(-0.510255251 0.373722756 -1.45556852e-27)
(-0.546378464 0.390735922 0)
(-0.582186422 0.406298868 0)
(-0.617611088 0.420403438 0)
(-0.652584903 0.433052069 0)
(-0.687039018 0.444256874 0)
(-0.720901876 0.454039118 0)
(-0.754098072 0.462429011 -3.81727897e-27)
(-0.786547379 0.469465715 -1.74638231e-25)
(-0.818163845 0.475197474 -3.73223018e-25)
(-0.848854827 0.479681791 -1.99503413e-25)
(-0.878519862 0.482985562 -4.33325674e-27)
(-0.907049237 0.485185133 -4.45412333e-27)
(-0.934322086 0.486366228 9.13902178e-27)
(-0.960203766 0.486623775 0)
(-0.984542738 0.486061803 0)
(-1.00716821 0.484792941 3.13324793e-25)
(-1.02788528 0.482934564 3.36556187e-25)
(-1.04645656 0.480599001 1.005147e-26)
(-1.06259938 0.477891954 -3.87361311e-25)
(-1.07603573 0.474943882 -4.25023876e-25)
(-1.08651128 0.47191773 0)
(-1.09347236 0.46925704 0)
(-1.09651542 0.466481137 0)
(-1.09486224 0.464042378 0)
(-1.08877365 0.46122307 -5.88298013e-25)
(-1.07594243 0.459856941 -6.75648656e-25)
(-1.05597431 0.45865443 -6.80330149e-25)
(-1.02648534 0.457961993 -1.28048616e-24)
(-0.987384089 0.456873549 -1.7293745e-26)
(-0.936651058 0.456188599 6.82492568e-25)
(-0.872794132 0.455849809 6.84055676e-25)
(-0.79415544 0.455785981 1.1425952e-26)
(-0.698587269 0.455765308 -7.57421249e-25)
(-0.583790121 0.45555755 5.78551043e-27)
(-0.448048973 0.454627492 -7.91286015e-25)
(-0.287398288 0.452977482 1.43331219e-34)
(-0.102217405 0.451121731 1.32204846e-24)
(0.116756022 0.450600917 7.39823387e-25)
(0.359350159 0.451058882 -2.2581935e-26)
(0.653437174 0.448317346 0)
(0.993763109 0.441549243 0)
(1.38409121 0.43355056 0)
(1.83179825 0.424619764 7.97873916e-26)
(2.34133031 0.414447601 1.0429031e-25)
(2.91760875 0.403026798 0)
(3.56527498 0.390127406 -3.01137847e-24)
(4.28785054 0.375558682 -3.50938159e-24)
(5.08720776 0.359556129 3.48142565e-24)
(5.96378697 0.342794723 3.58447947e-24)
(6.91710381 0.327534015 0)
(7.9385611 0.316067675 0)
(9.02943138 0.305365058 3.96088995e-24)
(10.1712063 0.315355816 4.45538792e-24)
(11.3057619 0.374997075 1.12829621e-24)
(12.605983 0.270678622 0)
(14.0131509 0.124054948 0)
(14.9464093 0.577329549 1.65121971e-24)
(16.2950875 0.585943841 1.66606379e-24)
(18.406349 -0.642063542 0)
(19.2212931 -0.285789631 2.22054124e-24)
(19.3979008 1.77522489 -6.24776285e-24)
(21.1061622 1.48881169 1.56629054e-24)
(22.8038692 -0.475637381 -5.82292683e-24)
(23.4822043 -0.970432741 -6.76209017e-24)
(23.4858953 -0.380526817 -6.29399218e-23)
(-0.0198787536 0.0176396961 0)
(-0.0590395256 0.0518899253 1.90501329e-26)
(-0.0984783326 0.0857019623 2.19198914e-26)
(-0.138376183 0.119138679 0)
(-0.178797124 0.152199966 0)
(-0.219736873 0.184823588 3.08888109e-26)
(-0.261110894 0.216890779 3.53247446e-26)
(-0.302785844 0.248251417 8.03245196e-28)
(-0.344603036 0.27874541 0)
(-0.386397189 0.308217877 8.78544952e-28)
(-0.428008423 0.336528611 9.17711655e-28)
(-0.469288599 0.363556913 -5.68634103e-26)
(-0.510103472 0.389203059 -1.22830901e-25)
(-0.550332014 0.41338759 -6.72881223e-26)
(-0.589864031 0.436049355 7.19510283e-26)
(-0.628596955 0.457143091 8.13865649e-26)
(-0.666432506 0.476637063 0)
(-0.703273604 0.494511108 2.36542343e-27)
(-0.739021761 0.510755201 0)
(-0.773574969 0.525368565 0)
(-0.806826012 0.53835924 0)
(-0.838661099 0.549743991 -1.30098417e-25)
(-0.868958637 0.559548435 -2.78297585e-25)
(-0.897588013 0.567807272 -1.49024456e-25)
(-0.924408154 0.574564509 0)
(-0.949265671 0.579873598 -5.97424663e-27)
(-0.971992601 0.583797321 -3.09620371e-27)
(-0.992403089 0.586406732 6.28923238e-27)
(-1.01028758 0.587780035 -2.18239064e-25)
(-1.02540157 0.588003763 -2.35072238e-25)
(-1.03748274 0.58717892 -6.08085253e-27)
(-1.04629499 0.585373441 -5.92076508e-27)
(-1.05145087 0.582740009 -2.69847169e-25)
(-1.05257735 0.579569811 -2.72769385e-25)
(-1.04942221 0.575594155 2.64313374e-25)
(-1.04126844 0.571306711 3.10943468e-25)
(-1.02831606 0.566209427 0)
(-1.00845961 0.561532233 5.32233677e-27)
(-0.981245259 0.556325685 0)
(-0.944603021 0.550946337 9.79817929e-27)
(-0.898520136 0.544742414 -4.38389573e-25)
(-0.841318014 0.538433146 -4.68805882e-25)
(-0.771709427 0.532097188 5.82272092e-27)
(-0.688063802 0.525715094 -4.41534971e-27)
(-0.588417091 0.519121493 3.08706401e-27)
(-0.470795067 0.512198626 8.66315139e-28)
(-0.333626888 0.504582008 -3.21613521e-27)
(-0.173418688 0.496443409 -4.6571545e-25)
(0.0118681768 0.489651369 -4.91635363e-25)
(0.218427801 0.484750769 0)
(0.465970604 0.477844552 1.72377167e-26)
(0.753357882 0.468197565 -3.83710417e-26)
(1.08428189 0.457505839 -4.86120401e-25)
(1.46389726 0.446673136 -5.87304111e-25)
(1.89868574 0.435574922 -7.7983517e-26)
(2.3929181 0.424017 -1.2941724e-24)
(2.95167311 0.412109578 -1.33598855e-24)
(3.57999117 0.399893173 1.40149527e-25)
(4.28151951 0.387476881 1.7207567e-25)
(5.05893459 0.375349607 -8.55362761e-25)
(5.914334 0.364840193 -6.32283484e-25)
(6.8470676 0.357471651 -3.09263278e-25)
(7.85321852 0.35454284 3.65976298e-25)
(8.9238369 0.357024094 0)
(10.0519457 0.365391354 6.14534025e-25)
(11.2279758 0.38339417 -1.05055274e-24)
(12.4489315 0.40028786 -1.05124055e-25)
(13.7158592 0.411393594 0)
(14.8882963 0.542871007 2.94030088e-27)
(16.094931 0.645383507 1.2564802e-24)
(17.6136345 0.332073577 4.7585125e-24)
(18.7547649 0.389301385 4.77384865e-24)
(19.5175967 1.08538531 -2.74716036e-24)
(20.910661 0.754922409 -5.70116145e-24)
(22.4176871 -0.303323159 3.68788918e-26)
(23.0556642 0.148517241 1.06902035e-23)
(23.2569615 1.09083833 2.17558066e-23)
(23.5159021 1.01674327 -6.37935502e-24)
(23.6435946 0.399507609 -2.38461692e-23)
(23.6032486 0.168041462 -2.05944551e-23)
(-0.0221812498 0.0181899819 1.92984486e-27)
(-0.0662617744 0.0540007689 2.08025593e-28)
(-0.110931983 0.0898198476 -2.20387844e-28)
(-0.15626777 0.125632546 2.28151977e-28)
(-0.202235447 0.161358856 0)
(-0.248704808 0.196851585 -2.41438478e-26)
(-0.295503712 0.231929659 4.90213606e-34)
(-0.342409042 0.26639175 3.0126172e-26)
(-0.38918688 0.300036388 3.33663253e-26)
(-0.43560942 0.332677016 7.34768e-26)
(-0.481464135 0.364149591 4.0870374e-26)
(-0.526557691 0.394315194 6.52499502e-28)
(-0.570715799 0.423059541 6.77282025e-28)
(-0.613780431 0.450290711 5.18984779e-26)
(-0.655605676 0.475936041 5.62358784e-26)
(-0.69605316 0.499938917 2.23004699e-27)
(-0.734987667 0.522255921 -6.73034897e-26)
(-0.772273331 0.542854613 -1.42167653e-25)
(-0.807770509 0.561712001 -7.68197802e-26)
(-0.841333312 0.57881367 1.61259661e-27)
(-0.872807676 0.594153452 -1.64001863e-27)
(-0.902029661 0.607733555 -1.66150736e-27)
(-0.928823711 0.619565132 0)
(-0.953000606 0.629668934 3.435061e-27)
(-0.974355115 0.638076104 1.22008378e-25)
(-0.992660028 0.644827505 -8.08652554e-29)
(-1.00766404 0.649971331 -1.42884568e-25)
(-1.01909863 0.653556688 -1.55543752e-25)
(-1.02668671 0.655619325 -1.64560543e-25)
(-1.03000317 0.656282368 1.6972988e-25)
(-1.0288666 0.655494804 -2.99849227e-27)
(-1.02284085 0.653513127 -3.53559087e-25)
(-1.01151248 0.650616152 -1.97566141e-25)
(-0.994888801 0.646614672 0)
(-0.971083609 0.642010543 0)
(-0.93947392 0.636217899 -2.09867653e-27)
(-0.898356323 0.629504825 0)
(-0.847674767 0.621619177 1.4085613e-27)
(-0.786010484 0.613090625 -3.10949899e-25)
(-0.712197503 0.604023781 -3.92266276e-27)
(-0.624729707 0.594447559 3.47305319e-25)
(-0.52175795 0.58422664 0)
(-0.401279164 0.573200118 0)
(-0.261231375 0.561422586 -3.50571304e-25)
(-0.101703571 0.549475944 -2.91709122e-25)
(0.0835661631 0.538907267 -1.4113396e-26)
(0.288323426 0.530011439 0)
(0.53419865 0.518870487 0)
(0.817487488 0.50572928 -3.7913913e-25)
(1.14224281 0.492614877 -3.38241985e-25)
(1.51448303 0.479931499 3.42988924e-26)
(1.93880592 0.467518756 0)
(2.42036418 0.45547788 2.27924765e-25)
(2.9644543 0.444027328 2.84453631e-25)
(3.5761284 0.433228161 2.70198271e-25)
(4.25951423 0.423491429 -2.0204562e-25)
(5.01825101 0.415902381 -3.93488676e-25)
(5.85484956 0.411748571 2.73124256e-32)
(6.76950307 0.41215092 -4.06629497e-32)
(7.75880973 0.418048858 -2.54713861e-24)
(8.81639028 0.430443133 -1.81433935e-24)
(9.93122408 0.450897609 2.15970658e-24)
(11.0942854 0.480115294 2.924103e-24)
(12.2971489 0.518328442 0)
(13.5276712 0.560018507 4.32045359e-24)
(14.7779754 0.612893085 7.48059943e-24)
(16.0085465 0.682257054 4.33573846e-24)
(17.2806363 0.710606496 0)
(18.4585678 0.775038566 -2.20120796e-26)
(19.4607287 1.02924007 6.27528157e-24)
(20.621483 1.06281535 6.42485445e-24)
(21.8199058 0.72143697 0)
(22.6950492 0.850751018 0)
(23.1543607 1.248845 1.68703329e-24)
(23.5327362 1.03531509 -1.80049711e-24)
(23.6343035 0.735253121 6.70620579e-24)
(23.6340229 0.83679231 2.06196178e-23)
(23.6120927 0.999136113 0)
(23.5848957 0.881483424 -4.01885649e-24)
(23.5759736 0.735131505 2.12888305e-23)
(-0.0240020565 0.0181607648 8.03740759e-29)
(-0.0720607218 0.0542819619 1.26808869e-28)
(-0.121039401 0.0907547512 6.1040133e-27)
(-0.170917393 0.127505169 -6.74117601e-27)
(-0.221555147 0.164390482 -8.11387513e-27)
(-0.272731217 0.201208558 0)
(-0.324146944 0.237715676 -2.09785665e-26)
(-0.375481205 0.273666049 -2.3262136e-26)
(-0.426444 0.308833007 -2.49973023e-26)
(-0.476733938 0.343010511 -2.73219369e-26)
(-0.526078933 0.376016588 -2.89864891e-26)
(-0.574233967 0.407699026 9.1853283e-35)
(-0.620977716 0.437933584 3.84551967e-28)
(-0.666107742 0.466620189 5.12264611e-34)
(-0.709434629 0.493678787 -4.01527833e-28)
(-0.750776002 0.519045469 -4.19381572e-26)
(-0.789951094 0.542669244 4.48988508e-26)
(-0.826776105 0.564509643 -8.56806984e-28)
(-0.861060243 0.584535279 -5.22919338e-26)
(-0.892602797 0.602723709 8.49779116e-28)
(-0.921191602 0.61906168 -1.64206403e-27)
(-0.946593665 0.633542039 6.39991188e-26)
(-0.968552168 0.646159719 6.88041558e-26)
(-0.986786315 0.656915379 7.63917742e-28)
(-1.00101606 0.665784677 0)
(-1.01087172 0.672796933 6.38983903e-28)
(-1.01608481 0.677985021 0)
(-1.01631729 0.681455384 -9.15560783e-26)
(-1.01125047 0.683422328 -2.0341555e-25)
(-1.00072412 0.683958988 -1.2249444e-25)
(-0.983583045 0.683143466 1.44569328e-25)
(-0.959114877 0.680791504 1.60408767e-25)
(-0.926339617 0.676806285 -1.17291976e-27)
(-0.88384297 0.671311085 -1.17229488e-27)
(-0.83147497 0.664396174 1.59899203e-25)
(-0.768000423 0.656372446 1.77296265e-25)
(-0.692286706 0.647331257 0)
(-0.602995756 0.63734601 -2.05803201e-25)
(-0.498407171 0.626440685 -2.17224334e-25)
(-0.376455035 0.614554823 -1.2068226e-26)
(-0.235309682 0.601614327 -1.44942748e-26)
(-0.0745579174 0.588246686 0)
(0.111026671 0.576227828 0)
(0.314117619 0.565791568 0)
(0.560141219 0.552799827 -2.46650691e-26)
(0.841202843 0.538135539 -2.33979846e-25)
(1.16209356 0.524349014 -1.83325093e-25)
(1.52865305 0.511638817 0)
(1.94518442 0.499715486 0)
(2.41678182 0.488776253 -1.64636182e-25)
(2.94877008 0.479040277 -4.79100429e-26)
(3.54614386 0.470888966 4.10089387e-27)
(4.21346579 0.465134818 1.4274559e-25)
(4.95465118 0.46286691 1.70579925e-25)
(5.7725246 0.465058112 -2.53755063e-25)
(6.66785278 0.472489167 -8.98649187e-25)
(7.63897636 0.485978692 -1.88384893e-24)
(8.68098735 0.506540309 -2.91977858e-24)
(9.78582189 0.535813146 0)
(10.9396647 0.575647953 -3.80569443e-25)
(12.1328986 0.626426777 -3.98832923e-24)
(13.3520868 0.686980733 -8.36584953e-24)
(14.585597 0.756166161 4.4812532e-25)
(15.8159449 0.836316432 4.73127005e-25)
(17.0279923 0.915449208 -6.78169895e-24)
(18.2312722 0.991876642 6.2045815e-24)
(19.3347849 1.08829719 6.6584091e-24)
(20.4200972 1.1785643 -1.18094836e-24)
(21.4222761 1.19458617 -2.66910978e-24)
(22.3458011 1.24358166 -9.66915517e-24)
(22.9931637 1.39596205 8.35252678e-26)
(23.4891154 1.42077179 -1.72178543e-23)
(23.6182602 1.25716999 -7.00639269e-24)
(23.6629014 1.31998592 0)
(23.6428302 1.41070571 -9.93251916e-24)
(23.6173373 1.32468462 -3.12568682e-23)
(23.636302 1.15718409 4.6755087e-24)
(23.6465538 1.1248729 9.25608528e-24)
(23.6633014 1.14075621 9.18194806e-24)
(23.5987305 1.17951416 1.86187601e-23)
(-0.0256435759 0.0178637097 1.33685212e-27)
(-0.0772952878 0.0536270581 0)
(-0.130171964 0.0899428438 0)
(-0.184158706 0.126688665 1.82372806e-30)
(-0.239009192 0.163672185 0)
(-0.294389707 0.200647796 0)
(-0.349911997 0.237342222 0)
(-0.405175222 0.273476523 -3.09613067e-28)
(-0.45975238 0.308790944 0)
(-0.513291661 0.343064748 1.61226689e-28)
(-0.565472019 0.376115924 -2.05536316e-26)
(-0.615985929 0.407790993 2.11935534e-34)
(-0.664558578 0.4379625 2.30897994e-26)
(-0.71093567 0.466529171 0)
(-0.754875529 0.493410877 -1.69237192e-28)
(-0.796141743 0.518544106 3.19758379e-28)
(-0.834496556 0.541878493 0)
(-0.869694938 0.563373742 -2.69632916e-26)
(-0.901470881 0.582997844 2.53111118e-28)
(-0.929539423 0.600713567 6.15574254e-26)
(-0.953611865 0.616456515 3.49293597e-26)
(-0.973312613 0.630265978 1.29660083e-28)
(-0.988364245 0.642133214 0)
(-0.99846698 0.652111687 3.75825361e-26)
(-1.00330786 0.660353028 3.64742618e-26)
(-1.00242649 0.666818541 3.81140156e-26)
(-0.995101813 0.671465919 4.33593376e-26)
(-0.980661417 0.674255859 -4.9433141e-26)
(-0.95830142 0.675140694 -5.20431519e-26)
(-0.926961755 0.674115072 0)
(-0.886211715 0.671402932 5.32388616e-26)
(-0.835096195 0.667155784 5.91336432e-26)
(-0.772584904 0.661467334 -3.39626526e-27)
(-0.697539158 0.654424196 7.01256917e-26)
(-0.608634432 0.646116795 7.94775726e-26)
(-0.504218869 0.636640175 1.08369935e-26)
(-0.382536266 0.626113387 -6.59100226e-27)
(-0.242079947 0.614383457 1.06689798e-25)
(-0.0801715217 0.601651576 4.15190914e-26)
(0.105752675 0.589923466 -7.43215936e-26)
(0.309367916 0.579779582 -3.97709382e-25)
(0.554243058 0.567525268 -2.05941987e-25)
(0.833307849 0.554094816 0)
(1.15119152 0.541779912 2.94388925e-26)
(1.51331949 0.530735595 9.83366247e-26)
(1.92353464 0.520820799 3.89942176e-26)
(2.38679417 0.512445938 -8.43978802e-33)
(2.90834731 0.506058899 -6.9602706e-26)
(3.49318995 0.502356369 0)
(4.1458091 0.502217619 6.50340094e-26)
(4.86993021 0.506508074 -1.79488672e-25)
(5.66838698 0.51597422 -4.87853986e-25)
(6.5424968 0.531296503 4.02067197e-25)
(7.4916692 0.553210557 -5.1851738e-25)
(8.51302358 0.582571591 -1.32279964e-24)
(9.60036614 0.620247497 -1.73803137e-24)
(10.7440111 0.667562794 -6.68841586e-24)
(11.928685 0.725905098 -5.0334311e-24)
(13.142888 0.795847071 -5.06135929e-24)
(14.3689342 0.876412674 -5.93451294e-24)
(15.5960688 0.967849593 0)
(16.7999161 1.06617445 4.70479891e-25)
(17.9779567 1.16821996 -5.69801987e-24)
(19.0946194 1.27414048 -7.01183695e-24)
(20.1525178 1.37670777 -3.47932206e-26)
(21.1484353 1.46132899 0)
(22.0239058 1.53870177 1.15016267e-23)
(22.8058247 1.58210307 1.30153887e-23)
(23.3538712 1.64797984 1.30770843e-24)
(23.5871536 1.62523192 -1.467262e-24)
(23.6380438 1.67614679 -2.30549715e-26)
(23.6353134 1.7002375 -1.91596319e-24)
(23.6127193 1.71233396 -1.13342908e-23)
(23.6122253 1.62008513 -1.02350574e-23)
(23.6403903 1.54659864 -1.44827153e-24)
(23.6595821 1.53305998 0)
(23.6536752 1.51781044 -8.77257862e-24)
(23.6725945 1.44089321 -1.13585514e-23)
(23.823672 1.29026124 0)
(23.7861182 1.27914258 -1.27468147e-23)
(-0.0274115793 0.0175332605 -2.88355076e-27)
(-0.0828226455 0.0527302833 -4.85227071e-27)
(-0.139679446 0.08853337 -5.49467256e-27)
(-0.197768531 0.124778779 -1.95911289e-29)
(-0.256732781 0.161236884 6.110956e-27)
(-0.316126532 0.197628921 -3.85085777e-29)
(-0.375453634 0.233656027 -6.66728586e-27)
(-0.434208224 0.269026777 -7.09595878e-27)
(-0.491909596 0.303470648 3.71394174e-29)
(-0.548091391 0.33675375 7.4834473e-29)
(-0.602340776 0.368691179 7.05169804e-27)
(-0.654326009 0.39913434 1.98978154e-26)
(-0.703700374 0.427970448 1.27053127e-26)
(-0.750145877 0.455104131 1.19556581e-26)
(-0.793355661 0.480462629 2.24895266e-30)
(-0.833018896 0.503991603 -9.61958531e-27)
(-0.86881546 0.525649923 0)
(-0.900438124 0.545365796 0)
(-0.927509402 0.563178733 -1.12274013e-26)
(-0.949722561 0.579106344 -1.06321283e-26)
(-0.966678544 0.593150954 2.32545415e-27)
(-0.977916846 0.60523385 6.3977955e-27)
(-0.982865854 0.615373815 -1.45993169e-34)
(-0.980899839 0.623541273 -7.07278284e-27)
(-0.971291867 0.62968209 8.43055916e-27)
(-0.953369678 0.633884329 1.58992766e-26)
(-0.926522714 0.636298374 9.4275644e-27)
(-0.889902963 0.63697653 1.19071182e-27)
(-0.842555875 0.635976428 -1.39715088e-27)
(-0.783428299 0.63335858 3.24657969e-27)
(-0.711342723 0.629206236 0)
(-0.624947467 0.623629281 1.68705523e-27)
(-0.522656695 0.616748086 4.82981916e-27)
(-0.402761713 0.608705424 1.28770954e-26)
(-0.263703154 0.599416793 0)
(-0.103005481 0.589098606 -4.32509402e-26)
(0.0820011343 0.579445961 -5.1347479e-26)
(0.286311206 0.571061923 0)
(0.528872966 0.561297216 0)
(0.805553948 0.55065707 -3.00784955e-26)
(1.12038636 0.541158262 -2.7998178e-26)
(1.47810543 0.533198517 -5.86601839e-26)
(1.88248133 0.526810827 0)
(2.33825218 0.522574306 1.00851524e-25)
(2.85036441 0.521097967 2.60333233e-25)
(3.42343411 0.52309164 2.18544607e-25)
(4.0616653 0.529361799 -5.49120742e-26)
(4.76859156 0.540730577 -8.70183609e-28)
(5.54710489 0.557941804 0)
(6.39891124 0.581757039 -6.0256436e-25)
(7.32416538 0.612996021 1.94879253e-25)
(8.32090757 0.652440085 1.22037187e-24)
(9.38467863 0.700784673 2.68376238e-25)
(10.5074844 0.758561984 -1.67810525e-24)
(11.6780744 0.82630448 -5.15782568e-24)
(12.880294 0.904334418 4.51206969e-32)
(14.1012925 0.992236949 2.85656188e-24)
(15.3230395 1.0886178 0)
(16.5320438 1.19335379 0)
(17.7023712 1.30287459 4.33452587e-25)
(18.8290823 1.41692434 4.57246691e-25)
(19.8731182 1.53084862 0)
(20.8560513 1.63752774 8.35255723e-24)
(21.7219361 1.73419514 7.60784228e-24)
(22.5270073 1.80360895 -1.00730378e-23)
(23.1432317 1.85513291 -3.09332331e-23)
(23.5135862 1.90095238 -1.34153875e-23)
(23.6132372 1.91597695 -6.75523907e-24)
(23.6292975 1.95894353 -6.77569396e-24)
(23.6135732 2.00409554 -1.53874438e-24)
(23.6219158 1.91330787 1.61639861e-23)
(23.6233084 1.89673671 6.81145899e-24)
(23.6315469 1.86433797 -1.2459341e-23)
(23.6388411 1.84223485 -1.08885964e-23)
(23.6934902 1.79625653 -1.41361927e-23)
(23.744883 1.74103931 -1.59480111e-23)
(23.750552 1.73107919 -1.18194188e-23)
(23.7402785 1.72443607 1.70736447e-31)
(23.9383588 1.58406762 3.24171797e-23)
(23.9913879 1.45978577 3.79109635e-23)
(-0.0295119656 0.0172766497 1.693449e-27)
(-0.0892039444 0.0519287714 1.76628188e-30)
(-0.150417721 0.0871135152 5.9655238e-27)
(-0.212828469 0.122629398 -2.26281766e-36)
(-0.275957014 0.158217641 -5.81478518e-27)
(-0.339236337 0.19357591 -5.70586007e-27)
(-0.402055474 0.228389309 -1.09179703e-26)
(-0.463802998 0.262358853 -5.08746595e-27)
(-0.523898293 0.29521925 -4.718008e-27)
(-0.58181056 0.326742491 -4.35306137e-27)
(-0.637043571 0.356744337 -3.57438851e-27)
(-0.689139253 0.385093091 -2.22098103e-27)
(-0.737715666 0.411681007 -9.30373921e-28)
(-0.782367608 0.436437564 -2.37602765e-28)
(-0.822716253 0.459284259 -6.63826921e-29)
(-0.858323866 0.480249716 -8.67813984e-29)
(-0.888824341 0.49924223 1.19601517e-26)
(-0.913737454 0.516310396 1.91259013e-26)
(-0.932584785 0.531375624 3.45832038e-28)
(-0.944781588 0.544424171 4.06912849e-28)
(-0.949755564 0.555521641 2.8808108e-26)
(-0.946918761 0.56471581 3.27538571e-26)
(-0.93557819 0.572029541 0)
(-0.914935457 0.577510045 -7.79686098e-28)
(-0.884129592 0.58119756 0)
(-0.842196721 0.583147611 0)
(-0.788062461 0.583439871 -1.22148693e-27)
(-0.720520987 0.582178208 -5.56079634e-26)
(-0.638219378 0.579481878 -6.45025036e-26)
(-0.539603593 0.575486035 6.84575878e-26)
(-0.42299599 0.57034866 5.73391847e-26)
(-0.286792341 0.564045248 -5.00282882e-27)
(-0.128675141 0.556819575 5.50540998e-27)
(0.0538669995 0.550142446 0)
(0.256819475 0.544479441 -6.95430713e-27)
(0.496738033 0.537897755 0)
(0.770317909 0.530833135 0)
(1.08126593 0.525099631 -9.75230652e-27)
(1.4339316 0.521205827 0)
(1.83201608 0.519349938 0)
(2.27984353 0.52013865 1.57394085e-25)
(2.78194038 0.524200757 1.58726111e-25)
(3.34258127 0.532248357 0)
(3.9657197 0.545076866 0)
(4.65474093 0.563539651 0)
(5.4125727 0.588464684 -5.79225609e-26)
(6.2411237 0.620677168 -6.87729329e-26)
(7.14095222 0.66099158 9.56558058e-25)
(8.11085566 0.710168639 1.11980277e-24)
(9.14741103 0.76883075 1.41573797e-24)
(10.2446346 0.837452529 1.77096814e-24)
(11.3930615 0.916248916 2.3268455e-24)
(12.580225 1.00525668 2.79199882e-24)
(13.7877751 1.10457334 0)
(15.0005887 1.21274784 0)
(16.2015871 1.32688522 -2.96183397e-24)
(17.3761934 1.44517594 -6.74443951e-24)
(18.5006806 1.5637788 -3.82131959e-24)
(19.5633687 1.6823711 -4.00892365e-24)
(20.5308701 1.79482477 -3.33050528e-24)
(21.4185849 1.89631604 9.20849438e-24)
(22.1764726 1.98720619 1.88169471e-23)
(22.8588698 2.0436336 5.65385184e-25)
(23.3466921 2.10670905 -1.46618921e-23)
(23.5712592 2.12431501 6.0081487e-25)
(23.6031012 2.17160626 -1.28762488e-24)
(23.6159027 2.18717835 6.2068881e-24)
(23.5989163 2.19107186 -1.71900085e-31)
(23.6099802 2.14590293 -9.86009508e-24)
(23.6148947 2.13005322 -1.05205693e-24)
(23.6229921 2.12099439 8.33073957e-24)
(23.6480596 2.07112206 1.24765855e-23)
(23.6450503 2.06233856 0)
(23.6711137 2.02646696 1.0743693e-24)
(23.7721509 1.94281174 0)
(23.8186454 1.92011066 1.34392673e-23)
(23.8430658 1.89372541 2.91551566e-23)
(23.8667333 1.90616816 1.56588151e-23)
(23.9565772 1.84044083 1.15562012e-23)
(24.0141657 1.69334981 3.13717414e-23)
(-0.0319903418 0.0170727946 1.84857282e-27)
(-0.0965161532 0.0511888399 5.98587228e-27)
(-0.162428876 0.085671354 -1.80012522e-29)
(-0.229274074 0.120286467 -5.59617424e-27)
(-0.296436599 0.154753918 -5.1046057e-27)
(-0.363216118 0.188757561 -4.54673037e-27)
(-0.428875529 0.221976869 -3.99928108e-29)
(-0.492686312 0.254114475 2.77097056e-27)
(-0.553958756 0.2849134 1.60390729e-27)
(-0.612056423 0.314164039 4.39925967e-28)
(-0.666400584 0.341696794 0)
(-0.71644312 0.367383179 -2.1870705e-29)
(-0.761651741 0.391164382 1.40774814e-30)
(-0.801556171 0.412959047 0)
(-0.835628492 0.432779566 0)
(-0.863367154 0.450539835 0)
(-0.884196314 0.466322137 0)
(-0.897529432 0.480122955 9.20665292e-29)
(-0.902712578 0.491969902 0)
(-0.899019212 0.501905543 -2.45736208e-26)
(-0.885663144 0.509965751 -2.79115731e-26)
(-0.861742812 0.51622432 6.4645341e-26)
(-0.826302918 0.520755065 7.19283644e-26)
(-0.778255694 0.52365801 -8.0371228e-26)
(-0.716394729 0.525045406 -8.65987235e-26)
(-0.639377024 0.52504821 -9.5460629e-26)
(-0.545681698 0.523819082 -1.02945247e-25)
(-0.433660221 0.521532916 -9.82800872e-26)
(-0.301682724 0.518223493 -2.26372767e-25)
(-0.147567702 0.514153809 -1.57206699e-25)
(0.0310805808 0.510572618 0)
(0.231188547 0.507850518 4.71118267e-27)
(0.46697829 0.504683966 5.44250797e-27)
(0.735970477 0.501470466 0)
(1.04160405 0.499806621 -7.06486075e-27)
(1.38783141 0.500231605 0)
(1.77814808 0.503022847 0)
(2.21654304 0.508809565 2.20960225e-25)
(2.70717006 0.518258521 1.20443767e-26)
(3.25401163 0.532107003 -3.11146608e-25)
(3.86080474 0.551183608 3.57164009e-25)
(4.53078936 0.576381805 4.5076009e-25)
(5.26680916 0.608554632 -2.18606385e-26)
(6.070837 0.648528178 0)
(6.94368489 0.697092929 9.04213457e-25)
(7.88467307 0.754959231 9.76086158e-25)
(8.89127551 0.822697378 0)
(9.95877005 0.90068713 0)
(11.079827 0.989084608 -1.8381686e-24)
(12.2440069 1.08770574 -2.22949627e-24)
(13.4378945 1.19610338 2.8162496e-24)
(14.6422232 1.31412473 3.23463493e-24)
(15.8392603 1.44030202 -3.09669871e-24)
(17.010788 1.57214143 5.019173e-32)
(18.1390297 1.70687444 3.70099245e-24)
(19.204239 1.83887777 1.92248051e-26)
(20.1938145 1.96773229 0)
(21.0824558 2.08442391 4.32303478e-25)
(21.8710215 2.19121974 -3.82378994e-24)
(22.5192989 2.27149503 5.71101397e-25)
(23.0834089 2.33049947 6.60739205e-24)
(23.4660778 2.39077663 0)
(23.5839074 2.37941011 5.8443852e-25)
(23.6128871 2.40166591 0)
(23.5942491 2.42936201 5.03330308e-25)
(23.5934586 2.38465529 -4.36177785e-25)
(23.6015475 2.35949862 -7.99873571e-25)
(23.6131447 2.33033682 -1.07724309e-23)
(23.6261893 2.30705706 -1.27823107e-23)
(23.6434628 2.27074785 -1.51039667e-24)
(23.645373 2.27253022 -9.9068473e-24)
(23.6733111 2.24341107 -1.25402355e-23)
(23.684727 2.22505861 -1.26323193e-23)
(23.7430942 2.18571527 -1.27197249e-23)
(23.8434963 2.09971877 -1.41062924e-23)
(23.9237495 2.05444612 -1.44657011e-23)
(23.9595914 2.0371364 1.5788602e-23)
(23.9451048 2.02843125 1.25762536e-23)
(23.960302 2.01286896 -2.32774189e-24)
(23.990572 1.97030439 3.47484176e-24)
(-0.0346348108 0.0167718942 1.68094459e-27)
(-0.104092912 0.0501115284 -5.3862231e-27)
(-0.17454442 0.0836099508 -7.04575903e-29)
(-0.245378872 0.117005404 -7.04366329e-35)
(-0.315824775 0.150001589 -3.20458477e-27)
(-0.38503083 0.182276827 -7.65441292e-29)
(-0.452118986 0.213513991 -7.82920407e-28)
(-0.516229923 0.243428244 1.18522608e-34)
(-0.576551539 0.271787764 -6.3019947e-27)
(-0.632343702 0.298396811 -5.7118639e-27)
(-0.682897375 0.323123152 1.56083477e-28)
(-0.727540378 0.345873507 -1.08288907e-26)
(-0.765628593 0.366568067 -1.2844897e-26)
(-0.796518051 0.385219188 -1.5831809e-26)
(-0.81956204 0.401815795 -1.93188338e-26)
(-0.83406906 0.416385335 2.30854861e-26)
(-0.839299291 0.428974447 2.71909852e-26)
(-0.834447616 0.439652431 -5.42577078e-29)
(-0.818649366 0.448482317 0)
(-0.79089021 0.455574187 -4.03159487e-26)
(-0.75012733 0.461028001 -4.52853347e-26)
(-0.695167644 0.464979653 1.22124712e-28)
(-0.624693144 0.467578761 5.55806346e-26)
(-0.537225408 0.468998282 6.00459986e-26)
(-0.431158112 0.469434934 1.05953822e-27)
(-0.30486186 0.468981142 0)
(-0.156280958 0.467916819 -7.5105817e-28)
(0.0168898379 0.467296779 1.14297092e-28)
(0.212390965 0.467434967 -1.52348074e-25)
(0.442325039 0.467538583 -1.66413723e-25)
(0.704926218 0.467984878 2.1539829e-25)
(1.00340878 0.470155895 2.40659404e-25)
(1.34136974 0.474609776 9.95137212e-27)
(1.72210635 0.481698642 -2.65300592e-25)
(2.14930811 0.492076888 4.837397e-33)
(2.62680401 0.506448886 3.1895557e-25)
(3.15829511 0.525580432 -3.51943365e-25)
(3.74728245 0.550307615 -4.15809138e-25)
(4.39686624 0.581518766 2.63510391e-26)
(5.10975549 0.620077274 -1.52106485e-26)
(5.88795057 0.666811425 -1.88193118e-26)
(6.73245028 0.722505219 -8.11335282e-25)
(7.64295797 0.787855078 -1.98964629e-24)
(8.61756573 0.863406875 -1.19101701e-24)
(9.65244674 0.949494528 -1.37045828e-24)
(10.7415651 1.04617729 -1.74764726e-24)
(11.8763993 1.15316775 0)
(13.0457533 1.26980752 2.62414316e-24)
(14.2351979 1.39511172 3.10578388e-24)
(15.4263617 1.52798218 3.46407055e-24)
(16.5994655 1.66680851 7.22501402e-24)
(17.7359955 1.80885523 7.51621249e-24)
(18.8168604 1.95158555 7.9382814e-24)
(19.8220676 2.09201816 8.35707157e-24)
(20.7351249 2.22833148 4.31625116e-24)
(21.5403483 2.34846415 -6.48181839e-25)
(22.2335932 2.45889356 0)
(22.7929543 2.53987099 -4.98278961e-24)
(23.2414752 2.6208575 -5.89356906e-24)
(23.5149588 2.65270589 0)
(23.5837904 2.66117953 -4.48004261e-24)
(23.5885839 2.68274907 -4.59543177e-24)
(23.5842138 2.69383864 0)
(23.5862093 2.63944262 -4.61077195e-25)
(23.5905393 2.61467744 0)
(23.5905358 2.60080514 -8.98376652e-24)
(23.602136 2.56537219 -1.67172595e-24)
(23.6098607 2.54066536 1.23669925e-23)
(23.6467299 2.49536841 -1.19455917e-24)
(23.6850353 2.45626919 -1.20464887e-24)
(23.7336702 2.42755969 -1.26534765e-23)
(23.774437 2.41387228 -1.15941336e-23)
(23.7784555 2.42817845 -1.29481573e-24)
(23.7961944 2.43349961 -1.31247409e-24)
(23.8957258 2.35826306 -6.28744085e-26)
(23.9737069 2.28247111 -1.58869376e-24)
(24.0027308 2.23270782 2.02507744e-23)
(24.0045271 2.20847731 2.56481553e-23)
(23.994629 2.19134004 1.73881316e-23)
(23.9882587 2.14972544 -2.31364443e-24)
(-0.0370379271 0.0161772068 0)
(-0.110701303 0.0481477354 -1.47042698e-28)
(-0.184678924 0.0800699807 1.52139963e-28)
(-0.258174896 0.111663785 8.92567078e-28)
(-0.330239506 0.142625206 1.64114763e-28)
(-0.399850929 0.172642523 1.69883312e-28)
(-0.465973079 0.201412016 -4.72794784e-27)
(-0.527590066 0.228673563 0)
(-0.583740609 0.254208043 3.63923768e-28)
(-0.633515796 0.277870285 -1.22693577e-26)
(-0.676067938 0.299551724 -1.5193182e-26)
(-0.710579828 0.319195554 1.92038646e-26)
(-0.736244515 0.336788697 3.92691804e-28)
(-0.75224719 0.352351707 -5.44436739e-26)
(-0.757743057 0.365936923 -6.43244229e-26)
(-0.751828195 0.377631092 -3.66412186e-26)
(-0.733556946 0.387513308 -3.7306534e-28)
(-0.701805146 0.39572892 -4.74258583e-26)
(-0.655456244 0.402405924 -5.30246771e-26)
(-0.593225105 0.407720938 2.85172259e-28)
(-0.513689612 0.411866381 -2.91673393e-28)
(-0.415299799 0.415060543 -8.86946884e-28)
(-0.296450353 0.417450152 -7.75432484e-26)
(-0.155206298 0.41932879 -1.89849299e-25)
(0.0106519642 0.421587115 -1.00384975e-25)
(0.19956801 0.424509341 -3.77868401e-29)
(0.421721642 0.427715075 -9.9855881e-26)
(0.675964825 0.431575241 -3.96480171e-28)
(0.965318621 0.437285523 6.2883305e-28)
(1.29306587 0.445418507 -1.37935999e-25)
(1.66231197 0.456394411 0)
(2.07647363 0.470886579 -3.21601827e-25)
(2.53908365 0.489620681 4.14651189e-27)
(3.05358309 0.513376502 3.88641998e-25)
(3.62325358 0.542991488 4.3632437e-25)
(4.25105524 0.579348998 4.92930091e-25)
(4.93957521 0.623323495 9.8991237e-27)