/*--------------------------------*- C++ -*----------------------------------*\
  =========                 |
  \\      /  F ield         | OpenFOAM: The Open Source CFD Toolbox
   \\    /   O peration     | Website:  https://openfoam.org
    \\  /    A nd           | Version:  8
     \\/     M anipulation  |
\*---------------------------------------------------------------------------*/
FoamFile
{
    version     2.0;
    format      ascii;
    class       volScalarField;
    location    "0.07";
    object      p;
}
// * * * * * * * * * * * * * * * * * * * * * * * * * * * * * * * * * * * * * //

dimensions      [1 -1 -2 0 0 0 0];

internalField   nonuniform List<scalar> 
42400
(
101556.753
101556.744
101556.734
101556.725
101556.716
101556.708
101556.7
101556.692
101556.684
101556.677
101556.669
101556.663
101556.656
101556.65
101556.645
101556.64
101556.635
101556.631
101556.627
101556.624
101556.621
101556.618
101556.617
101556.615
101556.614
101556.614
101556.614
101556.615
101556.617
101556.619
101556.622
101556.627
101556.632
101556.639
101556.647
101556.661
101556.683
101556.71
101556.731
101556.744
101556.757
101556.774
101556.802
101556.841
101556.885
101556.934
101556.988
101557.048
101557.113
101557.181
101557.266
101557.375
101557.474
101557.56
101557.666
101557.794
101557.933
101558.071
101558.211
101558.351
101558.488
101558.621
101558.752
101558.876
101558.978
101559.04
101559.071
101559.035
101558.903
101558.879
101558.746
101557.67
101557.726
101558.198
101556.372
101554.47
101553.138
101556.26
101561.124
101563.988
101556.425
101556.419
101556.411
101556.405
101556.398
101556.392
101556.386
101556.381
101556.376
101556.371
101556.367
101556.363
101556.36
101556.357
101556.354
101556.352
101556.351
101556.35
101556.349
101556.35
101556.35
101556.351
101556.353
101556.356
101556.358
101556.362
101556.366
101556.371
101556.376
101556.383
101556.389
101556.397
101556.409
101556.426
101556.447
101556.464
101556.473
101556.478
101556.49
101556.512
101556.537
101556.566
101556.597
101556.632
101556.67
101556.707
101556.758
101556.821
101556.899
101556.966
101557.018
101557.094
101557.187
101557.283
101557.386
101557.495
101557.61
101557.733
101557.867
101558.018
101558.187
101558.368
101558.555
101558.753
101558.965
101559.172
101559.399
101559.644
101559.803
101560.094
101560.631
101560.501
101560.711
101561.619
101562.353
101563.839
101567.955
101569.761
101569.483
101571.157
101556.055
101556.051
101556.046
101556.041
101556.037
101556.033
101556.03
101556.026
101556.024
101556.021
101556.02
101556.018
101556.017
101556.017
101556.017
101556.018
101556.02
101556.022
101556.025
101556.028
101556.032
101556.037
101556.043
101556.049
101556.056
101556.063
101556.071
101556.08
101556.09
101556.103
101556.119
101556.136
101556.151
101556.161
101556.169
101556.178
101556.194
101556.215
101556.238
101556.263
101556.289
101556.317
101556.343
101556.381
101556.436
101556.482
101556.511
101556.553
101556.61
101556.679
101556.75
101556.824
101556.904
101556.992
101557.089
101557.203
101557.336
101557.485
101557.65
101557.836
101558.053
101558.303
101558.591
101558.922
101559.307
101559.72
101560.18
101560.716
101561.295
101561.867
101562.878
101563.506
101564.042
101567.255
101569.053
101569.54
101571.222
101573.193
101575.59
101577.86
101555.654
101555.651
101555.648
101555.645
101555.642
101555.64
101555.638
101555.636
101555.635
101555.635
101555.635
101555.636
101555.637
101555.639
101555.642
101555.646
101555.65
101555.655
101555.661
101555.668
101555.676
101555.685
101555.694
101555.704
101555.715
101555.727
101555.741
101555.756
101555.771
101555.785
101555.799
101555.812
101555.827
101555.845
101555.867
101555.89
101555.913
101555.938
101555.963
101555.985
101556.018
101556.066
101556.102
101556.124
101556.16
101556.209
101556.261
101556.314
101556.372
101556.436
101556.507
101556.592
101556.692
101556.806
101556.935
101557.082
101557.252
101557.455
101557.693
101557.968
101558.288
101558.658
101559.093
101559.59
101560.19
101560.877
101561.633
101562.58
101563.46
101564.31
101565.931
101568.588
101569.868
101570.283
101571.948
101574.433
101576.51
101578.078
101579.828
101581.807
101555.224
101555.222
101555.219
101555.216
101555.214
101555.213
101555.212
101555.211
101555.211
101555.211
101555.213
101555.215
101555.219
101555.223
101555.228
101555.234
101555.241
101555.249
101555.259
101555.268
101555.278
101555.289
101555.302
101555.316
101555.333
101555.35
101555.368
101555.387
101555.407
101555.428
101555.451
101555.475
101555.5
101555.525
101555.552
101555.578
101555.602
101555.634
101555.68
101555.714
101555.735
101555.769
101555.814
101555.859
101555.906
101555.957
101556.013
101556.079
101556.156
101556.245
101556.347
101556.465
101556.604
101556.77
101556.968
101557.203
101557.48
101557.798
101558.166
101558.583
101559.068
101559.609
101560.263
101560.969
101561.778
101562.589
101563.088
101564.217
101566.806
101569.659
101570.796
101571.221
101573.014
101574.557
101576.034
101577.363
101579.492
101582.018
101584.542
101585.826
101554.757
101554.754
101554.751
101554.748
101554.746
101554.745
101554.744
101554.744
101554.745
101554.746
101554.748
101554.752
101554.756
101554.762
101554.769
101554.778
101554.787
101554.796
101554.808
101554.822
101554.839
101554.857
101554.876
101554.897
101554.918
101554.941
101554.964
101554.989
101555.016
101555.043
101555.071
101555.101
101555.13
101555.158
101555.192
101555.238
101555.274
101555.299
101555.335
101555.38
101555.424
101555.469
101555.518
101555.573
101555.635
101555.705
101555.785
101555.877
101555.986
101556.116
101556.272
101556.461
101556.687
101556.958
101557.279
101557.654
101558.09
101558.589
101559.16
101559.782
101560.502
101561.242
101562.111
101562.942
101564.05
101566.217
101569.153
101570.856
101571.16
101571.573
101573.303
101575.092
101576.693
101579.176
101581.654
101584.075
101585.682
101587.018
101588.337
101590.156
101554.239
101554.235
101554.232
101554.229
101554.227
101554.225
101554.225
101554.225
101554.227
101554.229
101554.233
101554.238
101554.243
101554.25
101554.259
101554.27
101554.283
101554.299
101554.316
101554.333
101554.352
101554.374
101554.396
101554.421
101554.447
101554.474
101554.503
101554.534
101554.566
101554.599
101554.631
101554.667
101554.715
101554.757
101554.786
101554.823
101554.871
101554.917
101554.965
101555.015
101555.069
101555.129
101555.194
101555.268
101555.353
101555.452
101555.57
101555.71
101555.879
101556.083
101556.33
101556.628
101556.984
101557.406
101557.903
101558.482
101559.154
101559.916
101560.779
101561.711
101562.753
101563.903
101565.298
101567.757
101569.552
101570.204
101571.111
101572.667
101574.345
101576.362
101578.206
101579.459
101581.031
101583.275
101585.278
101587.021
101588.49
101590.467
101592.891
101595.113
101553.641
101553.638
101553.634
101553.631
101553.629
101553.628
101553.628
101553.63
101553.632
101553.636
101553.642
101553.649
101553.659
101553.67
101553.683
101553.697
101553.713
101553.731
101553.751
101553.773
101553.797
101553.823
101553.851
101553.881
101553.913
101553.947
101553.982
101554.017
101554.054
101554.102
101554.15
101554.185
101554.223
101554.273
101554.324
101554.375
101554.429
101554.485
101554.546
101554.612
101554.686
101554.768
101554.861
101554.969
101555.096
101555.246
101555.425
101555.64
101555.898
101556.209
101556.584
101557.027
101557.548
101558.159
101558.871
101559.69
101560.622
101561.687
101562.868
101564.19
101565.482
101567.157
101568.53
101569.394
101570.914
101572.884
101574.322
101575.609
101577.419
101579.131
101580.709
101582.352
101584.287
101586.133
101587.882
101589.78
101591.85
101593.82
101595.609
101597.292
101552.945
101552.942
101552.939
101552.937
101552.936
101552.937
101552.938
101552.942
101552.947
101552.954
101552.963
101552.973
101552.985
101552.999
101553.016
101553.034
101553.055
101553.078
101553.103
101553.131
101553.16
101553.193
101553.227
101553.264
101553.3
101553.34
101553.39
101553.441
101553.482
101553.525
101553.579
101553.635
101553.691
101553.75
101553.812
101553.878
101553.95
101554.027
101554.113
101554.208
101554.316
101554.439
101554.581
101554.748
101554.943
101555.175
101555.449
101555.774
101556.159
101556.611
101557.134
101557.738
101558.431
101559.224
101560.133
101561.161
101562.268
101563.446
101564.797
101566.18
101567.673
101569.147
101570.66
101572.192
101573.673
101575.224
101576.742
101578.252
101579.487
101581.005
101583.012
101584.894
101587.075
101589.125
101591.129
101593.179
101595.23
101597.138
101599.187
101601.126
101552.123
101552.122
101552.12
101552.121
101552.123
101552.126
101552.131
101552.138
101552.147
101552.158
101552.17
101552.185
101552.203
101552.222
101552.245
101552.269
101552.296
101552.326
101552.359
101552.394
101552.431
101552.47
101552.512
101552.563
101552.615
101552.66
101552.71
101552.768
101552.83
101552.892
101552.957
101553.027
101553.1
101553.179
101553.265
101553.358
101553.46
101553.574
101553.702
101553.848
101554.015
101554.208
101554.433
101554.695
101555.001
101555.357
101555.771
101556.249
101556.795
101557.41
101558.095
101558.853
101559.672
101560.528
101561.363
101562.402
101564.044
101565.993
101567.752
101569.276
101570.603
101572.068
101573.603
101575.044
101576.73
101578.529
101580.493
101582.62
101584.914
101586.986
101588.676
101590.564
101592.165
101593.66
101595.229
101597.153
101599.17
101600.977
101603.064
101604.638
101551.147
101551.148
101551.15
101551.154
101551.16
101551.168
101551.177
101551.189
101551.203
101551.219
101551.238
101551.26
101551.285
101551.312
101551.341
101551.374
101551.41
101551.449
101551.49
101551.535
101551.588
101551.639
101551.689
101551.746
101551.808
101551.874
101551.941
101552.013
101552.088
101552.169
101552.254
101552.347
101552.447
101552.556
101552.676
101552.81
101552.96
101553.131
101553.325
101553.55
101553.809
101554.11
101554.458
101554.861
101555.327
101555.861
101556.471
101557.161
101557.938
101558.806
101559.76
101560.789
101561.904
101563.365
101565.353
101567.471
101568.785
101569.541
101570.736
101572.333
101573.733
101575.126
101576.801
101578.713
101580.644
101582.451
101584.22
101585.988
101587.643
101589.481
101591.514
101592.905
101594.424
101596.487
101598.578
101600.844
101602.407
101604.324
101606.764
101608.764
101549.983
101549.989
101549.996
101550.005
101550.016
101550.03
101550.046
101550.065
101550.086
101550.11
101550.138
101550.168
101550.201
101550.238
101550.278
101550.321
101550.368
101550.421
101550.475
101550.529
101550.589
101550.655
101550.724
101550.796
101550.872
101550.952
101551.037
101551.128
101551.224
101551.328
101551.44
101551.562
101551.697
101551.846
101552.014
101552.203
101552.419
101552.666
101552.951
101553.279
101553.659
101554.096
101554.6
101555.178
101555.836
101556.583
101557.427
101558.377
101559.434
101560.605
101561.903
101563.271
101564.739
101566.016
101566.94
101567.939
101569.441
101571.263
101573.007
101574.788
101576.501
101578.373
101580.593
101582.175
101583.505
101585.204
101586.885
101588.524
101590.28
101592.038
101593.783
101595.674
101597.584
101599.333
101601.217
101603.25
101605.91
101607.887
101609.859
101612.41
101548.589
101548.6
101548.614
101548.63
101548.649
101548.67
101548.695
101548.722
101548.753
101548.787
101548.825
101548.866
101548.91
101548.959
101549.013
101549.069
101549.127
101549.191
101549.259
101549.331
101549.407
101549.486
101549.571
101549.66
101549.754
101549.853
101549.96
101550.073
101550.196
101550.329
101550.475
101550.636
101550.816
101551.018
101551.247
101551.508
101551.805
101552.147
101552.539
101552.988
101553.501
101554.085
101554.747
101555.492
101556.325
101557.25
101558.271
101559.384
101560.587
101561.863
101563.213
101564.658
101566.174
101567.808
101569.607
101571.153
101572.442
101573.806
101575.18
101576.751
101578.404
101579.789
101581.024
101582.811
101585.106
101587.197
101589.066
101590.904
101592.919
101595.066
101597.098
101599.268
101601.554
101604.047
101605.68
101606.861
101608.51
101610.514
101612.494
101614.449
101546.922
101546.94
101546.963
101546.988
101547.016
101547.048
101547.083
101547.121
101547.163
101547.209
101547.259
101547.315
101547.373
101547.434
101547.501
101547.572
101547.648
101547.727
101547.811
101547.9
101547.993
101548.092
101548.196
101548.306
101548.424
101548.549
101548.684
101548.83
101548.989
101549.165
101549.359
101549.577
101549.821
101550.098
101550.413
101550.771
101551.178
101551.642
101552.168
101552.764
101553.433
101554.182
101555.013
101555.928
101556.927
101558.013
101559.185
101560.446
101561.799
101563.224
101564.683
101566.201
101567.749
101569.275
101570.768
101572.103
101573.338
101574.713
101576.489
101578.765
101581.127
101583.634
101586.517
101588.589
101590.061
101591.741
101593.659
101595.499
101597.186
101598.778
101600.583
101602.457
101604.149
101605.789
101607.337
101609.28
101611.46
101613.381
101614.756
101616.75
101544.934
101544.962
101544.996
101545.033
101545.072
101545.116
101545.163
101545.216
101545.272
101545.332
101545.397
101545.467
101545.541
101545.62
101545.704
101545.793
101545.886
101545.985
101546.09
101546.2
101546.316
101546.44
101546.571
101546.712
101546.863
101547.026
101547.204
101547.4
101547.616
101547.857
101548.126
101548.429
101548.772
101549.159
101549.598
101550.093
101550.651
101551.278
101551.978
101552.754
101553.608
101554.541
101555.552
101556.628
101557.741
101558.906
101560.109
101561.274
101562.749
101564.599
101566.425
101568.245
101570.136
101572.23
101574.347
101576.466
101578.628
101580.854
101582.699
101584.079
101585.52
101587.221
101589.07
101591
101592.938
101594.369
101595.537
101597.005
101598.91
101600.706
101602.491
101604.442
101606.383
101608.515
101610.915
101613.069
101614.872
101616.91
101619.21
101620.826
101542.582
101542.621
101542.669
101542.719
101542.772
101542.83
101542.892
101542.96
101543.032
101543.109
101543.191
101543.278
101543.371
101543.469
101543.572
101543.682
101543.797
101543.92
101544.049
101544.187
101544.333
101544.49
101544.658
101544.841
101545.04
101545.259
101545.5
101545.768
101546.068
101546.403
101546.781
101547.207
101547.686
101548.226
101548.831
101549.508
101550.261
101551.093
101552.008
101553.006
101554.09
101555.26
101556.519
101557.855
101559.244
101560.725
101562.7
101565.267
101567.127
101568.555
101570.067
101571.425
101573.019
101575
101576.993
101578.849
101580.451
101581.962
101583.394
101585.048
101586.96
101588.811
101590.892
101592.459
101593.437
101595.11
101598.327
101600.965
101602.879
101604.771
101606.683
101608.588
101610.654
101612.651
101614.671
101617.363
101619.913
101621.646
101623.854
101625.79
101539.83
101539.883
101539.946
101540.011
101540.079
101540.153
101540.232
101540.315
101540.404
101540.499
101540.599
101540.704
101540.816
101540.934
101541.059
101541.191
101541.331
101541.48
101541.639
101541.809
101541.993
101542.192
101542.409
101542.647
101542.911
101543.203
101543.53
101543.896
101544.308
101544.771
101545.293
101545.879
101546.536
101547.27
101548.087
101548.99
101549.983
101551.068
101552.245
101553.512
101554.866
101556.302
101557.813
101559.36
101561.085
101562.693
101564.087
101565.289
101566.715
101568.35
101569.805
101571.409
101573.249
101575.08
101577.197
101579.681
101581.799
101583.995
101586.341
101588.244
101589.835
101591.619
101593.457
101595.677
101598.425
101600.466
101601.855
101603.306
101605.392
101608.108
101610.794
101613.187
101615.496
101617.383
101618.989
101621.409
101623.294
101625.151
101626.627
101628.6
101536.663
101536.731
101536.81
101536.891
101536.976
101537.065
101537.16
101537.26
101537.365
101537.477
101537.594
101537.718
101537.848
101537.986
101538.132
101538.287
101538.453
101538.631
101538.823
101539.031
101539.258
101539.507
101539.782
101540.088
101540.429
101540.812
101541.241
101541.723
101542.264
101542.87
101543.548
101544.302
101545.138
101546.058
101547.065
101548.157
101549.334
101550.592
101551.926
101553.329
101554.79
101556.309
101557.876
101559.532
101561.117
101562.772
101564.077
101565.585
101567.901
101570.083
101572.323
101574.746
101577
101578.335
101579.946
101581.918
101583.909
101586.098
101588.223
101590.321
101592.228
101594.485
101596.88
101598.821
101600.576
101602.299
101604.452
101607.176
101609.418
101611.297
101613.279
101614.992
101616.1
101618.339
101621.7
101623.309
101625.716
101628.464
101630.681
101633.209
101533.142
101533.226
101533.322
101533.42
101533.52
101533.626
101533.736
101533.852
101533.973
101534.1
101534.234
101534.375
101534.525
101534.683
101534.852
101535.034
101535.229
101535.441
101535.673
101535.928
101536.209
101536.522
101536.872
101537.263
101537.703
101538.197
101538.752
101539.374
101540.07
101540.846
101541.706
101542.656
101543.699
101544.836
101546.069
101547.397
101548.819
101550.33
101551.929
101553.61
101555.363
101557.217
101559.171
101561.165
101563.232
101565.42
101567.463
101569.068
101570.491
101572.004
101573.479
101574.917
101576.527
101578.818
101580.633
101582.125
101584.876
101587.836
101590.495
101592.701
101594.634
101596.602
101598.456
101600.48
101602.633
101604.767
101606.6
101608.407
101610.796
101613.362
101615.953
101618.676
101620.471
101622.324
101625.081
101627.692
101630.025
101632.051
101634.197
101637.362
101529.38
101529.479
101529.593
101529.708
101529.824
101529.946
101530.072
101530.204
101530.343
101530.488
101530.641
101530.804
101530.977
101531.163
101531.363
101531.58
101531.818
101532.08
101532.37
101532.692
101533.052
101533.456
101533.909
101534.419
101534.991
101535.632
101536.348
101537.145
101538.028
101539.001
101540.067
101541.229
101542.486
101543.839
101545.291
101546.845
101548.499
101550.221
101552.023
101553.886
101555.749
101557.542
101559.362
101561.307
101563.27
101565.288
101567.42
101569.568
101571.712
101573.752
101575.474
101577.73
101580.501
101582.66
101583.937
101586.102
101588.931
101591.403
101592.939
101594.454
101597.392
101599.619
101601.631
101603.828
101605.852
101607.922
101610.204
101612.5
101614.698
101616.948
101619.337
101621.686
101623.959
101626.24
101628.923
101632.09
101635.26
101637.013
101638.763
101640.27
101600.61
101600.612
101600.613
101600.617
101600.621
101600.626
101600.632
101600.64
101600.648
101600.658
101600.67
101600.682
101600.696
101600.711
101600.727
101600.745
101600.764
101600.785
101600.807
101600.831
101600.856
101600.884
101600.913
101600.944
101600.977
101601.012
101601.049
101601.089
101601.132
101601.177
101601.224
101601.275
101601.329
101601.387
101601.448
101601.514
101601.584
101601.659
101601.74
101601.825
101601.917
101602.014
101602.119
101602.232
101602.353
101602.482
101602.621
101602.77
101602.93
101603.102
101603.285
101603.48
101603.687
101603.905
101604.135
101604.376
101604.625
101604.881
101605.141
101605.404
101605.662
101605.907
101606.121
101606.264
101606.324
101606.31
101606.203
101605.971
101605.602
101605.045
101604.355
101603.564
101602.657
101601.657
101600.543
101599.224
101597.7
101595.787
101593.102
101589.447
101596.334
101596.335
101596.336
101596.338
101596.341
101596.344
101596.348
101596.353
101596.358
101596.364
101596.37
101596.378
101596.386
101596.394
101596.404
101596.414
101596.425
101596.437
101596.45
101596.463
101596.478
101596.493
101596.51
101596.527
101596.546
101596.566
101596.587
101596.61
101596.633
101596.659
101596.686
101596.715
101596.746
101596.779
101596.815
101596.853
101596.894
101596.939
101596.987
101597.04
101597.096
101597.156
101597.221
101597.292
101597.368
101597.451
101597.542
101597.64
101597.746
101597.861
101597.985
101598.118
101598.26
101598.411
101598.571
101598.738
101598.909
101599.081
101599.246
101599.395
101599.517
101599.599
101599.624
101599.574
101599.401
101599.075
101598.588
101597.925
101597.083
101596.074
101594.901
101593.581
101592.107
101590.406
101588.398
101586.048
101582.214
101577.789
101574.214
101570.185
101591.986
101591.987
101591.988
101591.989
101591.99
101591.991
101591.992
101591.994
101591.995
101591.996
101591.998
101591.999
101592.001
101592.003
101592.004
101592.006
101592.008
101592.01
101592.012
101592.013
101592.015
101592.017
101592.019
101592.021
101592.023
101592.025
101592.028
101592.03
101592.033
101592.035
101592.038
101592.042
101592.045
101592.05
101592.054
101592.06
101592.066
101592.073
101592.082
101592.092
101592.104
101592.119
101592.135
101592.154
101592.177
101592.202
101592.23
101592.263
101592.3
101592.342
101592.388
101592.438
101592.492
101592.549
101592.605
101592.658
101592.704
101592.736
101592.746
101592.719
101592.636
101592.478
101592.224
101591.848
101591.325
101590.619
101589.709
101588.587
101587.265
101585.765
101584.095
101582.214
101579.997
101577.289
101573.895
101569.674
101565.034
101560.561
101555.853
101551.699
101587.643
101587.644
101587.644
101587.644
101587.644
101587.643
101587.641
101587.639
101587.636
101587.633
101587.629
101587.625
101587.62
101587.614
101587.607
101587.6
101587.592
101587.583
101587.573
101587.563
101587.551
101587.539
101587.525
101587.51
101587.494
101587.477
101587.459
101587.44
101587.419
101587.397
101587.374
101587.35
101587.323
101587.296
101587.267
101587.237
101587.205
101587.172
101587.137
101587.102
101587.066
101587.028
101586.99
101586.951
101586.911
101586.87
101586.828
101586.784
101586.739
101586.692
101586.642
101586.588
101586.529
101586.461
101586.382
101586.287
101586.167
101586.01
101585.803
101585.529
101585.165
101584.689
101584.081
101583.317
101582.374
101581.227
101579.857
101578.266
101576.471
101574.487
101572.295
101569.79
101566.772
101563.029
101558.574
101553.68
101548.63
101543.561
101537.923
101531.158
101583.384
101583.385
101583.385
101583.385
101583.383
101583.38
101583.376
101583.37
101583.364
101583.356
101583.347
101583.336
101583.325
101583.311
101583.297
101583.28
101583.262
101583.243
101583.221
101583.198
101583.173
101583.145
101583.116
101583.084
101583.05
101583.014
101582.975
101582.934
101582.89
101582.843
101582.792
101582.739
101582.683
101582.623
101582.559
101582.492
101582.421
101582.346
101582.267
101582.185
101582.097
101582.006
101581.909
101581.807
101581.699
101581.586
101581.465
101581.337
101581.201
101581.054
101580.896
101580.724
101580.536
101580.327
101580.091
101579.819
101579.499
101579.116
101578.653
101578.092
101577.416
101576.603
101575.631
101574.478
101573.118
101571.526
101569.686
101567.6
101565.276
101562.694
101559.766
101556.34
101552.237
101547.346
101541.54
101534.754
101527.425
101520.687
101514.94
101504.391
101579.292
101579.294
101579.294
101579.293
101579.29
101579.285
101579.279
101579.27
101579.26
101579.248
101579.234
101579.218
101579.2
101579.18
101579.158
101579.133
101579.106
101579.076
101579.043
101579.008
101578.97
101578.929
101578.885
101578.837
101578.786
101578.731
101578.673
101578.61
101578.544
101578.473
101578.397
101578.316
101578.231
101578.14
101578.043
101577.941
101577.833
101577.719
101577.597
101577.469
101577.333
101577.189
101577.036
101576.874
101576.702
101576.519
101576.324
101576.115
101575.892
101575.652
101575.393
101575.111
101574.803
101574.463
101574.079
101573.64
101573.135
101572.547
101571.862
101571.059
101570.116
101569.008
101567.708
101566.186
101564.412
101562.36
101560.013
101557.36
101554.402
101551.109
101547.377
101543.034
101537.912
101531.788
101524.172
101515.82
101509.463
101503.162
101492.376
101478.009
101575.447
101575.449
101575.45
101575.448
101575.444
101575.438
101575.43
101575.419
101575.406
101575.391
101575.372
101575.352
101575.328
101575.302
101575.273
101575.241
101575.206
101575.167
101575.125
101575.079
101575.03
101574.977
101574.919
101574.858
101574.792
101574.721
101574.645
101574.564
101574.478
101574.386
101574.288
101574.183
101574.072
101573.954
101573.829
101573.696
101573.555
101573.406
101573.248
101573.079
101572.901
101572.711
101572.51
101572.296
101572.069
101571.827
101571.568
101571.291
101570.995
101570.675
101570.33
101569.955
101569.543
101569.085
101568.569
101567.985
101567.318
101566.554
101565.674
101564.659
101563.486
101562.133
101560.576
101558.789
101556.749
101554.444
101551.885
101548.994
101545.671
101541.889
101537.536
101532.3
101526.099
101520.629
101515.213
101506.263
101493.27
101480.381
101467.906
101458.833
101571.917
101571.92
101571.921
101571.92
101571.915
101571.908
101571.899
101571.886
101571.871
101571.853
101571.831
101571.807
101571.779
101571.749
101571.714
101571.676
101571.635
101571.589
101571.539
101571.486
101571.427
101571.365
101571.297
101571.224
101571.147
101571.063
101570.974
101570.879
101570.777
101570.669
101570.553
101570.431
101570.3
101570.161
101570.014
101569.857
101569.691
101569.515
101569.328
101569.13
101568.919
101568.696
101568.458
101568.206
101567.937
101567.651
101567.345
101567.019
101566.668
101566.292
101565.887
101565.447
101564.966
101564.435
101563.846
101563.191
101562.455
101561.626
101560.684
101559.608
101558.373
101556.932
101555.227
101553.191
101550.745
101548.363
101546.125
101543.021
101538.995
101534.668
101529.804
101524.379
101519.344
101512.322
101501.314
101490.403
101479.775
101468.923
101458.045
101448.734
101568.762
101568.765
101568.767
101568.765
101568.761
101568.753
101568.743
101568.729
101568.713
101568.692
101568.669
101568.642
101568.612
101568.577
101568.54
101568.498
101568.451
101568.401
101568.346
101568.287
101568.223
101568.153
101568.079
101567.998
101567.912
101567.82
101567.722
101567.617
101567.504
101567.385
101567.258
101567.123
101566.979
101566.826
101566.664
101566.493
101566.31
101566.117
101565.912
101565.695
101565.465
101565.221
101564.963
101564.689
101564.398
101564.088
101563.759
101563.408
101563.032
101562.627
101562.188
101561.709
101561.179
101560.589
101559.928
101559.181
101558.334
101557.365
101556.251
101555.047
101553.768
101552.36
101550.82
101549.116
101547.127
101544.329
101540.508
101536.847
101533.578
101530.092
101526.303
101521.589
101514.181
101505.228
101496.516
101487.102
101476.949
101466.207
101455.214
101446.769
101566.02
101566.024
101566.025
101566.024
101566.02
101566.012
101566.001
101565.987
101565.969
101565.948
101565.924
101565.895
101565.863
101565.828
101565.788
101565.744
101565.695
101565.643
101565.585
101565.523
101565.455
101565.383
101565.304
101565.22
101565.13
101565.034
101564.931
101564.821
101564.704
101564.58
101564.448
101564.307
101564.158
101563.999
101563.831
101563.653
101563.463
101563.262
101563.049
101562.824
101562.586
101562.334
101562.067
101561.784
101561.486
101561.17
101560.835
101560.481
101560.1
101559.687
101559.243
101558.766
101558.254
101557.705
101557.118
101556.486
101555.796
101555.039
101554.204
101553.19
101551.921
101550.435
101548.681
101546.689
101544.577
101542.267
101539.645
101536.708
101533.079
101528.562
101523.3
101517.802
101511.796
101505.051
101497.74
101489.252
101480.009
101470.467
101462.018
101453.463
101563.714
101563.717
101563.719
101563.717
101563.713
101563.705
101563.694
101563.679
101563.662
101563.64
101563.615
101563.587
101563.555
101563.518
101563.478
101563.434
101563.385
101563.332
101563.274
101563.211
101563.144
101563.071
101562.993
101562.909
101562.819
101562.723
101562.621
101562.512
101562.396
101562.273
101562.142
101562.003
101561.856
101561.7
101561.535
101561.36
101561.175
101560.98
101560.772
101560.553
101560.321
101560.078
101559.823
101559.554
101559.27
101558.97
101558.654
101558.32
101557.966
101557.588
101557.183
101556.746
101556.269
101555.744
101555.162
101554.535
101553.858
101553.102
101552.255
101551.29
101550.193
101548.938
101547.506
101545.887
101544.054
101541.99
101539.66
101536.974
101533.875
101530.323
101526.275
101521.648
101516.436
101510.584
101503.997
101497.082
101488.752
101480.571
101472.15
101463.208
101561.842
101561.845
101561.846
101561.844
101561.839
101561.831
101561.82
101561.805
101561.788
101561.767
101561.742
101561.714
101561.683
101561.648
101561.609
101561.566
101561.518
101561.467
101561.411
101561.351
101561.286
101561.216
101561.141
101561.061
101560.975
101560.883
101560.785
101560.681
101560.57
101560.453
101560.329
101560.198
101560.058
101559.911
101559.756
101559.592
101559.419
101559.236
101559.043
101558.839
101558.623
101558.393
101558.153
101557.905
101557.645
101557.373
101557.087
101556.786
101556.468
101556.134
101555.783
101555.412
101555.017
101554.595
101554.142
101553.651
101553.115
101552.524
101551.864
101551.12
101550.273
101549.305
101548.196
101546.924
101545.464
101543.79
101541.87
101539.665
101537.133
101534.236
101530.933
101527.167
101522.872
101517.968
101512.314
101505.907
101499.073
101491.252
101482.788
101475.248
101560.388
101560.39
101560.39
101560.387
101560.381
101560.373
101560.361
101560.347
101560.33
101560.31
101560.286
101560.259
101560.229
101560.196
101560.159
101560.119
101560.075
101560.027
101559.975
101559.919
101559.858
101559.794
101559.724
101559.65
101559.571
101559.487
101559.397
101559.302
101559.202
101559.095
101558.982
101558.863
101558.738
101558.606
101558.467
101558.322
101558.17
101558.011
101557.846
101557.673
101557.49
101557.297
101557.091
101556.874
101556.654
101556.432
101556.202
101555.962
101555.712
101555.453
101555.184
101554.905
101554.613
101554.305
101553.977
101553.626
101553.245
101552.828
101552.365
101551.845
101551.254
101550.575
101549.792
101548.884
101547.828
101546.601
101545.175
101543.518
101541.597
101539.371
101536.802
101533.829
101530.37
101526.369
101521.729
101516.394
101510.629
101504.007
101496.35
101488.793
101559.31
101559.31
101559.308
101559.303
101559.297
101559.288
101559.276
101559.262
101559.245
101559.225
101559.203
101559.178
101559.151
101559.12
101559.087
101559.05
101559.01
101558.967
101558.921
101558.871
101558.817
101558.759
101558.698
101558.633
101558.564
101558.49
101558.413
101558.33
101558.243
101558.152
101558.055
101557.954
101557.848
101557.737
101557.62
101557.499
101557.372
101557.24
101557.103
101556.962
101556.82
101556.676
101556.525
101556.364
101556.189
101556
101555.818
101555.643
101555.466
101555.288
101555.107
101554.924
101554.738
101554.55
101554.356
101554.153