/*--------------------------------*- C++ -*----------------------------------*\
  =========                 |
  \\      /  F ield         | OpenFOAM: The Open Source CFD Toolbox
   \\    /   O peration     | Website:  https://openfoam.org
    \\  /    A nd           | Version:  8
     \\/     M anipulation  |
\*---------------------------------------------------------------------------*/
FoamFile
{
    version     2.0;
    format      ascii;
    class       volScalarField;
    location    "0.07";
    object      p_rgh;
}
// * * * * * * * * * * * * * * * * * * * * * * * * * * * * * * * * * * * * * //

dimensions      [1 -1 -2 0 0 0 0];

internalField   nonuniform List<scalar> 
42400
(
101555.648
101555.639
101555.63
101555.621
101555.612
101555.603
101555.595
101555.587
101555.579
101555.571
101555.564
101555.557
101555.55
101555.544
101555.538
101555.533
101555.527
101555.523
101555.518
101555.515
101555.511
101555.508
101555.505
101555.503
101555.502
101555.5
101555.5
101555.5
101555.5
101555.502
101555.504
101555.507
101555.512
101555.517
101555.524
101555.536
101555.557
101555.583
101555.602
101555.613
101555.625
101555.64
101555.667
101555.704
101555.746
101555.793
101555.845
101555.903
101555.966
101556.032
101556.115
101556.221
101556.319
101556.402
101556.506
101556.632
101556.768
101556.903
101557.04
101557.178
101557.311
101557.44
101557.567
101557.686
101557.781
101557.837
101557.861
101557.812
101557.69
101557.659
101557.446
101556.468
101556.705
101556.904
101555.106
101553.443
101552.118
101554.468
101559.116
101561.954
101555.31
101555.304
101555.296
101555.29
101555.283
101555.277
101555.271
101555.266
101555.261
101555.256
101555.251
101555.247
101555.243
101555.24
101555.237
101555.235
101555.233
101555.231
101555.231
101555.23
101555.23
101555.231
101555.232
101555.234
101555.236
101555.239
101555.242
101555.246
101555.25
101555.256
101555.261
101555.268
101555.278
101555.295
101555.314
101555.33
101555.337
101555.342
101555.352
101555.372
101555.397
101555.423
101555.453
101555.487
101555.522
101555.558
101555.607
101555.669
101555.745
101555.809
101555.86
101555.934
101556.025
101556.119
101556.22
101556.327
101556.44
101556.562
101556.694
101556.843
101557.011
101557.189
101557.374
101557.569
101557.774
101557.977
101558.202
101558.431
101558.591
101558.9
101559.35
101559.2
101559.508
101560.239
101560.712
101562.369
101566.3
101567.768
101567.922
101569.548
101554.933
101554.928
101554.923
101554.919
101554.915
101554.911
101554.907
101554.904
101554.901
101554.898
101554.896
101554.895
101554.894
101554.893
101554.893
101554.894
101554.895
101554.896
101554.899
101554.902
101554.905
101554.909
101554.914
101554.92
101554.926
101554.933
101554.94
101554.948
101554.957
101554.969
101554.983
101555
101555.014
101555.023
101555.029
101555.037
101555.052
101555.072
101555.093
101555.116
101555.142
101555.167
101555.192
101555.228
101555.282
101555.325
101555.353
101555.393
101555.448
101555.515
101555.583
101555.656
101555.734
101555.819
101555.915
101556.027
101556.158
101556.305
101556.469
101556.655
101556.871
101557.121
101557.409
101557.739
101558.121
101558.53
101558.991
101559.52
101560.092
101560.685
101561.676
101562.267
101562.953
101566.158
101567.749
101568.021
101569.514
101571.497
101574.025
101576.212
101554.529
101554.525
101554.522
101554.519
101554.516
101554.514
101554.512
101554.51
101554.509
101554.508
101554.508
101554.509
101554.51
101554.512
101554.514
101554.517
101554.521
101554.526
101554.532
101554.538
101554.545
101554.553
101554.562
101554.571
101554.582
101554.593
101554.605
101554.62
101554.634
101554.647
101554.66
101554.672
101554.686
101554.703
101554.724
101554.745
101554.767
101554.791
101554.814
101554.835
101554.866
101554.912
101554.947
101554.966
101555
101555.047
101555.097
101555.148
101555.203
101555.265
101555.334
101555.415
101555.512
101555.623
101555.749
101555.893
101556.061
101556.261
101556.498
101556.772
101557.091
101557.462
101557.899
101558.4
101559.002
101559.684
101560.444
101561.378
101562.288
101563.18
101564.784
101567.407
101568.55
101568.903
101570.668
101573.042
101574.999
101576.535
101578.254
101580.233
101554.098
101554.095
101554.092
101554.09
101554.088
101554.086
101554.085
101554.084
101554.084
101554.084
101554.086
101554.088
101554.091
101554.095
101554.099
101554.105
101554.112
101554.12
101554.128
101554.137
101554.147
101554.157
101554.169
101554.183
101554.199
101554.215
101554.233
101554.25
101554.269
101554.289
101554.312
101554.335
101554.358
101554.382
101554.407
101554.432
101554.455
101554.486
101554.53
101554.563
101554.582
101554.614
101554.657
101554.7
101554.745
101554.793
101554.847
101554.91
101554.984
101555.07
101555.169
101555.284
101555.419
101555.581
101555.774
101556.004
101556.275
101556.589
101556.951
101557.363
101557.845
101558.386
101559.039
101559.746
101560.575
101561.409
101561.955
101563.022
101565.443
101568.295
101569.452
101569.867
101571.594
101573.18
101574.722
101576.1
101578.165
101580.593
101583.028
101584.525
101553.635
101553.632
101553.628
101553.626
101553.624
101553.622
101553.622
101553.621
101553.622
101553.623
101553.625
101553.628
101553.632
101553.638
101553.645
101553.653
101553.661
101553.67
101553.681
101553.695
101553.711
101553.728
101553.747
101553.767
101553.787
101553.809
101553.832
101553.856
101553.881
101553.907
101553.935
101553.963
101553.992
101554.018
101554.051
101554.096
101554.131
101554.154
101554.188
101554.232
101554.274
101554.318
101554.365
101554.418
101554.478
101554.546
101554.623
101554.713
101554.819
101554.946
101555.099
101555.283
101555.505
101555.771
101556.087
101556.455
101556.883
101557.371
101557.93
101558.54
101559.246
101559.974
101560.835
101561.63
101562.67
101564.806
101567.705
101569.479
101569.963
101570.394
101571.906
101573.649
101575.358
101577.681
101580.053
101582.462
101584.112
101585.579
101587.17
101589.081
101553.124
101553.12
101553.116
101553.114
101553.111
101553.11
101553.109
101553.11
101553.111
101553.113
101553.117
101553.121
101553.127
101553.133
101553.141
101553.152
101553.165
101553.18
101553.196
101553.213
101553.232
101553.253
101553.275
101553.298
101553.324
101553.35
101553.379
101553.408
101553.44
101553.472
101553.502
101553.537
101553.584
101553.625
101553.653
101553.689
101553.735
101553.78
101553.826
101553.875
101553.928
101553.986
101554.05
101554.122
101554.205
101554.303
101554.418
101554.557
101554.724
101554.926
101555.17
101555.465
101555.819
101556.236
101556.727
101557.3
101557.962
101558.711
101559.557
101560.465
101561.487
101562.587
101563.966
101566.505
101568.408
101569.098
101569.945
101571.412
101573.07
101574.961
101576.724
101578.224
101579.934
101582.042
101583.997
101585.775
101587.379
101589.403
101591.664
101593.78
101552.538
101552.534
101552.53
101552.527
101552.525
101552.524
101552.524
101552.525
101552.528
101552.532
101552.537
101552.544
101552.553
101552.564
101552.577
101552.59
101552.606
101552.623
101552.643
101552.664
101552.688
101552.713
101552.741
101552.77
101552.801
101552.834
101552.869
101552.903
101552.939
101552.986
101553.033
101553.067
101553.104
101553.153
101553.203
101553.253
101553.305
101553.36
101553.42
101553.485
101553.556
101553.637
101553.729
101553.836
101553.961
101554.11
101554.288
101554.502
101554.76
101555.07
101555.443
101555.885
101556.405
101557.015
101557.726
101558.543
101559.473
101560.534
101561.709
101563.021
101564.34
101566.086
101567.427
101568.233
101569.721
101571.628
101573.115
101574.512
101576.365
101578.068
101579.673
101581.332
101583.187
101585.012
101586.772
101588.657
101590.665
101592.65
101594.494
101596.253
101551.856
101551.853
101551.85
101551.848
101551.847
101551.847
101551.849
101551.852
101551.857
101551.864
101551.872
101551.883
101551.894
101551.908
101551.924
101551.942
101551.963
101551.985
101552.01
101552.037
101552.066
101552.098
101552.132
101552.167
101552.203
101552.242
101552.291
101552.342
101552.382
101552.424
101552.477
101552.532
101552.587
101552.644
101552.705
101552.771
101552.841
101552.917
101553.001
101553.095
101553.201
101553.323
101553.464
101553.629
101553.824
101554.054
101554.328
101554.653
101555.037
101555.489
101556.012
101556.617
101557.312
101558.106
101559.015
101560.042
101561.163
101562.369
101563.696
101565.081
101566.599
101568.067
101569.599
101571.14
101572.62
101574.199
101575.733
101577.218
101578.474
101579.973
101581.871
101583.715
101585.89
101587.922
101589.921
101591.911
101593.942
101595.962
101598.105
101600.107
101551.053
101551.051
101551.05
101551.05
101551.052
101551.055
101551.06
101551.067
101551.076
101551.086
101551.099
101551.113
101551.13
101551.15
101551.172
101551.196
101551.223
101551.252
101551.284
101551.319
101551.356
101551.394
101551.436
101551.486
101551.537
101551.582
101551.63
101551.688
101551.749
101551.81
101551.874
101551.943
101552.015
101552.093
101552.177
101552.269
101552.37
101552.482
101552.609
101552.753
101552.919
101553.11
101553.333
101553.594
101553.898
101554.253
101554.666
101555.143
101555.689
101556.306
101556.994
101557.757
101558.583
101559.454
101560.322
101561.334
101562.903
101564.842
101566.623
101568.093
101569.424
101570.942
101572.417
101573.808
101575.477
101577.254
101579.168
101581.21
101583.373
101585.469
101587.351
101589.265
101590.877
101592.464
101594.146
101596.235
101598.27
101599.995
101602.092
101603.655
101550.097
101550.098
101550.101
101550.104
101550.11
101550.118
101550.127
101550.139
101550.153
101550.169
101550.188
101550.209
101550.234
101550.26
101550.29
101550.323
101550.358
101550.397
101550.437
101550.482
101550.534
101550.586
101550.635
101550.691
101550.753
101550.818
101550.885
101550.956
101551.031
101551.111
101551.196
101551.287
101551.386
101551.494
101551.613
101551.746
101551.895
101552.065
101552.258
101552.481
101552.738
101553.037
101553.383
101553.784
101554.247
101554.778
101555.384
101556.07
101556.842
101557.702
101558.647
101559.668
101560.769
101562.149
101564.056
101566.208
101567.571
101568.38
101569.585
101571.205
101572.663
101574.118
101575.875
101577.801
101579.682
101581.447
101583.199
101584.952
101586.608
101588.422
101590.375
101591.897
101593.536
101595.529
101597.609
101599.697
101601.314
101603.362
101605.688
101607.582
101548.957
101548.962
101548.97
101548.979
101548.99
101549.004
101549.02
101549.038
101549.06
101549.084
101549.111
101549.141
101549.174
101549.211
101549.251
101549.293
101549.34
101549.394
101549.447
101549.501
101549.561
101549.627
101549.695
101549.767
101549.843
101549.923
101550.008
101550.098
101550.195
101550.298
101550.41
101550.532
101550.667
101550.816
101550.983
101551.172
101551.388
101551.635
101551.919
101552.248
101552.627
101553.064
101553.567
101554.143
101554.8
101555.544
101556.385
101557.33
101558.382
101559.546
101560.83
101562.194
101563.717
101565.126
101566.131
101567.156
101568.645
101570.397
101572.12
101573.839
101575.509
101577.361
101579.467
101581.067
101582.518
101584.254
101585.928
101587.557
101589.275
101591.016
101592.774
101594.64
101596.537
101598.335
101600.162
101602.35
101604.998
101606.934
101609.024
101611.512
101547.587
101547.598
101547.613
101547.629
101547.647
101547.669
101547.693
101547.721
101547.751
101547.786
101547.823
101547.864
101547.908
101547.957
101548.011
101548.067
101548.125
101548.189
101548.257
101548.329
101548.405
101548.485
101548.569
101548.658
101548.752
101548.852
101548.958
101549.072
101549.195
101549.329
101549.475
101549.637
101549.817
101550.02
101550.25
101550.512
101550.811
101551.154
101551.548
101551.999
101552.515
101553.102
101553.767
101554.516
101555.353
101556.283
101557.309
101558.429
101559.639
101560.926
101562.291
101563.736
101565.227
101566.844
101568.619
101570.143
101571.458
101572.839
101574.226
101575.803
101577.446
101578.91
101580.291
101582.04
101584.177
101586.14
101587.903
101589.756
101591.833
101593.928
101595.976
101598.189
101600.477
101602.88
101604.66
101606.045
101607.842
101609.885
101611.789
101613.809
101545.946
101545.964
101545.987
101546.012
101546.04
101546.071
101546.106
101546.145
101546.187
101546.233
101546.283
101546.338
101546.397
101546.458
101546.524
101546.596
101546.671
101546.751
101546.835
101546.924
101547.017
101547.116
101547.22
101547.33
101547.448
101547.573
101547.708
101547.855
101548.014
101548.19
101548.385
101548.603
101548.848
101549.125
101549.441
101549.799
101550.208
101550.674
101551.202
101551.799
101552.472
101553.223
101554.058
101554.978
101555.984
101557.076
101558.253
101559.517
101560.866
101562.287
101563.75
101565.292
101566.842
101568.349
101569.832
101571.175
101572.457
101573.828
101575.452
101577.519
101579.794
101582.21
101584.91
101587.03
101588.759
101590.645
101592.753
101594.624
101596.321
101598.113
101599.97
101601.737
101603.4
101605.03
101606.63
101608.518
101610.637
101612.586
101614.279
101616.337
101543.983
101544.011
101544.044
101544.081
101544.121
101544.164
101544.212
101544.264
101544.32
101544.38
101544.445
101544.515
101544.589
101544.668
101544.752
101544.841
101544.935
101545.033
101545.138
101545.248
101545.364
101545.488
101545.619
101545.759
101545.91
101546.073
101546.251
101546.446
101546.662
101546.902
101547.171
101547.474
101547.816
101548.203
101548.641
101549.136
101549.693
101550.32
101551.019
101551.795
101552.651
101553.586
101554.6
101555.684
101556.817
101558.012
101559.251
101560.469
101561.903
101563.592
101565.302
101567.098
101569.009
101571.092
101573.167
101575.237
101577.359
101579.546
101581.517
101583.155
101584.681
101586.332
101588.137
101590.076
101591.923
101593.396
101594.703
101596.251
101598.164
101599.951
101601.703
101603.631
101605.623
101607.781
101610.054
101612.113
101614.021
101616.157
101618.165
101619.789
101541.655
101541.695
101541.742
101541.792
101541.845
101541.903
101541.966
101542.033
101542.105
101542.182
101542.264
101542.351
101542.444
101542.542
101542.645
101542.755
101542.871
101542.993
101543.122
101543.26
101543.406
101543.563
101543.731
101543.914
101544.113
101544.331
101544.572
101544.839
101545.138
101545.473
101545.85
101546.274
101546.753
101547.291
101547.894
101548.568
101549.318
101550.146
101551.055
101552.046
101553.119
101554.272
101555.503
101556.794
101558.129
101559.631
101561.626
101564.053
101565.992
101567.681
101569.392
101570.844
101572.406
101574.308
101576.179
101577.945
101579.531
101581.046
101582.538
101584.174
101586.015
101587.871
101589.912
101591.511
101592.716
101594.661
101597.582
101599.938
101601.781
101603.718
101605.673
101607.684
101609.749
101611.699
101613.839
101616.433
101618.894
101620.815
101622.886
101624.837
101538.928
101538.981
101539.043
101539.108
101539.177
101539.251
101539.329
101539.413
101539.502
101539.597
101539.697
101539.803
101539.915
101540.033
101540.158
101540.291
101540.431
101540.58
101540.739
101540.91
101541.094
101541.293
101541.51
101541.749
101542.012
101542.305
101542.632
101542.998
101543.41
101543.873
101544.394
101544.98
101545.636
101546.37
101547.185
101548.088
101549.081
101550.166
101551.345
101552.616
101553.981
101555.433
101556.97
101558.556
101560.326
101561.961
101563.363
101564.658
101566.11
101567.696
101569.149
101570.739
101572.568
101574.371
101576.507
101578.906
101580.948
101583.12
101585.364
101587.327
101589.102
101590.878
101592.677
101594.851
101597.375
101599.326
101600.891
101602.616
101604.83
101607.474
101610.038
101612.346
101614.474
101616.261
101618.053
101620.652
101622.675
101624.452
101625.949
101628.025
101535.784
101535.851
101535.93
101536.012
101536.096
101536.186
101536.281
101536.381
101536.487
101536.599
101536.716
101536.84
101536.971
101537.11
101537.257
101537.413
101537.579
101537.758
101537.95
101538.159
101538.387
101538.638
101538.914
101539.222
101539.565
101539.948
101540.379
101540.863
101541.406
101542.015
101542.696
101543.454
101544.293
101545.217
101546.229
101547.327
101548.511
101549.776
101551.117
101552.526
101553.993
101555.509
101557.068
101558.694
101560.243
101561.855
101563.31
101564.979
101567.227
101569.364
101571.542
101573.872
101575.957
101577.44
101579.221
101581.246
101583.316
101585.473
101587.572
101589.621
101591.469
101593.73
101596.123
101598.045
101599.83
101601.624
101603.779
101606.326
101608.469
101610.366
101612.333
101614.018
101615.478
101618.1
101621.085
101622.713
101625.045
101627.51
101629.778
101632.144
101532.279
101532.362
101532.459
101532.556
101532.657
101532.762
101532.873
101532.989
101533.111
101533.238
101533.373
101533.515
101533.665
101533.824
101533.994
101534.176
101534.373
101534.586
101534.819
101535.075
101535.358
101535.673
101536.024
101536.417
101536.859
101537.355
101537.912
101538.536
101539.234
101540.011
101540.873
101541.824
101542.866
101544.002
101545.232
101546.557
101547.972
101549.475
101551.063
101552.731
101554.471
101556.321
101558.288
101560.305
101562.426
101564.601
101566.518
101568.076
101569.531
101571.037
101572.552
101574.231
101576.21
101578.359
101580.103
101581.768
101584.367
101587.122
101589.615
101591.826
101593.85
101595.839
101597.734
101599.818
101601.982
101604.07
101605.861
101607.734
101610.199
101612.677
101615.215
101617.748
101619.488
101621.53
101624.325
101626.82
101628.965
101630.854
101633.014
101636.228
101528.521
101528.62
101528.734
101528.848
101528.965
101529.086
101529.213
101529.345
101529.483
101529.629
101529.782
101529.945
101530.118
101530.304
101530.505
101530.723
101530.961
101531.223
101531.513
101531.836
101532.197
101532.602
101533.056
101533.567
101534.14
101534.783
101535.502
101536.302
101537.188
101538.165
101539.235
101540.401
101541.663
101543.021
101544.478
101546.034
101547.687
101549.416
101551.225
101553.095
101554.976
101556.805
101558.662
101560.633
101562.568
101564.518
101566.579
101568.674
101570.804
101572.896
101574.748
101576.85
101579.306
101581.412
101582.831
101585.033
101587.931
101590.34
101592.089
101593.943
101596.571
101598.696
101600.781
101602.957
101604.998
101607.125
101609.457
101611.767
101613.932
101616.177
101618.554
101620.838
101623.015
101625.317
101628.019
101630.92
101633.856
101635.828
101637.794
101639.456
101600.08
101600.081
101600.084
101600.087
101600.091
101600.097
101600.103
101600.111
101600.12
101600.131
101600.142
101600.156
101600.17
101600.186
101600.203
101600.222
101600.242
101600.264
101600.287
101600.312
101600.339
101600.368
101600.398
101600.431
101600.466
101600.503
101600.542
101600.584
101600.628
101600.676
101600.726
101600.779
101600.836
101600.896
101600.961
101601.029
101601.103
101601.181
101601.265
101601.354
101601.449
101601.551
101601.66
101601.778
101601.903
101602.038
101602.182
101602.337
101602.503
101602.68
101602.87
101603.071
101603.286
101603.512
101603.75
101603.998
101604.254
101604.516
101604.781
101605.047
101605.307
101605.553
101605.772
101605.931
101606.02
101606.03
101605.935
101605.717
101605.364
101604.84
101604.174
101603.406
101602.532
101601.564
101600.5
101599.268
101597.858
101596.163
101593.795
101590.35
101595.805
101595.806
101595.808
101595.81
101595.812
101595.816
101595.82
101595.825
101595.831
101595.837
101595.844
101595.852
101595.861
101595.871
101595.881
101595.892
101595.905
101595.918
101595.932
101595.947
101595.963
101595.98
101595.998
101596.017
101596.038
101596.06
101596.083
101596.108
101596.134
101596.162
101596.192
101596.224
101596.258
101596.294
101596.333
101596.375
101596.42
101596.468
101596.52
101596.577
101596.638
101596.703
101596.773
101596.849
101596.931
101597.019
101597.116
101597.22
101597.332
101597.454
101597.584
101597.724
101597.873
101598.032
101598.199
101598.374
101598.553
101598.735
101598.91
101599.071
101599.206
101599.3
101599.338
101599.301
101599.152
101598.864
101598.417
101597.794
101596.991
101596.023
101594.892
101593.612
101592.189
101590.562
101588.648
101586.393
101582.966
101578.766
101575.148
101571.258
101591.451
101591.452
101591.453
101591.454
101591.455
101591.457
101591.458
101591.46
101591.462
101591.464
101591.466
101591.468
101591.47
101591.473
101591.476
101591.478
101591.481
101591.484
101591.488
101591.491
101591.494
101591.498
101591.502
101591.506
101591.51
101591.514
101591.519
101591.523
101591.528
101591.534
101591.54
101591.546
101591.553
101591.561
101591.569
101591.579
101591.589
101591.6
101591.613
101591.628
101591.645
101591.665
101591.686
101591.711
101591.739
101591.77
101591.805
101591.844
101591.887
101591.936
101591.989
101592.047
101592.109
101592.173
101592.238
101592.301
101592.356
101592.4
101592.423
101592.412
101592.349
101592.215
101591.987
101591.641
101591.154
101590.492
101589.632
101588.561
101587.286
101585.827
101584.197
101582.373
101580.251
101577.68
101574.479
101570.45
101565.91
101561.59
101557.16
101553.063
101587.094
101587.095
101587.096
101587.096
101587.095
101587.094
101587.093
101587.091
101587.089
101587.086
101587.083
101587.079
101587.075
101587.07
101587.065
101587.058
101587.051
101587.044
101587.035
101587.026
101587.016
101587.005
101586.993
101586.981
101586.967
101586.952
101586.936
101586.919
101586.901
101586.882
101586.862
101586.84
101586.818
101586.794
101586.769
101586.742
101586.714
101586.686
101586.656
101586.625
101586.594
101586.562
101586.529
101586.496
101586.462
101586.427
101586.392
101586.356
101586.318
101586.279
101586.238
101586.194
101586.144
101586.088
101586.02
101585.938
101585.832
101585.692
101585.504
101585.25
101584.911
101584.463
101583.885
101583.153
101582.245
101581.134
101579.801
101578.243
101576.476
101574.515
101572.355
101569.91
101566.997
101563.396
101559.063
101554.225
101549.202
101544.211
101538.816
101532.488
101582.814
101582.815
101582.815
101582.814
101582.813
101582.81
101582.806
101582.801
101582.795
101582.787
101582.779
101582.769
101582.758
101582.746
101582.732
101582.716
101582.7
101582.681
101582.661
101582.639
101582.615
101582.59
101582.562
101582.532
101582.5
101582.466
101582.429
101582.39
101582.349
101582.304
101582.257
101582.207
101582.154
101582.097
101582.037
101581.974
101581.907
101581.837
101581.762
101581.684
101581.602
101581.516
101581.425
101581.329
101581.228
101581.121
101581.008
101580.888
101580.76
101580.623
101580.475
101580.313
101580.136
101579.939
101579.716
101579.459
101579.156
101578.791
101578.349
101577.81
101577.157
101576.367
101575.42
101574.292
101572.957
101571.39
101569.574
101567.508
101565.201
101562.639
101559.75
101556.392
101552.38
101547.581
101541.869
101535.162
101527.85
101520.874
101514.869
101505.256
101578.693
101578.695
101578.695
101578.694
101578.691
101578.686
101578.68
101578.672
101578.662
101578.651
101578.637
101578.622
101578.605
101578.585
101578.563
101578.539
101578.513
101578.485
101578.453
101578.419
101578.383
101578.343
101578.3
101578.254
101578.205
101578.152
101578.096
101578.035
101577.971
101577.903
101577.829
101577.752
101577.669
101577.581
101577.488
101577.39
101577.285
101577.175
101577.058
101576.934
101576.802
101576.663
101576.516
101576.36
101576.194
101576.017
101575.829
101575.628
101575.413
101575.181
101574.931
101574.658
101574.361
101574.031
101573.661
101573.236
101572.746
101572.175
101571.507
101570.723
101569.799
101568.713
101567.435
101565.937
101564.188
101562.16
101559.832
101557.196
101554.254
101550.981
101547.281
101542.984
101537.903
101531.8
101524.381
101516.329
101509.586
101502.951
101492.343
101478.557
101574.813
101574.815
101574.816
101574.814
101574.81
101574.804
101574.796
101574.786
101574.773
101574.758
101574.74
101574.72
101574.697
101574.671
101574.643
101574.611
101574.577
101574.539
101574.498
101574.453
101574.405
101574.353
101574.297
101574.237
101574.172
101574.103
101574.029
101573.95
101573.866
101573.776
101573.68
101573.578
101573.469
101573.354
101573.231
101573.101
101572.964
101572.817
101572.662
101572.498
101572.323
101572.138
101571.941
101571.732
101571.509
101571.272
101571.019
101570.748
101570.458
101570.145
101569.807
101569.439
101569.036
101568.588
101568.083
101567.511
101566.858
101566.107
101565.242
101564.242
101563.085
101561.749
101560.209
101558.441
101556.417
101554.121
101551.55
101548.644
101545.326
101541.564
101537.24
101532.06
101525.851
101520.191
101514.709
101505.977
101493.086
101480.105
101467.634
101458.46
101571.243
101571.246
101571.247
101571.246
101571.241
101571.234
101571.225
101571.212
101571.197
101571.179
101571.158
101571.134
101571.107
101571.076
101571.043
101571.005
101570.964
101570.919
101570.87
101570.817
101570.76
101570.698
101570.631
101570.56
101570.483
101570.401
101570.313
101570.219
101570.119
101570.012
101569.898
101569.777
101569.648
101569.511
101569.366
101569.211
101569.048
101568.874
101568.689
101568.494
101568.286
101568.065
101567.831
101567.581
101567.316
101567.033
101566.731
101566.408
101566.061
101565.689
101565.287
101564.852
101564.375
101563.849
101563.264
101562.612
101561.879
101561.052
101560.112
101559.038
101557.806
101556.374
101554.693
101552.697
101550.315
101547.869
101545.401
101542.204
101538.241
101533.936
101529.078
101523.652
101518.672
101511.821
101500.941
101489.911
101479.134
101468.174
101457.27
101448.025
101568.045
101568.048
101568.049
101568.048
101568.043
101568.036
101568.025
101568.012
101567.995
101567.975
101567.952
101567.925
101567.895
101567.861
101567.823
101567.781
101567.736
101567.686
101567.631
101567.572
101567.509
101567.44
101567.366
101567.286
101567.201
101567.109
101567.012
101566.907
101566.796
101566.677
101566.551
101566.417
101566.274
101566.122
101565.961
101565.791
101565.61
101565.418
101565.214
101564.998
101564.769
101564.527
101564.269
101563.996
101563.706
101563.398
101563.07
101562.72
101562.345
101561.941
101561.505
101561.029
101560.503
101559.918
101559.262
101558.521
101557.679
101556.715
101555.605
101554.38
101553.041
101551.566
101549.955
101548.174
101546.135
101543.407
101539.817
101536.277
101532.948
101529.364
101525.492
101520.839
101513.541
101504.425
101495.568
101486.049
101475.829
101465.014
101453.927
101445.409
101565.257
101565.261
101565.263
101565.261
101565.256
101565.249
101565.238
101565.223
101565.206
101565.185
101565.16
101565.132
101565.1
101565.064
101565.024
101564.981
101564.932
101564.88
101564.822
101564.76
101564.693
101564.62
101564.542
101564.458
101564.369
101564.273
101564.17
101564.06
101563.944
101563.82
101563.688
101563.547
101563.398
101563.24
101563.072
101562.894
101562.705
101562.504
101562.291
101562.067
101561.829
101561.576
101561.309
101561.026
101560.727
101560.409
101560.073
101559.716
101559.333
101558.92
101558.475
101557.994
101557.477
101556.92
101556.322
101555.676
101554.975
101554.204
101553.354
101552.347
101551.126
101549.685
101547.965
101545.989
101543.823
101541.466
101538.835
101535.82
101532.126
101527.644
101522.409
101516.707
101510.524
101503.783
101496.416
101487.887
101478.605
101469.014
101460.586
101452.2
101562.905
101562.909
101562.91
101562.909
101562.904
101562.896
101562.885
101562.87
101562.852
101562.831
101562.806
101562.777
101562.745
101562.709
101562.668
101562.624
101562.575
101562.522
101562.464
101562.401
101562.333
101562.26
101562.182
101562.098
101562.008
101561.912
101561.809
101561.7
101561.584
101561.46
101561.329
101561.19
101561.042
101560.886
101560.72
101560.545
101560.359
101560.163
101559.955
101559.735
101559.503
101559.259
101559.003
101558.733
101558.447
101558.145
101557.827
101557.49
101557.133
101556.754
101556.349
101555.911
101555.434
101554.908
101554.325
101553.689
101552.992
101552.219
101551.357
101550.381
101549.274
101548.01
101546.568
101544.931
101543.074
101540.982
101538.616
101535.894
101532.76
101529.172
101525.084
101520.407
101515.144
101509.261
101502.692
101495.715
101487.348
101479.135
101470.644
101461.721
101560.989
101560.992
101560.993
101560.991
101560.986
101560.978
101560.966
101560.952
101560.934
101560.913
101560.888
101560.86
101560.828
101560.793
101560.753
101560.71
101560.663
101560.611
101560.555
101560.494
101560.429
101560.359
101560.283
101560.202
101560.116
101560.023
101559.925
101559.82
101559.709
101559.591
101559.466
101559.334
101559.193
101559.045
101558.889
101558.724
101558.549
101558.366
101558.172
101557.967
101557.749
101557.518
101557.275
101557.023
101556.76
101556.485
101556.195
101555.89
101555.568
101555.229
101554.872
101554.494
101554.091
101553.66
101553.197
101552.694
101552.145
101551.541
101550.868
101550.11
101549.25
101548.268
101547.144
101545.854
101544.372
101542.673
101540.724
101538.489
101535.924
101532.99
101529.646
101525.834
101521.494
101516.546
101510.847
101504.506
101497.772
101489.891
101481.332
101473.746
101559.494
101559.495
101559.495
101559.492
101559.486
101559.477
101559.466
101559.451
101559.434
101559.413
101559.389
101559.363
101559.332
101559.299
101559.261
101559.221
101559.176
101559.128
101559.075
101559.018
101558.958
101558.892
101558.822
101558.748
101558.668
101558.583
101558.492
101558.396
101558.295
101558.187
101558.073
101557.953
101557.826
101557.693
101557.552
101557.405
101557.251
101557.09
101556.922
101556.746
101556.561
101556.365
101556.158
101555.937
101555.712
101555.485
101555.249
101555.004
101554.749
101554.484
101554.209
101553.922
101553.623
101553.306
101552.969
101552.608
101552.216
101551.786
101551.31
101550.776
101550.169
101549.475
101548.674
101547.747
101546.669
101545.418
101543.965
101542.279
101540.326
101538.066
101535.458
101532.444
101528.945
101524.898
101520.212
101514.867
101509.104
101502.476
101494.896
101487.53
101558.376
101558.376
101558.374
101558.369
101558.362
101558.353
101558.341
101558.326
101558.309
101558.29
101558.267
101558.242
101558.214
101558.183
101558.149
101558.112
101558.071
101558.028
101557.981
101557.93
101557.876
101557.818
101557.755
101557.689
101557.619
101557.545
101557.466
101557.383
101557.294
101557.202
101557.104
101557.001
101556.893
101556.78
101556.662
101556.538
101556.409
101556.275
101556.136
101555.992
101555.845
101555.696
101555.543
101555.379
101555.202
101555.011
101554.821
101554.638
101554.456
101554.272
101554.085
101553.894