/*--------------------------------*- C++ -*----------------------------------*\
  =========                 |
  \\      /  F ield         | OpenFOAM: The Open Source CFD Toolbox
   \\    /   O peration     | Website:  https://openfoam.org
    \\  /    A nd           | Version:  8
     \\/     M anipulation  |
\*---------------------------------------------------------------------------*/
FoamFile
{
    version     2.0;
    format      ascii;
    class       surfaceScalarField;
    location    "0.07";
    object      phi;
}
// * * * * * * * * * * * * * * * * * * * * * * * * * * * * * * * * * * * * * //

dimensions      [1 0 -1 0 0 0 0];

internalField   nonuniform List<scalar> 
84340
(
-4.58823264e-08
2.9502921e-07
-2.49391393e-07
-1.87207028e-07
9.00982532e-07
-7.60053214e-07
-4.32215006e-07
1.54408337e-06
-1.29956379e-06
-7.90361005e-07
2.22703492e-06
-1.86945779e-06
-1.27140917e-06
2.95180083e-06
-2.47139281e-06
-1.88496391e-06
3.71982509e-06
-3.1069769e-06
-2.64004453e-06
4.53220556e-06
-3.77789656e-06
-3.5448571e-06
5.38977854e-06
-4.48580395e-06
-4.60667775e-06
6.29305137e-06
-5.23213819e-06
-5.83180921e-06
7.24217449e-06
-6.01802441e-06
-7.22557868e-06
8.23697666e-06
-6.84426787e-06
-8.79235009e-06
9.27702911e-06
-7.71140376e-06
-1.05355324e-05
1.03617156e-05
-8.61977157e-06
-1.24575696e-05
1.14902926e-05
-9.56959307e-06
-1.45598977e-05
1.26619245e-05
-1.05610416e-05
-1.68428813e-05
1.38757108e-05
-1.15942882e-05
-1.9305704e-05
1.51306797e-05
-1.26695431e-05
-2.1946238e-05
1.64257727e-05
-1.37870597e-05
-2.47608742e-05
1.77598167e-05
-1.49471468e-05
-2.77443241e-05
1.91314808e-05
-1.61501537e-05
-3.0889392e-05
2.05392308e-05
-1.73964542e-05
-3.41867154e-05
2.19812756e-05
-1.86864252e-05
-3.76244686e-05
2.34555028e-05
-2.00204182e-05
-4.1188041e-05
2.49594153e-05
-2.13987219e-05
-4.48596626e-05
2.64900416e-05
-2.28215259e-05
-4.86179899e-05
2.80438402e-05
-2.4288863e-05
-5.2437638e-05
2.96165644e-05
-2.58005294e-05
-5.62886375e-05
3.12031053e-05
-2.73560019e-05
-6.01358702e-05
3.27973362e-05
-2.89543046e-05
-6.39385609e-05
3.43920112e-05
-3.05938501e-05
-6.76499027e-05
3.59786718e-05
-3.22722114e-05
-7.12165644e-05
3.75472306e-05
-3.3985825e-05
-7.45766165e-05
3.90842351e-05
-3.57298615e-05
-7.7656707e-05
4.0572278e-05
-3.74983368e-05
-8.03764593e-05
4.19969273e-05
-3.92837184e-05
-8.26522478e-05
4.33436426e-05
-4.10748e-05
-8.4401336e-05
4.45882699e-05
-4.28467151e-05
-8.55035646e-05
4.56835995e-05
-4.45895307e-05
-8.5792979e-05
4.65720135e-05
-4.62913853e-05
-8.50883822e-05
4.72085038e-05
-4.79225459e-05
-8.31992138e-05
4.75323955e-05
-4.94316848e-05
-7.99164047e-05
4.74693447e-05
-5.07630905e-05
-7.50063351e-05
4.69309748e-05
-5.18528682e-05
-6.82227302e-05
4.58342352e-05
-5.26305431e-05
-5.92855964e-05
4.40639143e-05
-5.3014673e-05
-4.78907811e-05
4.14917229e-05
-5.29011491e-05
-3.3678093e-05
3.79377552e-05
-5.21661088e-05
-1.62736954e-05
3.33011468e-05
-5.07223062e-05
4.79512974e-06
2.73284881e-05
-4.84152351e-05
2.97896718e-05
2.00647922e-05
-4.50785145e-05
5.95033325e-05
1.07426105e-05
-4.04764835e-05
9.46819588e-05
-7.4940145e-07
-3.44504516e-05
0.000136180665
-1.45494361e-05
-2.69720023e-05
0.000184996474
-3.15405514e-05
-1.72996511e-05
0.000242303993
-5.20626641e-05
-5.27069418e-06
0.000309481363
-7.65357276e-05
9.331056e-06
0.00038802324
-0.000105561322
2.69905764e-05
0.000479075482
-0.000139872652
4.87899007e-05
0.000584197799
-0.000180164445
7.50099655e-05
0.000705299781
-0.00022724157
0.000106105574
0.000844272297
-0.000281915364
0.000142907111
0.00100304178
-0.000344999461
0.000186192722
0.0011834962
-0.00041728825
0.000236794923
0.00138738627
-0.000499510953
0.000295580883
0.00161600348
-0.00059189255
0.000363236732
0.00187013637
-0.000694792596
0.000440623858
0.00215198157
-0.00081078808
0.000528909478
0.00246108519
-0.000934873576
0.000625738795
0.00279092397
-0.00106838917
0.000738521156
0.00315928559
-0.00124303088
0.00087464128
0.00358283706
-0.00139823534
0.000974656437
0.00396959015
-0.0015003773
0.00111359706
0.00433004227
-0.00176915204
0.00140867252
0.00487952965
-0.00208230258
0.00153278695
0.00553324332
-0.00213158314
0.00147784091
0.00597648095
-0.00223991716
0.00179665136
0.00622212787
-0.00260023329
0.00235455598
0.00655279715
-0.00290895532
0.00257825647
0.00703317796
-0.00304039481
0.00255997857
-0.00308720161
0.00260406697
0.00751627452
-3.50746161e-08
3.29738295e-07
-1.42804258e-07
1.00819039e-06
-3.29630941e-07
1.73030694e-06
-6.0321319e-07
2.49993905e-06
-9.7159332e-07
3.31943216e-06
-1.44259523e-06
4.1900091e-06
-2.02358346e-06
5.11230574e-06
-2.72115847e-06
6.08639243e-06
-3.54101125e-06
7.11186561e-06
-4.48784608e-06
8.18788799e-06
-5.56534264e-06
9.31326284e-06
-6.77613394e-06
1.04865141e-05
-8.12177947e-06
1.17059514e-05
-9.60271862e-06
1.29697105e-05
-1.12182059e-05
1.42757704e-05
-1.29662007e-05
1.56219347e-05
-1.48432363e-05
1.70058049e-05
-1.68442484e-05
1.84247246e-05
-1.89623669e-05
1.98757136e-05
-2.1188677e-05
2.1355396e-05
-2.35119432e-05
2.28599156e-05
-2.59182886e-05
2.43848395e-05
-2.83908453e-05
2.59250628e-05
-3.09093438e-05
2.74746862e-05
-3.34496517e-05
2.90268738e-05
-3.59832696e-05
3.05737164e-05
-3.84767858e-05
3.21060525e-05
-4.08912571e-05
3.3613244e-05
-4.3181294e-05
3.50827099e-05
-4.5293871e-05
3.64995617e-05
-4.71698769e-05
3.78492904e-05
-4.87432395e-05
3.91148497e-05
-4.99446282e-05
4.02794439e-05
-5.06987349e-05
4.13197264e-05
-5.08995488e-05
4.21906213e-05
-5.04107811e-05
4.2847231e-05
-4.90742802e-05
4.32435461e-05
-4.67209219e-05
4.33213903e-05
-4.3176313e-05
4.30178671e-05
-3.82411559e-05
4.22631037e-05
-3.16929817e-05
4.09732348e-05
-2.3285978e-05
3.90505647e-05
-1.27517864e-05
3.6384172e-05
2.49802738e-07
3.28191573e-05
1.60514672e-05
2.82478532e-05
3.48678945e-05
2.2659902e-05
5.72699196e-05
1.5519249e-05
8.3874238e-05
6.6794681e-06
0.000115335332
-4.15079478e-06
0.000152428494
-1.70478963e-05
0.000196059386
-3.29092625e-05
0.000247239926
-5.19522491e-05
0.000307263427
-7.45965726e-05
0.00037713525
-0.000101437405
0.000458137504
-0.00013309133
0.000551803064
-0.000170229161
0.000659774564
-0.000213562218
0.000783706115
-0.000263834973
0.000925297155
-0.000321787282
0.00108627776
-0.000388255018
0.00126824053
-0.000463911996
0.00147266442
-0.000549457351
0.00170083181
-0.000645487528
0.00195400138
-0.00075270928
0.00223287779
-0.000870794812
0.00253647333
-0.000998411507
0.0028650612
-0.0011393972
0.00322275549
-0.00129258752
0.00359769216
-0.00144334436
0.0039771516
-0.00162250829
0.00441568466
-0.00183678662
0.00489184886
-0.00197656055
0.00526656764
-0.00214389154
0.00561873001
-0.00243448735
0.00612543711
-0.0026383135
0.00660668714
-0.0027211914
0.00686429223
-0.00285786519
0.00699809511
-0.00304279118
0.00715696
-0.00319930393
-0.003329855
0.0073995723
-2.47536173e-08
3.5407575e-07
-1.00653364e-07
1.08349648e-06
-2.3245883e-07
1.86142677e-06
-4.25949414e-07
2.69265952e-06
-6.87285831e-07
3.57991896e-06
-1.02242387e-06
4.52422004e-06
-1.43668526e-06
5.52556187e-06
-1.93454105e-06
6.58316195e-06
-2.51963122e-06
7.69578411e-06
-3.19453897e-06
8.86153326e-06
-3.96072513e-06
1.00780894e-05
-4.81847812e-06
1.13428035e-05
-5.76686116e-06
1.26527593e-05
-6.80363903e-06
1.40047937e-05
-7.92517722e-06
1.53954857e-05
-9.12631293e-06
1.68211103e-05
-1.0400183e-05
1.82775678e-05
-1.17380252e-05
1.97603024e-05
-1.31289365e-05
2.12641923e-05
-1.4559581e-05
2.2783428e-05
-1.60138224e-05
2.43113523e-05
-1.74722854e-05
2.58402923e-05
-1.89118739e-05
2.73614211e-05
-2.03052266e-05
2.88645747e-05
-2.16201422e-05
3.03380752e-05
-2.2819702e-05
3.17692901e-05
-2.38620348e-05
3.31441061e-05
-2.47002359e-05
3.44468817e-05
-2.52833384e-05
3.56609485e-05
-2.55549552e-05
3.67659582e-05
-2.54396471e-05
3.77283841e-05
-2.48472908e-05
3.85165163e-05
-2.36661003e-05
3.90918543e-05
-2.1763356e-05
3.9410123e-05
-1.89982177e-05
3.94181393e-05
-1.52150115e-05
3.90561356e-05
-1.02365957e-05
3.82566609e-05
-3.87624967e-06
3.69519783e-05
4.07878354e-06
3.50531357e-05
1.38726064e-05
3.24589087e-05
2.58025142e-05
2.90322494e-05
4.017369e-05
2.46675404e-05
5.71772564e-05
1.93679312e-05
7.73579209e-05
1.26251115e-05
0.000101241183
4.3504953e-06
0.000129447228
-5.56128905e-06
0.000162679168
-1.77289651e-05
0.000201760057
-3.24187795e-05
0.000247563947
-4.9973186e-05
0.000301310955
-7.08146118e-05
0.000363866652
-9.54859033e-05
0.000436442994
-0.000124550837
0.000520435802
-0.000158612968
0.000617296065
-0.000198322727
0.000728565904
-0.000244387544
0.000855848861
-0.000297539605
0.00100068152
-0.000358423303
0.00116454482
-0.000427727681
0.00134881498
-0.000506087802
0.00155462527
-0.000594095632
0.00178303609
-0.0006923511
0.00203472061
-0.000801167368
0.00231002674
-0.000920816497
0.00260891737
-0.00105162038
0.00293131739
-0.00119321315
0.00327482627
-0.00134193693
0.00363360636
-0.00149819237
0.00401056081
-0.00166955601
0.00440688765
-0.00183968477
0.00478964192
-0.00200527624
0.00516034042
-0.00220749951
0.00558635582
-0.00240259112
0.00597654195
-0.00253409481
0.00621961386
-0.00267758038
0.00641377141
-0.00283249638
0.00665187905
-0.00295932555
0.00687263763
-0.00307865595
0.00702828203
-0.00319847858
0.00714387973
-0.00331494634
-0.00342250898
0.00723649414
-1.81637861e-08
3.71816202e-07
-7.34018267e-08
1.13813404e-06
-1.68935212e-07
1.95626917e-06
-3.08763882e-07
2.83171383e-06
-4.97009823e-07
3.7673119e-06
-7.37560593e-07
4.76384086e-06
-1.03358788e-06
5.82058095e-06
-1.3874006e-06
6.935885e-06
-1.80005343e-06
8.10726141e-06
-2.27131421e-06
9.33152696e-06
-2.79988875e-06
1.06052988e-05
-3.38313479e-06
1.19245792e-05
-4.01696786e-06
1.3285009e-05
-4.69576345e-06
1.46818847e-05
-5.41222742e-06
1.6110115e-05
-6.15722008e-06
1.7564129e-05
-6.91953364e-06
1.90377582e-05
-7.68557893e-06
2.05240649e-05
-8.43903495e-06
2.20151951e-05
-9.16053534e-06
2.35022934e-05
-9.82737807e-06
2.49753656e-05
-1.04134554e-05
2.6423331e-05
-1.08891517e-05
2.78338542e-05
-1.12212081e-05
2.9193137e-05
-1.13711872e-05
3.04843148e-05
-1.12916593e-05
3.16857567e-05
-1.09272479e-05
3.27754106e-05
-1.0212538e-05
3.37275964e-05
-9.06884367e-06
3.45123519e-05
-7.40261088e-06
3.50944676e-05
-5.11172785e-06
3.54318819e-05
-2.07735184e-06
3.54761295e-05
1.83789304e-06
3.51701616e-05
6.78997739e-06
3.44511279e-05
1.29439623e-05
3.32567645e-05
2.0486862e-05
3.15053376e-05
2.96311153e-05
2.91039694e-05
4.06418006e-05
2.59322883e-05
5.37961056e-05
2.18892087e-05
6.92780165e-05
1.69667084e-05
8.7582056e-05
1.0717362e-05
0.000109180988
3.05718501e-06
0.000134628667
-6.0920099e-06
0.000164557487
-1.73168986e-05
0.000199709676
-3.08157701e-05
0.000241051331
-4.69179611e-05
0.000289338621
-6.60322496e-05
0.000345526545
-8.86237419e-05
0.000410733701
-0.000115198465
0.000486213601
-0.000146313809
0.000573290835
-0.000182583696
0.000673387971
-0.000224669766
0.000787964123
-0.000273211974
0.000918515079
-0.000328897539
0.00106649631
-0.000392393539
0.0012332524
-0.000464321439
0.00142001409
-0.000545211734
0.00162768926
-0.000635429678
0.00185683673
-0.000735260449
0.00210755674
-0.00084483861
0.00237978149
-0.00096459666
0.00267260754
-0.00109401231
0.00298472776
-0.00123295378
0.00331359089
-0.00138049901
0.00365729744
-0.00153693377
0.00401291337
-0.00169756582
0.00437053492
-0.00185582601
0.00472551762
-0.00202455031
0.00507847886
-0.00219265738
0.00542001678
-0.0023468253
0.00570453481
-0.00249203023
0.00593931795
-0.00263739256
0.00615903541
-0.00275383281
0.00634595566
-0.00286452281
0.00648068018
-0.00296725039
0.00659604075
-0.00307471325
0.00670559254
-0.00318823807
0.00680704984
-0.00329997863
0.00690283302
-0.00341077668
-0.00351498529
0.0069952749
-1.64561406e-08
3.8779548e-07
-6.55524607e-08
1.18655598e-06
-1.49147905e-07
2.03909017e-06
-2.69541204e-07
2.9512407e-06
-4.28846574e-07
3.92566464e-06
-6.28589989e-07
4.96254782e-06
-8.69512321e-07
6.06038219e-06
-1.1512699e-06
7.21643421e-06
-1.47209921e-06
8.42679033e-06
-1.82889617e-06
9.68692607e-06
-2.21675669e-06
1.09916582e-05
-2.6290279e-06
1.23352394e-05
-3.05759316e-06
1.37118461e-05
-3.49243633e-06
1.51148749e-05
-3.92140569e-06
1.65370984e-05
-4.32999394e-06
1.79705901e-05
-4.70113632e-06
1.94066225e-05
-5.0150502e-06
2.08355392e-05
-5.24897817e-06
2.22465168e-05
-5.37566135e-06
2.36261942e-05
-5.36361011e-06
2.49603416e-05
-5.17631772e-06
2.62328634e-05
-4.77109265e-06
2.74252363e-05
-4.09787669e-06
2.85163009e-05
-3.09924593e-06
2.94818254e-05
-1.71041534e-06
3.02928098e-05
1.45045545e-07
3.09155628e-05
2.55706247e-06
3.1310903e-05
5.63121385e-06
3.14332014e-05
9.48957673e-06
3.12307632e-05
1.42628745e-05
3.06528891e-05
2.0100494e-05
2.9632437e-05
2.71705213e-05
2.80936599e-05
3.56643067e-05
2.59504418e-05
4.58176964e-05
2.30960266e-05
5.78822088e-05
1.94329868e-05
7.20412761e-05
1.49365342e-05
8.87352207e-05
9.22952692e-06
0.000108389462
2.22569078e-06
0.000131497008
-6.15078448e-06
0.000158621686
-1.64179987e-05
0.000190421382
-2.87539082e-05
0.000227774263
-4.34570401e-05
0.00027134207
-6.08976552e-05
0.000322000173
-8.14876677e-05
0.000380752183
-0.00010568467
0.000448702532
-0.000133998263
0.000527050808
-0.000166988745
0.000617071565
-0.000205237003
0.000720110674
-0.000249371691
0.00083755034
-0.000300043063
0.000970766606
-0.000357906651
0.00112113974
-0.000423606595
0.00128993106
-0.000497711314
0.00147817878
-0.000580664757
0.00168657863
-0.000672745069
0.00191539682
-0.0007740525
0.00216437836
-0.000884432112
0.00243276039
-0.0010036617
0.00271894561
-0.00113104156
0.00302124529
-0.00126691265
0.00333648565
-0.00140926776
0.00366199858
-0.00155848067
0.00399183165
-0.00171034505
0.00432425677
-0.00186937108
0.00465273245
-0.00202605322
0.00497121918
-0.00217432342
0.0052579925
-0.00231133338
0.0055045992
-0.00243927463
0.00571471439
-0.0025569546
0.00588556571
-0.0026628969
0.00601544598
-0.00276728953
0.00612947313
-0.00286788205
0.00623840869
-0.00297347965
0.00634932926
-0.00307819205
0.00644993881
-0.00317534643
0.00654344775
-0.00328177931
0.00663126006
-0.003387829
0.0067213435
-0.00350089605
-0.003606724
0.00681305425
-1.84319215e-08
4.05784331e-07
-7.24990666e-08
1.23999913e-06
-1.62768393e-07
2.12864479e-06
-2.89785824e-07
3.07745964e-06
-4.53520843e-07
4.08852207e-06
-6.52994054e-07
5.16106596e-06
-8.85974946e-07
6.29232965e-06
-1.14873969e-06
7.4780842e-06
-1.43609632e-06
8.71294603e-06
-1.74107115e-06
9.99060835e-06
-2.05449136e-06
1.13036875e-05
-2.36522178e-06
1.26444732e-05
-2.65958072e-06
1.40045963e-05
-2.92140048e-06
1.53749654e-05
-3.13187392e-06
1.67457133e-05
-3.26905637e-06
1.81057799e-05
-3.3073853e-06
1.94428157e-05
-3.21723846e-06
2.07430984e-05
-2.96462954e-06
2.19914489e-05
-2.51145883e-06
2.31703929e-05
-1.81359463e-06
2.4259661e-05
-8.19243156e-07
2.52354993e-05
5.32059866e-07
2.60707109e-05
2.31144972e-06
2.67334606e-05
4.60097911e-06
2.71886032e-05
7.49175443e-06
2.73980891e-05
1.10873653e-05
2.73157383e-05
1.55056611e-05
2.68881076e-05
2.08806129e-05
2.60534464e-05
2.73649678e-05
2.4741284e-05
3.51420027e-05
2.28703889e-05
4.44251031e-05
2.03435132e-05
5.54476316e-05
1.70649186e-05
6.83949278e-05
1.29965138e-05
8.36257666e-05
7.85818983e-06
0.000101543261
1.50811711e-06
0.000122584869
-6.1129756e-06
0.000147251032
-1.54451139e-05
0.000176123919
-2.66562397e-05
0.000209979363
-4.00158705e-05
0.000249407709
-5.58566212e-05
0.00029519016
-7.45473124e-05
0.000348220104
-9.64986575e-05
0.000409473244
-0.000122163245
0.000480010024
-0.000152037739
0.000560971013
-0.000186659824
0.000653559382
-0.00022660163
0.000759018689
-0.000272463872
0.000878632158
-0.000324867102
0.00101366169
-0.000384418669
0.00116529572
-0.000451695325
0.00133457214
-0.0005272022
0.00152227193
-0.000611326498
0.0017288171
-0.000704277075
0.00195419003
-0.000806057554
0.0021978648
-0.000916438455
0.00245880896
-0.00103501404
0.00273530933
-0.00116094876
0.00302484038
-0.001293208
0.0033238722
-0.00143008775
0.00362892867
-0.0015719827
0.00393497305
-0.00171532512
0.0042398266
-0.00186334663
0.0045352573
-0.00200578741
0.00480634636
-0.00214047096
0.00504155582
-0.00226127254
0.00524120867
-0.00237398642
0.00540665441
-0.0024767937
0.00554842118
-0.00258105631
0.00567237573
-0.00268092081
0.00578373088
-0.00277426967
0.00588668212
-0.00287026039
0.0059782056
-0.00295942147
0.00606310098
-0.00305839373
0.00614453035
-0.0031596453
0.00622943577
-0.00326028011
0.00631191902
-0.00336429657
0.0063975712
-0.00347352809
0.00649138516
-0.00359475408
-0.00370374635
0.00658837974
-2.22104438e-08
4.27507295e-07
-8.61021663e-08
1.30320459e-06
-1.90656184e-07
2.23241317e-06
-3.34354333e-07
3.22028083e-06
-5.14600444e-07
4.26780565e-06
-7.27371022e-07
5.37279098e-06
-9.66917582e-07
6.53074735e-06
-1.22551043e-06
7.73546253e-06
-1.49321903e-06
8.97935089e-06
-1.75771924e-06
1.0253711e-05
-2.00444639e-06
1.15489164e-05
-2.21607054e-06
1.28544928e-05
-2.3718155e-06
1.41586249e-05
-2.44756397e-06
1.54488764e-05
-2.41547006e-06
1.67116532e-05
-2.24358645e-06
1.79317991e-05
-1.89527244e-06
1.90922661e-05
-1.32833892e-06
2.01737774e-05
-4.93451247e-07
2.11540125e-05
6.65627685e-07
2.20085977e-05
2.21302101e-06
2.2709375e-05
4.22178658e-06
2.32236544e-05
6.77482256e-06
2.35143954e-05
9.96612126e-06
2.35386705e-05
1.39035072e-05
2.32475021e-05
1.87134181e-05
2.25842269e-05
2.45413309e-05
2.14836233e-05
3.15536301e-05
1.98713401e-05
3.99427595e-05
1.7659568e-05
4.99328953e-05
1.47460961e-05
6.17082664e-05
1.10896367e-05
7.55529958e-05
6.49310445e-06
9.18498708e-05
7.62070243e-07
0.000110982473
-6.1424577e-06
0.000133393866
-1.45600363e-05
0.000159601158
-2.47064717e-05
0.000190278953
-3.67985471e-05
0.000225958847
-5.11332955e-05
0.000267332243
-6.80384701e-05
0.000315185982
-8.78790295e-05
0.000370380069
-0.000111060757
0.000433850372
-0.000138028351
0.000506604492
-0.000169264237
0.000589714396
-0.000205285323
0.000684299088
-0.000246635309
0.000791499535
-0.000293873865
0.000912445679
-0.000347562087
0.00104820874
-0.000408241966
0.00119973466
-0.000476408775
0.00136777351
-0.000552474065
0.00155279466
-0.000636733898
0.00175487272
-0.000729298334
0.00197361794
-0.00083008945
0.00220811891
-0.000938794789
0.002456922
-0.00105487641
0.00271798499
-0.00117751636
0.00298863222
-0.0013056754
0.00326556181
-0.00143789182
0.00354441138
-0.00157207043
0.00382053201
-0.00170622085
0.0040881055
-0.00183956831
0.00434393768
-0.00197116858
0.00457361666
-0.00209303612
0.0047696222
-0.0022018043
0.00492945634
-0.00230031768
0.00506414453
-0.00239597347
0.00518071788
-0.00249057313
0.00528588936
-0.00258197884
0.00537780079
-0.00267297934
0.00546329034
-0.0027664235
0.00554551528
-0.00285651644
0.00562260432
-0.00294737102
0.00569795709
-0.00303479206
0.00577319286
-0.00313365251
0.00584895803
-0.00323543912
0.00592957934
-0.0033409366
0.00601202883
-0.00344677835
0.00609230906
-0.00355383626
0.00617037257
-0.00367284808
-0.00378705095
0.00625364408
-2.41724601e-08
4.5126185e-07
-9.25623237e-08
1.37100843e-06
-2.0221322e-07
2.34139481e-06
-3.48983441e-07
3.36630477e-06
-5.27031123e-07
4.44503422e-06
-7.28487482e-07
5.57335685e-06
-9.43168964e-07
6.74446602e-06
-1.15832338e-06
7.94957904e-06
-1.35838575e-06
9.17829642e-06
-1.52466638e-06
1.04187909e-05
-1.63504077e-06
1.16579996e-05
-1.66359628e-06
1.28816606e-05
-1.58062974e-06
1.40741683e-05
-1.35166962e-06
1.52183153e-05
-9.36782437e-07
1.62950468e-05
-2.90156404e-07
1.72833294e-05
6.40511084e-07
1.81596218e-05
1.91488701e-06
1.88972838e-05
3.60066932e-06
1.94659637e-05
5.77566323e-06
1.98311789e-05
8.52882165e-06
1.99536222e-05
1.19617462e-05
1.97879565e-05
1.61907955e-05
1.92823834e-05
2.13489941e-05
1.83773091e-05
2.75888349e-05
1.70042863e-05
3.50863263e-05
1.50831376e-05
4.40450761e-05
1.25210359e-05
5.46451314e-05
9.26718439e-06
6.71401194e-05
5.16023373e-06
8.18656234e-05
1.60213626e-08
9.91600805e-05
-6.20968175e-06
0.000119415513
-1.37675517e-05
0.00014308624
-2.29142495e-05
0.000170752969
-3.38151503e-05
0.000202921991
-4.67354161e-05
0.000240179106
-6.19703657e-05
0.000283217913
-7.98445852e-05
0.000332795887
-0.000100718983
0.000389739176
-0.000124989998
0.000454939594
-0.000153088251
0.000529344519
-0.000185475051
0.000613943509
-0.000222637277
0.000709748859
-0.000265080103
0.000817766502
-0.000313314079
0.000938958427
-0.000367838952
0.00107419422
-0.000429121997
0.00122418952
-0.000497570335
0.00138943061
-0.000573496661
0.0015700837
-0.000657076207
0.00176588557
-0.000748291067
0.00197607345
-0.000846936952
0.00219934817
-0.000952587507
0.00243385718
-0.00106461221
0.0026771718
-0.00118212253
0.00292623473
-0.00130395188
0.00317740955
-0.00142870325
0.00342655788
-0.00155483536
0.00366910064
-0.00168044589
0.00390012456
-0.00180310534
0.00411546167
-0.00192156883
0.00430854805
-0.00203266525
0.00447381221
-0.00213644361
0.00460781444
-0.0022270502
0.00472100028
-0.00231500163
0.00482150536
-0.00240083397
0.00491382061
-0.00248830347
0.0049990812
-0.00257584918
0.00507724947
-0.0026601595
0.00514857558
-0.00274432046
0.0052133639
-0.00283123187
0.00527885965
-0.00292203335
0.00534470008
-0.00301323119
0.00541607113
-0.00310618462
0.0054887245
-0.00320633387
0.00556326856
-0.00331001046
0.0056390366
-0.00341672973
0.00571861664
-0.00352638695
0.00579798591
-0.00363324401
0.00587341708
-0.0037483163
-0.00386606599
0.00595240855
-2.23266314e-08
4.73115375e-07
-8.29694779e-08
1.43098611e-06
-1.76161922e-07
2.43382652e-06
-2.94272751e-07
3.48356723e-06
-4.27272476e-07
4.5771037e-06
-5.62392756e-07
5.70746786e-06
-6.83791498e-07
6.86477661e-06
-7.72218722e-07
8.03683678e-06
-8.0467696e-07
9.2095007e-06
-7.54072067e-07
1.0366844e-05
-5.88736261e-07
1.14912278e-05
-2.71875165e-07
1.25632642e-05
2.3890723e-07
1.35617464e-05
9.92101e-07
1.44633719e-05
2.04301464e-06
1.52422674e-05
3.45477432e-06
1.58695823e-05
5.29953645e-06
1.63127443e-05
7.6594976e-06
1.65350711e-05
1.06283451e-05
1.64947209e-05
1.43129444e-05
1.61440334e-05
1.88353865e-05
1.54284746e-05
2.43346859e-05
1.42857837e-05
3.09704785e-05
1.26435411e-05
3.89251495e-05
1.04193999e-05
4.83685722e-05
7.55741765e-06
5.95377757e-05
3.91029252e-06
7.27207457e-05
-6.65754615e-07
8.82193273e-05
-6.23544505e-06
0.000106380375
-1.30051456e-05
0.00012759217
-2.12003941e-05
0.000152356309
-3.09787354e-05
0.000181157606
-4.25740787e-05
0.00021448597
-5.6248181e-05
0.00025295375
-7.22888614e-05
0.000297228422
-9.10164085e-05
0.000348033601
-0.00011278229
0.000406151194
-0.000137969387
0.000472413376
-0.000166988845
0.000547691183
-0.000200275961
0.000632879253
-0.000238284974
0.00072887351
-0.000281478472
0.000836541087
-0.000330314547
0.000956680532
-0.000385229783
0.00108997371
-0.000446618052
0.00123692791
-0.000514804497
0.0013978074
-0.000590013406
0.00157255119
-0.000672326681
0.00176067973
-0.000761638495
0.00196118585
-0.000857595932
0.00217251707
-0.000959635517
0.00239256405
-0.00106699657
0.00261871613
-0.00117875171
0.0028477364
-0.0012936441
0.00307602016
-0.00141041754
0.00329934578
-0.0015272884
0.00351431964
-0.00164368772
0.00371646701
-0.0017569931
0.00390044627
-0.00186443514
0.00406281395
-0.00196548322
0.00420186037
-0.00206062623
0.00431748973
-0.00214830427
0.00441125433
-0.00223021781
0.00449497199
-0.00231077977
0.00457212496
-0.00239216563
0.00464516616
-0.00247388615
0.00471440893
-0.0025575593
0.00477997265
-0.00264142672
0.00484498752
-0.00272518971
0.0049111142
-0.00281046348
0.00497800363
-0.00289813716
0.0050464058
-0.00299045094
0.0051161699
-0.00308301257
0.0051918459
-0.00318187926
0.00526784137
-0.00328234862
0.0053450325
-0.0033872215
0.00542385789
-0.00349557834
0.00550665554
-0.00360920832
0.00558979978
-0.00371640837
0.00566661209
-0.00382514803
-0.00394093891
0.00574146732
-1.50613765e-08
4.87803983e-07
-5.11708907e-08
1.46657339e-06
-9.85760523e-08
2.48063559e-06
-1.44831479e-07
3.52915808e-06
-1.74250152e-07
4.60579298e-06
-1.67515174e-07
5.69993994e-06
-1.01283624e-07
6.7976876e-06
5.22416406e-08
7.8823865e-06
3.25790298e-07
8.93495562e-06
7.57458932e-07
9.93410323e-06
1.39119037e-06
1.08563434e-05
2.2773735e-06
1.16758417e-05
3.47364219e-06
1.23641458e-05
5.04573991e-06
1.28898444e-05
7.06869697e-06
1.32177763e-05
9.62789754e-06
1.33087353e-05
1.28206201e-05
1.31182555e-05
1.67575875e-05
1.25962113e-05
2.15646641e-05
1.16856175e-05
2.73854205e-05
1.03211088e-05
3.43805966e-05
8.43097843e-06
4.2708328e-05
5.95556739e-06
5.25945855e-05
2.75463942e-06
6.4279092e-05
-1.2679045e-06
7.80303867e-05
-6.19686052e-06
9.41539458e-05
-1.22164656e-05
0.00011299063
-1.95058586e-05
0.000134971333
-2.82197947e-05
0.000160526497
-3.85641996e-05
0.000190091467
-5.07695103e-05
0.000224198724
-6.50904127e-05
0.00026342985
-8.18099152e-05
0.000308415722
-0.000101239077
0.000359838373
-0.000123716876
0.000418424616
-0.000149608366
0.000484937575
-0.000179301314
0.00056016435
-0.000213202592
0.000644898403
-0.000251729706
0.000739915805
-0.000295300562
0.000845943057
-0.000344319829
0.000963618422
-0.000399161856
0.0010934456
-0.000460150172
0.0012357403
-0.000527533357
0.00139057067
-0.000601457748
0.00155769275
-0.000681936361
0.00173647871
-0.000768809708
0.00192582912
-0.000861687932
0.00212412247
-0.000959942704
0.00232922933
-0.00106271325
0.00253859449
-0.00116901076
0.0027491586
-0.00127757041
0.00295756903
-0.0013871716
0.00316009616
-0.00149618049
0.00335428271
-0.00160461326
0.00353567902
-0.00170869349
0.00369903048
-0.00180704731
0.00384160292
-0.00189957347
0.00396269362
-0.00198553411
0.00406408861
-0.00206688678
0.0041491085
-0.00214565409
0.00422347219
-0.00222267642
0.0042925112
-0.00229926571
0.0043580299
-0.00237630686
0.00441931057
-0.0024534562
0.00447818593
-0.00253277229
0.00453452196
-0.00261390694
0.00458903941
-0.00269595717
0.00464336605
-0.00277952907
0.0046965515
-0.00286366155
0.00474967209
-0.00295127409
0.00480463896
-0.00304543563
0.00486099035
-0.00313938298
0.00491649976
-0.00323740996
0.00497604616
-0.00334191674
0.00503789304
-0.00344909067
0.00510466365
-0.00356237494
0.00517543168
-0.00367999924
0.00525066133
-0.0037916579
0.00532823899
-0.00390275128
-0.00401465888
0.0054019378
-2.03535657e-09
4.8938299e-07
4.95186288e-09
1.4589443e-06
3.62681422e-08
2.448585e-06
1.10874395e-07
3.45373284e-06
2.51958878e-07
4.46381065e-06
4.87370282e-07
5.46355462e-06
8.50077541e-07
6.43393053e-06
1.3786601e-06
7.35267669e-06
2.1178273e-06
8.19458086e-06
3.11907732e-06
8.9315616e-06
4.44145217e-06
9.53258854e-06
6.15232337e-06
9.96349825e-06
8.32860065e-06
1.01862993e-05
1.1057697e-05
1.01590751e-05
1.44388715e-05
9.83481936e-06
1.85845638e-05
9.16114598e-06
2.36222975e-05
8.07850454e-06
2.96960604e-05
6.52030281e-06
3.69527309e-05
4.42666445e-06
4.55919966e-05
1.67942806e-06
5.5823817e-05
-1.8033929e-06
6.78841295e-05
-6.10745721e-06
8.20401928e-05
-1.14043107e-05
9.85907679e-05
-1.78215442e-05
0.000117907308
-2.55166549e-05
0.000140358151
-3.4670764e-05
0.000166334605
-4.54859833e-05
0.0001962975
-5.81865889e-05
0.000230750804
-7.30216474e-05
0.000270242073
-9.02651865e-05
0.000315362931
-0.000110215963
0.000366744715
-0.000133196692
0.000425051714
-0.000159551374
0.000490971527
-0.000189642302
0.000565201259
-0.000223844039
0.000648428727
-0.000262535065
0.000741306548
-0.000306087049
0.000844420846
-0.000354851006
0.000958253516
-0.000409140608
0.00108313831
-0.000469212384
0.00121921163
-0.000535243309
0.00136635917
-0.000607306252
0.00152416111
-0.000685344207
0.00169183874
-0.000769144727
0.00186820595
-0.0008583134
0.0020516195
-0.000952233386
0.00223998208
-0.00105006047
0.00243079978
-0.00115077001
0.00262128917
-0.00125321191
0.00280840642
-0.00135613699
0.00298893245
-0.00145810528
0.00315971724
-0.00155796518
0.00331777194
-0.00165424351
0.00345791934
-0.00174476827
0.00357788481
-0.00182866628
0.00367654377
-0.00190571492
0.00375843139
-0.00198147124
0.00383093591
-0.00205804736
0.00389656859
-0.00213252817
0.00395678033
-0.00220587737
0.0040139409
-0.00227984789
0.00406797934
-0.00235331324
0.00412073281
-0.00242907048
0.00417343974
-0.00250617483
0.0042231069
-0.00258245142
0.00427134849
-0.00266216113
0.00432023338
-0.00274485558
0.00437012426
-0.00282943444
0.00442402535
-0.00291757646
0.00447866372
-0.00300592579
0.00453152616
-0.00309831517
0.00458762628
-0.00319550089
0.00464322329
-0.00329302191
0.00469775886
-0.003396467
0.00475025417
-0.00350160069
0.00479964055
-0.00361177853
0.00484692373
-0.00372729849
0.00490450421
-0.00384925364
0.00496836559
-0.00396662928
-0.00406948609
0.00502317831
1.75117684e-08
4.71536123e-07
8.81185964e-08
1.38786622e-06
2.34407348e-07
2.30175699e-06
4.83696423e-07
3.20384142e-06
8.68612448e-07
4.07823243e-06
1.42760838e-06
4.90383753e-06
2.2055203e-06
5.65523736e-06
3.25420467e-06
6.3031483e-06
4.63325877e-06
6.81461616e-06
6.41076327e-06
7.15307597e-06
8.6644026e-06
7.27789263e-06
1.14823127e-05
7.1444495e-06
1.49643687e-05
6.70301662e-06
1.92237544e-05
5.89836891e-06
2.43884658e-05
4.66868617e-06
3.0593123e-05
2.95495801e-06
3.80100718e-05
6.59914945e-07
4.68231997e-05
-2.29458167e-06
5.72393397e-05
-5.99136521e-06
6.94918151e-05
-1.05750794e-05
8.38435194e-05
-1.61572767e-05
0.000100611915
-2.28781887e-05
0.00012010324
-3.08981385e-05
0.000142674052
-4.0395036e-05
0.000168720977
-5.15664458e-05
0.000198678246
-6.46310968e-05
0.000233018426
-7.9829438e-05
0.000272252092
-9.74237551e-05
0.000316924841
-0.000117698132
0.000367612056
-0.000140956377
0.000424911475
-0.000167519603
0.000489432273
-0.000197721962
0.000561780268
-0.0002319041
0.000642537622
-0.00027040465
0.000732237567
-0.000313549246
0.000831333928
-0.00036163696
0.000940165182
-0.000414924109
0.00105891371
-0.000473605612
0.0011875608
-0.00053779405
0.00132583949
-0.000607497683
0.00147318711
-0.000682597803
0.00162870157
-0.000762827838
0.00179110544
-0.000847755491
0.00195872471
-0.000936771733
0.00212948788
-0.00102908442
0.00230097167
-0.00112372486
0.00247050746
-0.00121960366
0.00263529116
-0.00131556086
0.00279249572
-0.0014104234
0.00293943465
-0.00150308267
0.00307385415
-0.0015925313
0.00319355301
-0.00167767037
0.00329673042
-0.00175742749
0.00338337294
-0.0018314181
0.00345879572
-0.00190409665
0.0035283179
-0.00197524437
0.00359122168
-0.00204438155
0.00364659819
-0.00211343013