/*--------------------------------*- C++ -*----------------------------------*\
  =========                 |
  \\      /  F ield         | OpenFOAM: The Open Source CFD Toolbox
   \\    /   O peration     | Website:  https://openfoam.org
    \\  /    A nd           | Version:  8
     \\/     M anipulation  |
\*---------------------------------------------------------------------------*/
FoamFile
{
    version     2.0;
    format      ascii;
    class       volScalarField;
    location    "0.07";
    object      T;
}
// * * * * * * * * * * * * * * * * * * * * * * * * * * * * * * * * * * * * * //

dimensions      [0 0 0 1 0 0 0];

internalField   nonuniform List<scalar> 
42400
(
472.196049
470.570366
468.901963
467.189856
465.433103
463.630819
461.782198
459.886539
457.943265
455.951958
453.912385
451.824538
449.688664
447.505309
445.275359
443.000084
440.681185
438.320839
435.921748
433.487184
431.021034
428.527836
426.012817
423.481913
420.941786
418.399826
415.864137
413.343505
410.847351
408.385665
405.968913
403.607932
401.313808
399.09774
396.970881
394.944192
393.028299
391.233347
389.568858
388.043572
386.665313
385.440869
384.375885
383.474802
382.740809
382.175826
381.780438
381.553677
381.493566
381.594974
381.852575
382.256615
382.794332
383.450702
384.205049
385.029823
385.883984
386.736812
387.584133
388.328323
388.705164
388.653363
388.148031
387.350921
386.268801
384.830016
382.92086
380.462812
377.410189
373.70745
369.62859
364.927723
359.145452
353.615441
348.474121
342.039018
334.444662
328.584084
322.442449
318.300984
472.230036
470.673088
469.075261
467.435646
465.753377
464.027655
462.257767
460.443107
458.583204
456.677754
454.726645
452.729998
450.688199
448.601942
446.472269
444.300617
442.08886
439.83936
437.555012
435.239289
432.896288
430.530768
428.148185
425.754713
423.357265
420.963493
418.581774
416.221187
413.891457
411.602894
409.366302
407.19287
405.094053
403.081434
401.166584
399.360877
397.675304
396.120265
394.705348
393.43911
392.328898
391.380655
390.598725
389.985652
389.541918
389.265792
389.153518
389.197818
389.389844
389.713803
390.152399
390.681042
391.264669
391.871186
392.473715
393.072655
393.389314
393.370204
393.040858
392.238857
391.203311
389.85617
388.126138
385.859164
383.024222
379.617185
375.634292
371.124915
366.134713
360.594659
354.821543
349.024308
342.559724
335.955658
330.252909
324.541164
318.834861
313.1053
308.582567
304.416691
472.274093
470.806245
469.29991
467.754271
466.168571
464.542122
462.874332
461.164725
459.412975
457.618926
455.782629
453.904378
451.984741
450.024607
448.025219
445.988225
443.915718
441.810284
439.675046
437.513709
435.330601
433.130711
430.919716
428.704008
426.490705
424.287644
422.10337
419.947099
417.828669
415.75847
413.747353
411.806514
409.947342
408.18125
406.51947
404.972803
403.551363
402.264307
401.119555
400.123499
399.280696
398.59348
398.061659
397.682565
397.449883
397.353591
397.380469
397.513535
397.724028
397.984458
398.271251
398.573543
398.687495
398.586752
398.170593
397.353906
396.348741
395.08051
393.479422
391.435908
388.869584
385.751259
382.064792
377.830088
373.083999
367.886771
362.290006
356.372805
350.282611
344.005075
337.642517
331.604104
325.761413
320.053505
314.814582
310.365914
306.276163
302.975024
300.547914
300.117596
472.32494
470.959927
469.559188
468.122024
466.647802
465.135969
463.586083
461.997829
460.371052
458.705786
457.002281
455.261045
453.482871
451.668883
449.820574
447.939842
446.02904
444.091013
442.129141
440.147377
438.150283
436.143058
434.131561
432.122325
430.122557
428.140129
426.183542
424.261879
422.384727
420.562078
418.804199
417.121454
415.524107
414.022076
412.624661
411.340249
410.175978
409.137387
408.228005
407.448986
406.798976
406.273038
405.862268
405.553597
405.329407
405.169208
405.05218
404.961075
404.758973
404.39622
403.811223
402.923659
401.875469
400.607022
399.055998
397.149316
394.785074
391.928153
388.553962
384.656152
380.244625
375.360264
370.045166
364.357509
358.376791
352.210181
345.949511
339.660622
333.496678
327.556704
321.886084
316.640582
312.04897
308.062517
304.684497
301.82577
300.257882
299.945031
299.87719
299.859665
472.378913
471.123063
469.834428
468.512439
467.156603
465.766523
464.341923
462.882669
461.388802
459.860562
458.298422
456.703122
455.075699
453.417527
451.73035
450.016322
448.27804
446.518581
444.741536
442.951035
441.15177
439.349015
437.548622
435.75702
433.981186
432.228605
430.507202
428.825248
427.191235
425.613721
424.101128
422.661518
421.30232
420.030021
418.849816
417.765228
416.777714
415.886398
415.087263
414.373233
413.734691
413.159022
412.63225
412.097744
411.50923
410.82313
409.989507
408.95123
407.782033
406.431317
404.84706
402.969922
400.711636
398.031315
394.897645
391.290331
387.205196
382.655569
377.670548
372.307683
366.617316
360.665488
354.521759
348.274978
342.014772
335.860908
329.923043
324.277336
319.014255
314.246261
310.07103
306.539348
303.786274
301.554699
300.253536
299.976647
299.914471
299.890383
299.879912
299.880394
472.431981
471.283468
470.105077
468.896379
467.657028
466.386788
465.085554
463.753373
462.390476
460.997302
459.574527
458.123095
456.644246
455.139547
453.610922
452.060678
450.491534
448.906639
447.309589
445.704438
444.095699
442.488329
440.887706
439.299583
437.730023
436.185305
434.671811
433.195875
431.763602
430.380648
429.051964
427.781521
426.571968
425.424298
424.337592
423.308627
422.331704
421.397905
420.483973
419.566549
418.617795
417.604857
416.490096
415.278077
413.95021
412.469506
410.794609
408.875452
406.645566
404.068443
401.110792
397.745677
393.956133
389.736545
385.09464
380.053434
374.651948
368.954903
363.028979
356.942309
350.76003
344.570203
338.449861
332.505859
326.827617
321.513382
316.650045
312.319825
308.594473
305.542013
303.173939
301.519425
300.325145
299.98138
299.903556
299.888753
299.881883
299.873557
299.858435
299.845998
472.479593
471.42739
470.347936
469.240934
468.106178
466.943576
465.753167
464.535147
463.289889
462.017967
460.720179
459.397572
458.051458
456.683441
455.295428
453.889647
452.468654
451.03533
449.59288
448.144812
446.694902
445.247149
443.80571
442.374802
440.958599
439.561084
438.18588
436.836054
435.513876
434.220552
432.955923
431.718202
430.503626
429.306094
428.114409
426.913926
425.686904
424.413957
423.085978
421.682142
420.177915
418.544788
416.748914
414.747431
412.500831
409.976312
407.142591
403.971634
400.441136
396.535911
392.249395
387.585089
382.557669
377.194022
371.535509
365.640573
359.581626
353.429014
347.258903
341.153052
335.187253
329.456628
324.05026
319.060457
314.55801
310.619141
307.299285
304.643077
302.648068
301.281706
300.40837
299.982918
299.904732
299.888879
299.885907
299.876275
299.857278
299.832103
299.813675
299.802471
472.51683
471.539955
470.537898
469.510468
468.457562
467.379184
466.275455
465.146639
463.99315
462.815574
461.614678
460.391427
459.146989
457.882743
456.600278
455.301388
453.988055
452.662429
451.32679
449.983499
448.634933
447.283399
445.931028
444.579648
443.230625
441.884693
440.541743
439.200598
437.858801
436.512357
435.155456
433.780163
432.376338
430.931156
429.431603
427.862132
426.203936
424.434182
422.524352
420.448211
418.178468
415.687352
412.947724
409.934104
406.623528
402.997144
399.041423
394.749362
390.121571
385.167237
379.904866
374.363165
368.581864
362.61194
356.524676
350.387083
344.271998
338.261069
332.442474
326.902611
321.729757
317.009339
312.822513
309.228343
306.267183
303.94965
302.246005
301.089125
300.39095
300.020671
299.917765
299.888933
299.88379
299.868231
299.844659
299.823204
299.808639
299.805206
299.802399
299.802281
472.538948
471.606821
470.65075
469.670596
468.666297
467.637869
466.585423
465.509165
464.409411
463.286586
462.141227
460.973981
459.785602
458.576931
457.348882
456.102414
454.838486
453.558013
452.261796
450.95055
449.624744
448.284495
446.929432
445.558539
444.169967
442.760807
441.326783
439.861961
438.359509
436.810912
435.205853
433.532166
431.775539
429.919784
427.946902
425.837256
423.569856
421.122802
418.473881
415.601388
412.484902
409.105503
405.447139
401.497579
397.249375
392.70081
387.856807
382.729768
377.340327
371.717896
365.901283
359.939888
353.895833
347.840384
341.844039
335.984033
330.342755
325.008139
320.068791
315.603008
311.687839
308.371307
305.683447
303.610022
302.102964
301.089409
300.469253
300.135213
299.978069
299.919979
299.891643
299.865357
299.834249
299.815278
299.808709
299.805986
299.805536
299.804748
299.802465
299.802322
472.542321
471.617016
470.667929
469.694893
468.697791
467.676552
466.631155
465.561629
464.468044
463.35051
462.209159
461.044137
459.855572
458.64355
457.408078
456.149053
454.866206
453.559044
452.226762
450.868036
449.480953
448.062837
446.610044
445.117699
443.57981
441.990197
440.341664
438.626041
436.833113
434.951179
432.967094
430.866333
428.633128
426.250689
423.701515
420.967785
418.031879
414.877044
411.487348
407.848763
403.949911
399.782844
395.343829
390.63417
385.661038
380.438332
374.987545
369.338483
363.529889
357.609815
351.637084
345.68409
339.826621
334.139996
328.705945
323.607438
318.921448
314.719328
311.059771
307.983649
305.505348
303.601951
302.217601
301.270513
300.666055
300.307636
300.107798
299.997075
299.931674
299.881897
299.84469
299.821466
299.812673
299.810317
299.807125
299.804553
299.801815
299.800891
299.801264
299.80118
472.52708
471.570946
470.590192
469.584583
468.553892
467.497898
466.416374
465.309077
464.17573
463.016011
461.829529
460.615801
459.374221
458.103533
456.801755
455.466782
454.096619
452.688825
451.240439
449.747919
448.207093
446.613131
444.960527
443.243229
441.454366
439.585152
437.625725
435.565159
433.391484
431.091769
428.652263
426.058592
423.296027
420.34983
417.205702
413.849887
410.269726
406.454343
402.395265
398.087092
393.528223
388.721621
383.675636
378.404861
372.931044
367.284021
361.502533
355.634664
349.737973
343.879472
338.140615
332.602498
327.345611
322.448483
317.982638
314.007962
310.569973
307.696566
305.387157
303.609478
302.303685
301.391293
300.785827
300.400281
300.16328
300.014718
299.920375
299.86521
299.834119
299.81872
299.814135
299.81344
299.811036
299.806813
299.80352
299.800318
299.799412
299.799925
299.801996
299.801791
472.492305
471.46583
470.41281
469.332868
468.225587
467.090494
465.92704
464.734581
463.511629
462.256969
460.969187
459.64659
458.287157
456.88898
455.450238
453.968495
452.440334
450.861808
449.228372
447.534811
445.775213
443.942908
442.030405
440.029376
437.930644
435.724183
433.399173
430.944079
428.346788
425.594778
422.67535
419.575931
416.284282
412.788693
409.078604
405.145102
400.981487
396.583906
391.952063
387.089989
382.006885
376.718009
371.245578
365.619651
359.87893
354.07138
348.254333
342.493927
336.863814
331.444739
326.322825
321.574104
317.26794
313.457941
310.181522
307.451675
305.257247
303.559601
302.299887
301.40418
300.793351
300.392849
300.139922
299.981023
299.887511
299.843536
299.830258
299.823965
299.818768
299.815225
299.811773
299.809257
299.807315
299.805627
299.803901
299.802047
299.800258
299.800995
299.804284
299.806489
472.438781
471.304031
470.139746
468.945323
467.720055
466.463107
465.173079
463.848607
462.488785
461.091976
459.656218
458.179216
456.658312
455.090434
453.472062
451.799169
450.067159
448.27084
446.404379
444.461251
442.43423
440.315375
438.096035
435.76687
433.317904
430.738602
428.017982
425.144772
422.107616
418.895324
415.496868
411.901921
408.101255
404.087218
399.85428
395.399664
390.724057
385.832402
380.734752
375.447173
369.992639
364.401864
358.713982
352.976949
347.247559
341.590828
336.078505
330.786616
325.79213
321.169318
316.984799
313.289883
310.115935
307.471463
305.339458
303.678643
302.430627
301.526303
300.894422
300.468567
300.192233
300.019645
299.914702
299.866346
299.846603
299.836989
299.829384
299.823256
299.81776
299.812711
299.809228
299.80721
299.805143
299.803555
299.802485
299.802848
299.808014
299.805721
299.804368
299.806953
472.371007
471.099172
469.794074
468.454882
467.080607
465.669977
464.221761
462.734338
461.205802
459.633916
458.016078
456.349275
454.630047
452.854442
451.017983
449.115632
447.14175
445.090079
442.953727
440.725158
438.396204
435.958091
433.40149
430.716584
427.893183
424.920861
421.789149
418.487627
415.006192
411.335444
407.467075
403.394332
399.11257
394.619876
389.917789
385.012087
379.913647
374.639316
369.212777
363.665304
358.036336
352.373724
346.733513
341.179114
335.779739
330.607848
325.73575
321.231068
317.152294
313.54389
310.432356
307.823413
305.699616
304.023263
302.741665
301.793442
301.114546
300.644553
300.330082
300.126721
300.000063
299.924016
299.882078
299.856994
299.840305
299.827033
299.817209
299.809731
299.804839
299.80194
299.79997
299.798865
299.799474
299.799963
299.800774
299.801398
299.810894
299.816215
299.811075
299.807225
472.292437
470.861688
469.393397
467.886509
466.339753
464.751638
463.120536
461.444403
459.720842
457.947063
456.119842
454.235484
452.289784
450.277997
448.194808
446.034313
443.790004
441.454769
439.020901
436.480124
433.823642
431.042214
428.126247
425.065945
421.851453
418.472966
414.921067
411.187053
407.263318
403.143816
398.824605
394.304469
389.585626
384.6745
379.58255
374.327098
368.932134
363.428988
357.85679
352.262594
346.701016
341.233259
335.92538
330.845762
326.061854
321.636067
317.621904
314.058411
310.968263
308.354198
306.200952
304.475417
303.129874
302.109473
301.358703
300.823424
300.454004
300.207667
300.048038
299.949032
299.885392
299.849371
299.829838
299.818584
299.810867
299.807285
299.804551
299.802016
299.80007
299.798761
299.798537
299.799232
299.801084
299.802041
299.802862
299.80347
299.809206
299.823878
299.823672
299.81388
472.205088
470.597676
468.947983
467.254738
465.516429
463.731323
461.89734
460.012015
458.072468
456.075365
454.016886
451.892683
449.697859
447.426944
445.073878
442.632016
440.094133
437.452453
434.698693
431.824137
428.81973
425.67622
422.384253
418.93459
415.318386
411.527507
407.554909
403.395096
399.044646
394.50282
389.772245
384.859656
379.776678
374.540608
369.175142
363.710976
358.186174
352.646207
347.143516
341.73649
336.48775
331.461692
326.721294
322.324497
318.320382
314.74554
311.621179
308.951124
306.723009
304.910644
303.474441
302.367363
301.538954
300.937689
300.516625
300.23311
300.050002
299.936616
299.867719
299.832466
299.820646
299.817905
299.816133
299.814564
299.812523
299.809201
299.80445
299.801553
299.800088
299.799545
299.799882
299.802368
299.807789
299.811656
299.815273
299.814563
299.814126
299.82315
299.837602
299.835534
472.11031
470.311219
468.464742
466.569408
464.623457
462.624795
460.570951
458.459026
456.285656
454.046976
451.738585
449.355521
446.892251
444.342659
441.700061
438.957221
436.106406
433.139443
430.047819
426.82281
423.455571
419.937387
416.259914
412.415496
408.397529
404.2009
399.822497
395.261794
390.521496
385.608249
380.533366
375.313564
369.971626
364.536938
359.045811
353.541464
348.073586
342.697351
337.471812
332.457663
327.714394
323.297025
319.252603
315.617209
312.413352
309.648883
307.31663
305.397815
303.859304
302.659406
301.75184
301.088031
300.620253
300.303091
300.095364
299.965816
299.890072
299.849167
299.83469
299.823704
299.818773
299.81547
299.813476
299.812476
299.811264
299.810196
299.808467
299.806845
299.806374
299.806734
299.808882
299.811836
299.815333
299.821626
299.825459
299.830741
299.835245
299.835998
299.844957
299.852632
472.009162
470.005508
467.949011
465.837969
463.670346
461.44372
459.155239
456.801578
454.378903
451.88284
449.308452
446.650235
443.902115
441.057472
438.109177
435.049655
431.870971
428.564946
425.123273
421.537738
417.800458
413.904173
409.842601
405.610855
401.205928
396.627247
391.877284
386.962224
381.892654
376.684245
371.358377
365.942642
360.471139
354.984476
349.529372
344.157779
338.925459
333.889998
329.108331
324.633899
320.513679
316.785297
313.4745
310.593859
308.141404
306.101851
304.4465
303.137775
302.132147
301.382551
300.842512
300.467446
300.217729
300.059542
299.962574
299.903162
299.867036
299.845341
299.831128
299.819823
299.812588
299.80796
299.805577
299.804777
299.805032
299.806112
299.807837
299.809589
299.812165
299.816809
299.821097
299.827789
299.829144
299.826235
299.825467
299.827876
299.835329
299.843992
299.845679
299.848732
471.902564
469.683328
467.405506
465.067165
462.665989
460.199234
457.663682
455.055606
452.370741
449.604264
446.750792
443.804397
440.758628
437.606571
434.340925
430.954106
427.438366
423.785992
419.989531
416.04206
411.937529
407.671144
403.239836
398.642772
393.881942
388.962787
383.894846
378.692411
373.375119
367.968443
362.503999
357.019584
351.558873
346.170677
340.90773
335.824975
330.977344
326.417186
322.191621
318.339889
314.891043
311.861944
309.255982
307.06308
305.260421
303.814601
302.684789
301.82564
301.190555
300.734804
300.417183
300.201477
300.057881
299.964885
299.907503
299.870958
299.846208
299.829119
299.819225
299.813942
299.809138
299.805165
299.802421
299.801966
299.802377
299.803712
299.805941
299.808804
299.812052
299.816485
299.820503
299.826381
299.833003
299.829899
299.826653
299.827091
299.828418
299.840353
299.845049
299.845722
471.791637
469.348071
466.839957
464.265135
461.621027
458.904585
456.112262
453.239977
450.283105
447.236477
444.094394
440.850673
437.498711
434.031573
430.442111
426.723132
422.867609
418.868937
414.721239
410.419741
405.961196
401.344376
396.57062
391.644427
386.574074
381.372241
376.05659
370.650255
365.182176
359.687209
354.205921
348.784016
343.471315
338.320281
333.38411
328.714474
324.358755
320.357383
316.741796
313.532443
310.737535
308.352464
306.360004
304.731803
303.431626
302.4185
301.648874
301.079013
300.667522
300.377826
300.178926
300.045555
299.956575
299.897552
299.860943
299.841074
299.829916
299.824119
299.820273
299.815326
299.81065
299.80708
299.803898
299.801979
299.802068
299.803694
299.805975
299.809314
299.813644
299.81746
299.820827
299.82508
299.831871
299.836281
299.836173
299.833021
299.827826
299.834119
299.842746
299.844056
472.606579
471.811104
470.994919
470.157658
469.298956
468.418442
467.515744
466.590484
465.642279
464.670738
463.675465
462.656058
461.612107
460.543193
459.44889
458.328763
457.182363
456.009234
454.808901
453.580876
452.324652
451.039697
449.725454
448.381331
447.006698
445.600871
444.163109
442.692591
441.1884
439.6495
438.074709
436.462656
434.811741
433.120082
431.385447
429.605164
427.776021
425.894146
423.954854
421.952483
419.880196
417.729762
415.491285
413.153038
410.701287
408.119722
405.38926
402.488873
399.395012
396.082248
392.524265
388.695513
384.573765
380.143794
375.402494
370.365284
365.07349
359.601667
354.063217
348.611259
343.430961
338.721609
334.668066
331.405547
328.988409
327.379153
326.453632
326.038265
325.987231
326.094601
326.251098
326.404844
326.53838
326.653154
326.746081
326.832505
326.917501
326.996352
327.064098
327.106574
472.607015
471.81243
470.997177
470.160902
469.303254
468.42388
467.52242
466.598516
465.6518
464.681899
463.688432
462.671008
461.629227
460.562675
459.470922
458.353521
457.210003
456.039875
454.842614
453.617661
452.364419
451.08224
449.770419
448.428184
447.054684
445.648969
444.209974
442.736497
441.227167
439.680416
438.094432
436.467112
434.796008
433.078244
431.310436
429.488597
427.608024
425.663179
423.647552
421.553538
419.372345
417.093061
414.703081
412.188263
409.532249
406.716836
403.722149
400.525931
397.104827
393.435315
389.495301
385.266562
380.738207
375.911226
370.804337
365.460609
359.954079
354.394689
348.92937
343.736139
339.007539
334.924028
331.620863
329.156485
327.495198
326.515975
326.044406
325.948831
326.006345
326.141859
326.27823
326.40041
326.506589
326.602567
326.696858
326.804131
326.923653
327.045115
327.172891
327.325964
472.603989
471.803291
470.981774
470.139088
469.274884
468.388814
467.480526
466.549665
465.59587
464.618775
463.618003
462.593166
461.543863
460.469672
459.370148
458.244822
457.093192
455.914715
454.708806
453.474826
452.212072
450.919767
449.597046
448.24294
446.85636
445.436071
443.980671
442.488554
440.957879
439.386523
437.772045
436.111622
434.401983
432.63936
430.819289
428.936515
426.985032
424.957869
422.846926
420.64279
418.334492
415.910158
413.356246
410.657101
407.795448
404.752487
401.508177
398.041794
394.332896
390.362803
386.116765
381.586979
376.776605
371.704699
366.411966
360.966558
355.468567
350.051173
344.876074
340.120829
335.956441
332.517941
329.875729
328.017687
326.848675
326.218607
325.962141
325.939207
326.03218
326.164493
326.295736
326.418865
326.530154
326.625549
326.737398
326.892177
327.136111
327.575988
328.198078
328.919021
472.597319
471.783134
470.947774
470.09088
469.212096
468.311062
467.387418
466.440803
465.470847
464.477177
463.459409
462.417141
461.349956
460.25741
459.139034
457.994321
456.822722
455.62364
454.396417
453.140324
451.85455
450.538185
449.190207
447.809456
446.394619
444.944195
443.456471
441.929484
440.36098
438.748367
437.088645
435.378352
433.613486
431.789405
429.900846
427.941828
425.905388
423.783564
421.567299
419.246337
416.809127
414.242771
411.532979
408.664102
405.619283
402.380751
398.930337
395.250305
391.32462
387.140774
382.692314
377.982153
373.026709
367.860721
362.542288
357.157195
351.820945
346.676269
341.88375
337.604813
333.978125
331.08787
328.946699
327.497248
326.625757
326.188367
326.082682
326.118001
326.237999
326.385084
326.531096
326.669229
326.813168
327.002312
327.299244
327.763696
328.451573
329.394048
330.718105
332.464646
472.58682
471.7514
470.894237
470.01495
469.11316
468.188487
467.240547
466.268957
465.273328
464.253264
463.208357
462.138179
461.042282
459.92019
458.771392
457.595337
456.391422
455.158986
453.897297
452.605538
451.282798
449.92805
448.540134
447.117733
445.659351
444.163282
442.627572
441.049991
439.427979
437.758606
436.038514
434.263859
432.430244
430.53265
428.565361
426.521881
424.39485
422.175962
419.855893
417.424229
414.869436
412.178843
409.338689
406.334241
403.150041
399.770309
396.179593
392.36375
388.311373
384.01579
379.477738
374.708753
369.735218
364.602799
359.380673
354.16437
349.075466
344.256487
339.859115
336.016215
332.826397
330.33699
328.53443
327.34733
326.656699
326.345012
326.303157
326.386083
326.556756
326.771492
327.013447
327.289753
327.635418
328.116457
328.826452
329.840306
331.151791
332.751797
334.833064
337.656569
472.572292
471.707484
470.820143
469.909856
468.976207
468.018782
467.037164
466.030934
464.999672
463.942944
462.860306
461.751293
460.615417
459.452157
458.260957
457.041215
455.792273
454.51341
453.203828
451.862641
450.488859
449.081373
447.638932
446.160125
444.643354
443.086804
441.488415
439.845844
438.156425
436.417126
434.6245
432.774634
430.86309
428.884844
426.834225
424.704852
422.489564
420.18037
417.768395
415.243851
412.596028
409.813321
406.883313
403.792945
400.528791
397.077504
393.426504
389.564988
385.48539
381.185396
376.670604
371.957846
367.079081
362.085458
357.050753
352.073062
347.273098
342.781875
338.72708
335.219613
332.336224
330.111404
328.511739
327.470223
326.895812
326.686261
326.68278
326.834288
327.090799
327.418608
327.810578
328.291825
328.927599
329.829305
331.147234
333.001101
335.425463
338.319499
341.633746
345.29207
472.553513
471.65072
470.724371
469.774008
468.799171
467.7994
466.774232
465.723205
464.645852
463.541696
462.410245
461.250989
460.063395
458.846898
457.600894
456.324735
455.017719
453.679082
452.307984
450.903504
449.464619
447.990196
446.47897
444.92953
443.340292
441.709478
440.03509
438.314878
436.546306
434.726518
432.852294
430.920011
428.925592
426.864463
424.731507
422.521006
420.226607
417.841277
415.357269
412.76611
410.058604
407.224867
404.254415
401.136317
397.859456
394.412945
390.786764
386.97271
382.965781
378.766094
374.381433
369.83043
365.146218
360.380079
355.604252
350.912915
346.413412
342.220693
338.434798
335.162417
332.467814
330.376957
328.884778
327.908325
327.364305
327.186089
327.19951
327.40339
327.752675
328.221564
328.811668
329.563278
330.565193
331.951872
333.900849
336.562672
339.904982
343.69849
347.572239
350.983327
472.530249
471.580396
470.605721
469.605711
468.579854
467.527632
466.448529
465.342031
464.207616
463.044755
461.852909
460.63152
459.38001
458.097774
456.784174
455.438532
454.060125
452.648176
451.20185
449.720239
448.202359
446.647135
445.053389
443.419829
441.74503
440.027416
438.265245
436.45658
434.599267
432.690909
430.728834
428.710064
426.63128
424.488793
422.278508
419.99588
417.635893
415.193019
412.661199
410.033819
407.30371
404.463162
401.503981
398.417595
395.195247
391.828325
388.308891
384.630494
380.789381
376.786208
372.62833
368.332653
363.928894
359.462843
354.999166
350.609245
346.39195
342.445418
338.878384
335.76862
333.181179
331.14741
329.661435
328.677831
328.127785
327.947548
327.983502
328.247888
328.702287
329.326301
330.127796
331.156104
332.514962
334.343529
336.750098
339.794
343.335951
346.983458
350.223089
352.772816
472.502308
471.495939
470.46323
469.40361
468.316501
467.201327
466.057513
464.884485
463.681664
462.44847
461.184316
459.888603
458.560718
457.200032
455.805891
454.377617
452.914501
451.415803
449.880744
448.308503
446.698213
445.048957
443.359758
441.629573
439.857288
438.041701
436.181516
434.27533
432.321612
430.318693
428.264743
426.157752
423.995506
421.775568
419.495253
417.151587
414.741293
412.260748
409.705957
407.072517
404.355586
401.549865
398.649595
395.648593
392.540357
389.318272
385.975987
382.508041
378.910832
375.184027
371.332497
367.3687
363.315366
359.208184
355.097686
351.050905
347.142562
343.458096
340.085239
337.103017
334.573382
332.531956
330.98302
329.900248
329.23465
328.925664
328.896829
329.114295
329.566407
330.251698
331.191284
332.431482
334.033063
336.065127
338.542517
341.286198
344.123335
347.138848
350.171449
352.290395
472.469665
471.397275
470.296777
469.167537
468.008913
466.820265
465.600956
464.350351
463.067818
461.752729
460.404457
459.022374
457.605852
456.154256
454.666948
453.143285
451.582621
449.984301
448.347671
446.672072
444.956844
443.201328
441.404864
439.566791
437.68645
435.763179
433.79631
431.785167
429.729059
427.62727
425.479054
423.283619
421.040114
418.747608
416.405077
414.011361
411.565142
409.064894
406.508843
403.89491
401.220642
398.483157
395.679074
392.804486
389.854962
386.825646
383.711474
380.507625
377.210194
373.817264
370.330422
366.756728
363.110945
359.420888
355.71966
352.055325
348.486332
345.079479
341.905935
339.034935
336.526932
334.426795
332.757969
331.519802
330.688926
330.226404
330.087591
330.227118
330.640953
331.310704
332.233744
333.423164
334.901474
336.674733
338.693051
341.143107
343.852309
346.537462
348.781848
350.565879
472.4326
471.285247
470.107791
468.89953
467.659757
466.38777
465.08287
463.744364
462.371576
460.963836
459.520493
458.040904
456.524447
454.970512
453.378512
451.74788
450.078081
448.368611
446.619006
444.828851
442.997781
441.125499
439.211773
437.256451
435.259464
433.220835
431.140679
429.019211
426.856745
424.653694
422.410563
420.127943
417.806499
415.446949
413.05004
410.616517
408.147076
405.642309
403.102638
400.528232
397.918904
395.274009
392.592317
389.871905
387.110061
384.303299
381.447385
378.53765
375.569391
372.538581
369.442881
366.282901
363.070159
359.815623
356.541004
353.280006
350.075689
346.979264
344.047406
341.338072
338.905597
336.795284
335.038578
333.650671
332.629981
331.961787
331.625159
331.596469
331.779617
332.245116
332.975393
333.950768
335.165462
336.603743
338.250344
340.054312
341.978437
343.925525
345.744284
347.259218
472.391804
471.161948
469.8998
468.604594
467.275562
465.911937
464.512966
463.077908
461.606046
460.096686
458.549165
456.96285
455.337147
453.671504
451.96542
450.218453
448.43023
446.600457
444.72893
442.815553
440.860346
438.863462
436.825203
434.74603
432.626578
430.46767
428.270323
426.03576
423.765412
421.460917
419.12412
416.757062
414.36196
411.941189
409.497243
407.032697
404.550149
402.052148
399.541106
397.019194
394.488214
391.949455
389.403537
386.850251
384.288362
381.715542
379.128312
376.522196
373.892002
371.232337
368.538447
365.807537
363.03482
360.242403
357.42809
354.611436
351.820471
349.090178
346.461388
343.978612
341.686721
339.627221
337.834441
336.332667
335.134739
334.243681
333.658486
333.387804
333.370218
333.477081
333.815637
334.392721
335.097326
335.961148
337.122402
338.426337
339.830141
341.248924
342.654324
343.652232
472.348497
471.031067
469.67903
468.29156
466.867828
465.407013
463.908313
462.370949
460.794178
459.177294
457.519641
455.820617
454.079684
452.29638
450.470329
448.601254
446.688994
444.73352
442.734951
440.693577
438.609874
436.484529
434.318455
432.112813
429.869028
427.588806
425.274142
422.927327
420.550954
418.147912
415.721377
413.274802
410.811888
408.336553
405.852882
403.365076
400.877373
398.393962
395.918873
393.455854
391.008227
388.578727
386.169344
383.781153
381.414121
379.066917
376.736807
374.419662
372.110109
369.801902
367.488415
365.163389
362.82179
360.47517
358.116075
355.751668
353.397263
351.074368
348.809382
346.632561
344.576325
342.673011
340.952344
339.439157
338.151723
337.101373
336.293658
335.730049
335.402176
335.326568
335.359975
335.480956
335.739972
336.184054
336.883132
337.714313
338.65427
339.655751
340.771442
341.579783
472.304491
470.898075
469.454707
467.973501
466.453576
464.894064
463.294122
461.652944
459.969772
458.243904
456.474709
454.661634
452.804224
450.902131
448.955137
446.963166
444.926312
442.844855
440.719288
438.550341
436.339005
434.086553
431.794569
429.464964
427.099995
424.70228
422.27481
419.820947
417.344428
414.849351
412.340152
409.821587
407.29869
404.776729
402.261142
399.757464
397.271245
394.807939
392.372788
389.970684
387.60601
385.282474
383.002937
380.769252
378.58214
376.441043
374.344011
372.287613
370.266965