/*--------------------------------*- C++ -*----------------------------------*\
  =========                 |
  \\      /  F ield         | OpenFOAM: The Open Source CFD Toolbox
   \\    /   O peration     | Website:  https://openfoam.org
    \\  /    A nd           | Version:  8
     \\/     M anipulation  |
\*---------------------------------------------------------------------------*/
FoamFile
{
    version     2.0;
    format      ascii;
    class       volVectorField;
    location    "0.07";
    object      U;
}
// * * * * * * * * * * * * * * * * * * * * * * * * * * * * * * * * * * * * * //

dimensions      [0 1 -1 0 0 0 0];

internalField   nonuniform List<vector> 
42400
(
(-0.0166984505 0.0159967179 -6.81629118e-27)
(-0.0496694863 0.0468582995 2.25707808e-26)
(-0.0828784927 0.0770347846 2.35357348e-26)
(-0.116395829 0.10650703 0)
(-0.150247054 0.13525303 0)
(-0.184439654 0.163221379 -5.90204816e-28)
(-0.218972933 0.190354007 0)
(-0.253833007 0.216590814 6.47557045e-28)
(-0.288987728 0.241866357 0)
(-0.324386242 0.266109283 7.09017328e-28)
(-0.359962214 0.289245162 7.41274708e-28)
(-0.395638655 0.311200735 -7.74533498e-28)
(-0.431332711 0.331908043 -2.14565777e-26)
(-0.466959542 0.351307763 -2.08273087e-26)
(-0.502434972 0.369351508 -8.8007563e-28)
(-0.537676907 0.386003151 0)
(-0.572605726 0.401239352 0)
(-0.607143912 0.415049527 0)
(-0.641215191 0.42743549 0)
(-0.674743402 0.438410961 0)
(-0.707651252 0.448001055 0)
(-0.73985904 0.456241824 -2.30837095e-27)
(-0.771283358 0.463179852 -1.28590875e-26)
(-0.801835744 0.468871897 -1.97680481e-26)
(-0.831421203 0.473384493 -6.59236878e-27)
(-0.859936494 0.476793475 -2.64355554e-27)
(-0.887268043 0.47918337 -2.72860649e-27)
(-0.913289346 0.480646622 5.62807263e-27)
(-0.937857904 0.48128261 0)
(-0.960812158 0.481196249 0)
(-0.981968063 0.48049546 -1.5082508e-26)
(-1.00111179 0.479286268 -2.12500556e-26)
(-1.0179899 0.477667125 6.47006326e-27)
(-1.03235429 0.475750774 3.61768189e-26)
(-1.04397097 0.473672354 5.36547705e-26)
(-1.0523082 0.47185895 0)
(-1.05697996 0.469726521 0)
(-1.05746627 0.46769421 0)
(-1.05361937 0.46536013 0)
(-1.0441535 0.463931096 7.99408497e-26)
(-1.02812443 0.462710981 9.67560223e-26)
(-1.00439543 0.46129493 1.55023127e-25)
(-0.970835953 0.459982089 5.11770839e-25)
(-0.927496892 0.458188359 -2.05552957e-26)
(-0.872524709 0.456448757 -3.40634649e-25)
(-0.80446595 0.454603892 -4.36934423e-25)
(-0.721503867 0.45246292 2.38275994e-26)
(-0.621746499 0.44991058 5.08948805e-25)
(-0.503000014 0.44680747 2.60843663e-26)
(-0.363602318 0.442712973 6.91975015e-25)
(-0.199702572 0.437689322 1.68032026e-33)
(-0.00895529543 0.433652421 -1.88636244e-24)
(0.205054983 0.430946507 -9.68283167e-25)
(0.461638073 0.425879378 8.53040475e-26)
(0.760851589 0.417652361 0)
(1.10644782 0.408402078 0)
(1.50448247 0.399004077 0)
(1.9615073 0.389158567 -1.30212138e-25)
(2.48217724 0.378878419 -1.39308647e-25)
(3.07212886 0.368409503 0)
(3.73683014 0.357487049 3.24316991e-24)
(4.48043522 0.34620174 3.33035044e-24)
(5.30614187 0.33516722 -3.04940704e-24)
(6.21594179 0.326073025 -2.63726881e-24)
(7.20809098 0.321708011 0)
(8.2780777 0.320829454 0)
(9.42702219 0.322409996 2.23343957e-25)
(10.6096699 0.355854196 1.34229091e-24)
(11.8668978 0.359564675 3.70630631e-25)
(13.2899519 0.22564845 0)
(14.4125739 0.52578794 0)
(15.4774497 0.878475925 8.59941181e-25)
(17.5482773 -0.081667696 8.26807148e-25)
(18.9488966 -0.504491274 0)
(19.1169902 1.51392003 1.73649206e-24)
(20.2343534 1.99873743 -1.04672939e-23)
(22.3223516 0.111618149 3.11235661e-24)
(23.5674046 -0.829984623 -4.83286025e-24)
(23.7174953 -0.449000606 -1.77990424e-23)
(23.5974715 0.821646031 -1.47541541e-23)
(-0.0198492062 0.017594606 0)
(-0.0589773245 0.0517471109 1.69919308e-26)
(-0.0983326032 0.0854306984 1.717283e-26)
(-0.138018896 0.118668501 0)
(-0.178038183 0.151425996 0)
(-0.218359224 0.183623918 1.5610155e-26)
(-0.25891781 0.215159568 1.59857521e-26)
(-0.299631735 0.245921579 7.46822422e-28)
(-0.340401352 0.275793595 0)
(-0.381112719 0.304657469 8.19148791e-28)
(-0.421642682 0.332397785 8.57423629e-28)
(-0.461864114 0.358906384 -1.27248494e-26)
(-0.501650152 0.384085931 -2.24094877e-26)
(-0.540876968 0.40785224 -1.04838914e-26)
(-0.579425114 0.430135451 8.13281662e-27)
(-0.617179642 0.450880308 9.83198431e-27)
(-0.65402933 0.470045813 0)
(-0.689865318 0.48760455 2.32827154e-27)
(-0.724579438 0.50354187 0)
(-0.758062424 0.517855124 0)
(-0.790202109 0.530553007 0)
(-0.820881658 0.541655042 1.05016573e-27)
(-0.849977801 0.551191207 9.52520876e-27)
(-0.877358971 0.559201631 8.76626128e-27)
(-0.902883249 0.565736335 0)
(-0.926396086 0.570854858 -6.40622372e-27)
(-0.947727322 0.57462529 -3.31943634e-27)
(-0.96668669 0.57712288 6.88752407e-27)
(-0.983057178 0.578429704 2.58397816e-26)
(-0.99660244 0.578640949 2.95664765e-26)
(-1.00708041 0.577852225 -7.59790922e-27)
(-1.01425192 0.576139086 -7.73377922e-27)
(-1.01760164 0.573862299 9.42788617e-26)
(-1.01704753 0.570662322 1.0647642e-25)
(-1.01193142 0.566993634 -1.16190484e-25)
(-1.00210734 0.562672834 -8.20968503e-26)
(-0.986858113 0.558382069 0)
(-0.96468467 0.553753206 1.04639084e-26)
(-0.934346779 0.548669258 0)
(-0.895145698 0.542894831 2.27753876e-26)
(-0.846104082 0.536714561 2.09642025e-25)
(-0.785907837 0.53031656 2.11189955e-25)
(-0.713217315 0.523690865 2.46365726e-26)
(-0.626246893 0.516730325 -2.58749622e-26)
(-0.523066661 0.509308609 5.36052716e-26)
(-0.402191894 0.501019705 -2.78638425e-26)
(-0.260378505 0.491932826 3.05470487e-26)
(-0.0975551332 0.482612665 5.72897021e-25)
(0.093428985 0.474582484 6.54879884e-25)
(0.305185708 0.467946459 0)
(0.560637602 0.458702847 -4.11763596e-26)
(0.856529179 0.446865934 8.83801311e-26)
(1.19684266 0.434540337 8.38688333e-25)
(1.58827095 0.42209474 1.10688096e-24)
(2.03567654 0.409424115 1.10751446e-25)
(2.54456692 0.396734875 2.51558461e-24)
(3.12054427 0.384043796 2.74385728e-24)
(3.76878805 0.371313359 -1.20914405e-25)
(4.49356212 0.358721884 -1.17880262e-25)
(5.29820996 0.346808517 3.6471185e-24)
(6.18508324 0.336784149 3.97007827e-24)
(7.15432537 0.33014305 6.57523532e-26)
(8.20263886 0.327432394 -3.83021759e-26)
(9.32431472 0.329353601 0)
(10.5052867 0.341647242 -3.23828953e-24)
(11.7284721 0.365215276 -6.19817326e-24)
(13.0061095 0.377882718 -2.63282154e-24)
(14.278816 0.421260694 0)
(15.5032733 0.539977366 1.20137803e-26)
(16.9215069 0.41968449 6.28723037e-25)
(18.2632979 0.296476752 1.3172388e-24)
(19.0009536 0.978438838 1.6758208e-24)
(20.2419264 1.06625118 -2.73306447e-24)
(21.9497506 -0.104878193 -2.62320787e-24)
(22.814341 -0.0131462332 3.12722814e-26)
(23.1376411 1.03058357 1.47746533e-23)
(23.6320143 1.19418548 1.79649904e-23)
(23.8878096 0.47488426 -4.71287713e-24)
(23.9709599 0.263411196 -8.89154662e-24)
(23.967888 0.179407715 -1.25829963e-23)
(-0.0223997053 0.0183525844 1.77306673e-27)
(-0.0665184959 0.0541390686 3.05249778e-28)
(-0.110872486 0.0896614831 -3.22610442e-28)
(-0.155597182 0.12498104 3.37181957e-28)
(-0.200695236 0.160067323 0)
(-0.2460754 0.194812569 -1.02708408e-26)
(-0.291624 0.229083329 7.30792992e-34)
(-0.337188755 0.262730994 8.85387194e-27)
(-0.382600366 0.295599629 7.99341538e-27)
(-0.427678648 0.327533836 1.39455955e-26)
(-0.472238992 0.358385093 6.73107991e-27)
(-0.516098245 0.388016607 9.98733843e-28)
(-0.559078673 0.416306486 1.04639495e-27)
(-0.60100985 0.443149309 1.1148945e-27)
(-0.641728812 0.468456427 -8.11712768e-28)
(-0.681078963 0.492155395 3.60028835e-27)
(-0.718908151 0.514188914 2.70433227e-27)
(-0.755066322 0.534513595 1.53692345e-26)
(-0.789403039 0.553098776 1.03334714e-26)
(-0.821765003 0.569925518 2.86356294e-27)
(-0.851993571 0.584985941 -2.9871483e-27)
(-0.879922192 0.598282902 -3.11381288e-27)
(-0.9053738 0.60982989 0)
(-0.92815784 0.619651049 6.73778023e-27)
(-0.948066637 0.627781058 -3.02136676e-26)
(-0.964872895 0.634261601 2.07145633e-29)
(-0.978333053 0.639135263 3.73068546e-26)
(-0.988189147 0.642444848 4.43585118e-26)
(-0.994100071 0.644315287 5.59942163e-26)
(-0.995832306 0.644671486 -6.12084396e-26)
(-0.993050606 0.643729869 -8.64839554e-27)
(-0.985353053 0.641698018 1.54904198e-25)
(-0.972543454 0.638562746 8.55565661e-26)
(-0.953871598 0.63476196 0)
(-0.927980223 0.62993971 0)
(-0.893911141 0.623928896 -1.08174741e-26)
(-0.850451701 0.616913185 0)
(-0.797308169 0.608917555 2.27136588e-26)
(-0.733170189 0.600319942 1.53021386e-25)
(-0.656762872 0.591130272 4.88361451e-26)
(-0.566382096 0.581302897 -1.6086397e-25)
(-0.460253693 0.57081065 0)
(-0.336991549 0.55934857 0)
(-0.193663399 0.547096202 3.55721216e-25)
(-0.0286877382 0.535892507 4.16673764e-25)
(0.154476965 0.526557804 3.05737254e-26)
(0.372710701 0.515547164 0)
(0.626557582 0.502302336 0)
(0.919098606 0.488297594 5.5303171e-25)
(1.25491103 0.474576599 6.28686196e-25)
(1.64016364 0.461253517 -3.93044629e-26)
(2.07946155 0.448197412 0)
(2.57814465 0.43560428 -7.34638726e-25)
(3.14172882 0.423612495 -9.30500073e-25)
(3.77513124 0.412380991 -2.10543725e-24)
(4.48280106 0.402457242 -2.43012561e-24)
(5.2685868 0.395039671 -2.91150971e-24)
(6.13466099 0.391276418 -7.08637998e-33)
(7.08071546 0.391860814 5.84661846e-33)
(8.10377702 0.397242556 -8.4983603e-24)
(9.19833303 0.407364153 -4.56233155e-24)
(10.3561762 0.4227968 4.63450429e-24)
(11.5663583 0.443870795 4.80234303e-24)
(12.8180795 0.469669834 0)
(14.0913024 0.5068069 5.13721135e-24)
(15.3489148 0.569081625 9.56269566e-24)
(16.605679 0.627067367 4.96084838e-24)
(17.8590119 0.638069105 0)
(18.9718583 0.774417567 -2.39318858e-26)
(20.0209451 0.902260872 6.86795807e-24)
(21.2702519 0.67720419 6.56595188e-24)
(22.1528444 0.644812683 0)
(22.7991169 1.16525445 0)
(23.4052876 1.12055684 1.22993043e-24)
(23.7577379 0.625788792 -1.52443428e-24)
(23.8344629 0.748609345 2.05180119e-24)
(23.8708204 0.894897036 1.18597113e-23)
(23.8819853 0.889243521 0)
(23.8929487 0.773945863 -3.62574032e-24)
(23.8963612 0.688896792 1.21644781e-23)
(-0.024427477 0.0184688235 2.08721903e-28)
(-0.0725327987 0.0545854164 3.2830235e-28)
(-0.120909699 0.0905874234 4.03991707e-27)
(-0.169724941 0.126566995 -2.93489602e-27)
(-0.218969327 0.162497732 -3.37277409e-27)
(-0.268524116 0.198262634 0)
(-0.31819221 0.23369488 -5.41599669e-27)
(-0.367746998 0.268615212 -4.9403892e-27)
(-0.416967404 0.302842975 -2.54246566e-27)
(-0.465598009 0.336199698 -1.03058041e-27)
(-0.513386997 0.368512618 2.74097345e-27)
(-0.560089975 0.399624242 2.64236311e-34)
(-0.605472238 0.429395513 1.14574338e-27)
(-0.649309805 0.457706579 1.54035247e-33)
(-0.691388554 0.484456307 -1.26065803e-27)
(-0.731501901 0.509561019 1.56061616e-26)
(-0.769447622 0.532952899 -1.89802012e-26)
(-0.80502441 0.554578565 -2.88264733e-27)
(-0.838028408 0.574398145 2.35512624e-26)
(-0.868249957 0.592384047 3.14828296e-27)
(-0.895465179 0.6085165 -6.6016005e-27)
(-0.919432527 0.622780096 -3.61422534e-26)
(-0.939894244 0.635164732 -4.0452543e-26)
(-0.956574905 0.645661102 3.73329659e-27)
(-0.969183036 0.654255542 0)
(-0.977429824 0.661015437 4.00854321e-27)
(-0.981028759 0.666021469 0)
(-0.979665034 0.669399838 7.73878527e-26)
(-0.973059899 0.671260757 1.44186595e-25)
(-0.96074055 0.671802196 7.77397992e-26)
(-0.941602056 0.670790247 -6.78614861e-26)
(-0.914914277 0.668151244 -8.32758106e-26)
(-0.879681452 0.663881348 2.0999216e-26)
(-0.834856989 0.658129847 1.09001445e-26)
(-0.780073799 0.651075299 -1.29480601e-25)
(-0.714136387 0.642953219 -1.48953842e-25)
(-0.635831616 0.633820195 0)
(-0.543610416 0.623712602 1.69221169e-25)
(-0.435771843 0.61266855 1.53142554e-25)
(-0.310886611 0.600440986 2.49303897e-26)
(-0.166237697 0.587177754 2.69679498e-26)
(5.09262724e-05 0.574713284 0)
(0.183712199 0.563902718 0)
(0.402739668 0.551357031 0)
(0.655406942 0.537066118 3.13674659e-26)
(0.945898909 0.52270687 4.34602068e-25)
(1.27881726 0.50893282 4.32032947e-25)
(1.65877124 0.495780853 0)
(2.09072283 0.483371415 0)
(2.57996833 0.471990789 6.04102794e-25)
(3.13191757 0.46184997 6.84123328e-25)
(3.75167381 0.453480101 8.71806781e-25)
(4.44397677 0.447889636 1.02346126e-24)
(5.21263209 0.446155588 -4.31534169e-26)
(6.05980817 0.449186283 -1.37316236e-24)
(6.98552949 0.457778421 -1.55428813e-24)
(7.9872451 0.47269587 -3.65758835e-24)
(9.05971443 0.494869538 -4.35333984e-24)
(10.1944731 0.525005742 0)
(11.3803946 0.562731659 -1.01697156e-25)
(12.607117 0.607248155 -4.94972473e-24)
(13.8582452 0.658809921 -1.02198155e-23)
(15.1180521 0.716854494 1.80590345e-25)
(16.3691265 0.775649071 2.05359311e-25)
(17.5988241 0.835362024 -6.60820185e-24)
(18.7571561 0.9145658 6.33302965e-24)
(19.8174129 1.02526243 6.85215087e-24)
(20.8406465 1.06912399 -5.52248443e-25)
(21.7788304 1.0858109 -4.72330443e-24)
(22.5009597 1.20733931 -8.16187031e-24)
(23.1616053 1.27095239 5.94515325e-26)
(23.7317685 1.06848783 -1.2638714e-23)
(23.8584844 1.09629564 -6.53049509e-24)
(23.8738476 1.23013489 0)
(23.8084284 1.28887397 -1.4859581e-23)
(23.8021353 1.14709007 -2.78334948e-23)
(23.8431674 1.05261186 2.0015588e-24)
(23.9157386 0.968523236 9.09961477e-24)
(23.9386441 0.940309121 1.30278332e-23)
(23.920531 0.885344522 1.26526296e-23)
(-0.0262192066 0.0182531653 1.32509644e-27)
(-0.0778458226 0.0539743312 0)
(-0.129777883 0.0896380539 0)
(-0.182205406 0.125355368 8.81248414e-31)
(-0.235100652 0.161100897 0)
(-0.288295183 0.196750407 0)
(-0.341541765 0.232129529 0)
(-0.394554571 0.267036587 -1.93630326e-27)
(-0.446993099 0.301258147 0)
(-0.498523135 0.334596297 1.0752928e-27)
(-0.548857671 0.366868293 7.7709944e-27)
(-0.597676007 0.39791507 1.49011002e-33)
(-0.644678293 0.427589165 -9.98651318e-27)
(-0.689579861 0.455764643 0)
(-0.732106385 0.482336406 -1.37668661e-27)
(-0.771990195 0.507218262 2.89339612e-27)
(-0.808965954 0.530340178 0)
(-0.842759177 0.551644915 3.17270285e-26)
(-0.873081828 0.571081261 3.3451094e-27)
(-0.899659669 0.58857249 -7.12326066e-26)
(-0.922151243 0.604159088 -4.52347652e-26)
(-0.940297201 0.617819677 3.75353611e-27)
(-0.953802567 0.629595544 0)
(-0.96235702 0.639567437 -7.02724003e-26)
(-0.965553761 0.647774241 -7.92976471e-26)
(-0.962761188 0.654084386 -8.14251269e-26)
(-0.953382675 0.65852756 -9.09952083e-26)
(-0.936747672 0.661078231 9.67068001e-26)
(-0.912047717 0.661714436 1.01584943e-25)
(-0.878363516 0.660511229 0)
(-0.835281229 0.657712811 -1.249732e-25)
(-0.781781255 0.653428263 -1.319944e-25)
(-0.716780551 0.64771544 1.10771246e-26)
(-0.639056618 0.640642647 -1.36905616e-25)
(-0.547123022 0.632286361 -1.5517842e-25)
(-0.439341397 0.622716896 -2.42316876e-26)
(-0.314254011 0.611765883 1.25846977e-26)
(-0.169368904 0.599611826 -2.50999904e-25)
(-0.00278219812 0.587994083 -2.6089279e-25)
(0.181447404 0.577678095 1.94387393e-25)
(0.400441103 0.565757962 4.01835677e-25)
(0.652240012 0.552340726 3.11893347e-25)
(0.940760805 0.539167833 0)
(1.27041815 0.526816796 -3.05682081e-26)
(1.645441 0.515335554 -3.77545403e-25)
(2.07062947 0.504999832 -3.08232102e-26)
(2.55115681 0.496117407 5.81141361e-33)
(3.09222336 0.489200824 -5.72878955e-25)
(3.69891077 0.485054473 0)
(4.37577066 0.484553531 -2.39615181e-26)
(5.12649354 0.488522654 -1.02167721e-24)
(5.95349045 0.49774323 -1.16170561e-24)
(6.85752554 0.512996923 -2.09003364e-27)
(7.83739249 0.535209892 -1.60956872e-24)
(8.88924249 0.565437601 -1.95789342e-24)
(10.0061089 0.60478052 -2.31139033e-24)
(11.1769476 0.654509118 -7.59800101e-24)
(12.3873574 0.715082084 -5.28854647e-24)
(13.6234295 0.786953577 -5.26036983e-24)
(14.8663334 0.867425148 -5.67048768e-24)
(16.1061933 0.953674183 0)
(17.3158567 1.04267336 2.54541825e-25)
(18.4866046 1.13655917 -5.749376e-24)
(19.5844657 1.22495714 -6.53701804e-24)
(20.6198967 1.3036226 -3.23594529e-26)
(21.5617713 1.38136191 0)
(22.3282856 1.46669791 7.74538079e-24)
(23.0526249 1.55954479 9.19046979e-24)
(23.5206631 1.57041335 9.57233541e-25)
(23.8470057 1.59658836 -8.37797921e-25)
(23.9191858 1.58300498 -3.26703474e-26)
(23.9127305 1.63504918 -1.12851191e-24)
(23.8701323 1.5690788 -1.30354085e-23)
(23.8700506 1.49054623 -7.95293444e-24)
(23.8825322 1.45478701 -1.1139959e-24)
(23.8864464 1.4688616 0)
(23.9491145 1.42468301 -8.64169843e-24)
(23.9756191 1.36847889 -1.37341833e-23)
(24.0264666 1.29238493 0)
(23.9951645 1.20428486 -1.0198588e-23)
(-0.0280681446 0.0179446378 -2.4331981e-27)
(-0.0832895719 0.0530108827 -3.44138261e-27)
(-0.138799947 0.0879795673 -4.01436585e-27)
(-0.194796049 0.122966778 -4.28703251e-28)
(-0.251217716 0.1579444 2.28038142e-27)
(-0.307839529 0.192778978 -9.54023536e-28)
(-0.364341783 0.227283724 3.71948877e-28)
(-0.420353256 0.261250602 -6.73356541e-28)
(-0.475478008 0.294467542 1.11822533e-27)
(-0.529322464 0.326718947 2.35587423e-27)
(-0.581447681 0.357806838 -2.37500917e-27)
(-0.631458552 0.387568396 -1.78405827e-26)
(-0.679032027 0.415856942 -1.66258993e-26)
(-0.723798345 0.442565697 -1.96931124e-26)
(-0.765402764 0.467595 1.52379269e-27)
(-0.803496468 0.490865832 3.28277606e-26)
(-0.837753164 0.512281853 0)
(-0.867802942 0.531854214 0)
(-0.893317446 0.549576677 4.93687536e-26)
(-0.913876542 0.565380835 1.25772855e-25)
(-0.929078767 0.579229314 6.98375453e-26)
(-0.938413584 0.591131424 7.71093165e-26)
(-0.941332269 0.601061658 1.31368079e-33)
(-0.937210352 0.608991446 -9.59457682e-26)
(-0.92541706 0.614961461 9.42662429e-26)
(-0.905388704 0.619124669 2.14782677e-25)
(-0.876357976 0.621501949 1.11484476e-25)
(-0.837451371 0.622143094 -5.2991129e-27)
(-0.787696737 0.621100708 5.49334766e-27)
(-0.726008436 0.618435977 -1.13981128e-26)
(-0.65114405 0.614235316 0)
(-0.561614584 0.608603972 1.74467646e-25)
(-0.455796777 0.601637722 -1.25436192e-26)
(-0.332184746 0.593258594 -1.77525731e-25)
(-0.18858699 0.583636371 0)
(-0.0231497941 0.574301905 -2.6342498e-25)
(0.160813921 0.565906431 -1.71350429e-25)
(0.378691324 0.556193178 0)
(0.628811216 0.545259176 0)
(0.914766567 0.534759579 -2.89168118e-25)
(1.24072787 0.52525822 -3.13269753e-25)
(1.61065312 0.516869428 6.28068777e-26)
(2.02907825 0.510005876 0)
(2.50092707 0.505198799 4.13584131e-25)
(3.03109113 0.503093409 1.00227793e-24)
(3.62426308 0.504397337 5.75972583e-25)
(4.28470149 0.509854683 2.7765013e-26)
(5.01596622 0.520202213 -2.05868961e-27)
(5.82066232 0.536175552 0)
(6.70013294 0.558571832 -1.22967557e-24)
(7.65403174 0.588229622 1.54999341e-28)
(8.67981102 0.625968875 1.7780121e-24)
(9.77221851 0.67255943 6.30592886e-26)
(10.9228521 0.728711686 -2.40833884e-24)
(12.1194045 0.795255827 -5.67177126e-24)
(13.3462499 0.87259134 2.04948354e-32)
(14.5874021 0.961115149 2.96413456e-24)
(15.8228496 1.0594933 0)
(17.0357598 1.16887312 0)
(18.1991647 1.28231626 2.78249254e-25)
(19.3142273 1.39822806 3.06956331e-25)
(20.3373481 1.5042806 0)
(21.2949641 1.61142361 6.84796045e-24)
(22.1178442 1.70309118 6.20005174e-24)
(22.8852291 1.76636905 -9.10074527e-24)
(23.4329577 1.80591763 -3.06979817e-23)
(23.7876596 1.84078765 -1.20286592e-23)
(23.8668835 1.86617373 -6.83352008e-24)
(23.9296001 1.87546142 -3.99587948e-24)
(23.9258511 1.88687582 -1.48710758e-24)
(23.9006373 1.91248573 9.16946956e-24)
(23.9001849 1.83832548 1.0646396e-23)
(23.9034956 1.83912727 -1.00097643e-23)
(23.9365941 1.78611477 -9.14180388e-24)
(23.9888116 1.72723821 -1.29572639e-23)
(24.0110319 1.68350842 -1.1442541e-23)
(24.0438816 1.61445836 -8.74203282e-24)
(24.083057 1.5577972 2.17689557e-31)
(24.1258684 1.47278224 3.06246407e-23)
(24.1286112 1.49851064 2.26809612e-23)
(-0.0301930462 0.0176683877 1.44298644e-27)
(-0.0894561853 0.052071911 4.32458887e-28)
(-0.148877726 0.0862511567 3.71043871e-27)
(-0.208640184 0.120316066 -7.55743375e-34)
(-0.268633617 0.154232302 -2.3699342e-27)
(-0.328561449 0.187858654 -2.43473029e-27)
(-0.388019821 0.221000245 -3.63979176e-28)
(-0.446546736 0.253441575 5.4211302e-30)
(-0.503651734 0.284965647 2.81421897e-27)
(-0.55883656 0.315367906 4.62253693e-27)
(-0.611611678 0.344465031 6.26748363e-27)
(-0.661516432 0.372081672 6.2456448e-27)
(-0.708044781 0.398087554 9.63769818e-27)
(-0.750767003 0.422365097 1.42764239e-26)
(-0.789246757 0.444864337 1.68915167e-27)
(-0.823063031 0.465481357 1.77056049e-27)
(-0.851724185 0.484228291 5.23410536e-26)
(-0.874779168 0.50101966 6.01332555e-26)
(-0.891698774 0.515823653 -4.04863669e-27)
(-0.901952314 0.528726682 -4.27921848e-27)
(-0.904968876 0.539701323 7.7602253e-26)
(-0.900088798 0.54877422 8.69593107e-26)
(-0.886606522 0.555967507 0)
(-0.863703699 0.56132507 5.10568235e-27)
(-0.830520005 0.564883832 0)
(-0.786073866 0.566716567 0)
(-0.72925987 0.56691323 5.76284426e-27)
(-0.658824592 0.565575853 -1.66807467e-25)
(-0.573318415 0.562815704 -1.59554947e-25)
(-0.471115652 0.558763811 1.56614776e-25)
(-0.350556379 0.553389885 1.81136849e-25)
(-0.209660021 0.546763799 1.3552907e-26)
(-0.0465356441 0.540139496 -1.39039668e-26)
(0.136354609 0.534348467 0)
(0.350505112 0.527923721 1.50956318e-26)
(0.597933364 0.520456788 0)
(0.880269915 0.513455086 0)
(1.20154388 0.507721492 1.65165609e-26)
(1.5654913 0.503493588 0)
(1.97634727 0.501254484 0)
(2.43865738 0.501553046 4.01944335e-25)
(2.95692166 0.505022923 4.88032477e-25)
(3.53547311 0.512362175 0)
(4.17829583 0.524309652 0)
(4.88883683 0.541643201 0)
(5.66977918 0.565172489 2.6476427e-26)
(6.52268416 0.595696682 1.8878496e-26)
(7.44763562 0.63396786 1.23869238e-24)
(8.4428439 0.680644039 1.51375855e-24)
(9.50423795 0.73621987 1.83114544e-24)
(10.6251745 0.801006725 2.21050189e-24)
(11.7959149 0.87509508 2.66825155e-24)
(13.0034319 0.958400619 3.05002803e-24)
(14.2313058 1.05048007 0)
(15.4621634 1.15064396 0)
(16.6767254 1.25729425 -3.33019252e-24)
(17.8563657 1.369477 -7.12366036e-24)
(18.9787133 1.48418057 -3.83212808e-24)
(20.0251922 1.60325834 -3.90537812e-24)
(20.967662 1.71728235 -3.30407268e-24)
(21.819622 1.8243246 8.65569949e-24)
(22.5351332 1.90863278 1.82411824e-23)
(23.1830627 1.96305194 4.10410742e-25)
(23.6227633 2.02304733 -1.41496401e-23)
(23.7813692 2.04206554 5.02269115e-25)
(23.821262 2.08498945 -1.0481475e-24)
(23.8352079 2.1080789 7.06167886e-24)
(23.850122 2.07494362 -1.00848318e-31)
(23.8746585 2.03854031 -1.07632674e-23)
(23.8967082 1.99309161 -7.11687763e-25)
(23.9011675 1.95796356 9.63105421e-24)
(23.903302 1.90871826 1.25624979e-23)
(23.8932347 1.93763424 0)
(23.9326108 1.87055012 1.02848606e-24)
(23.9747311 1.82434423 0)
(24.0029338 1.76084398 1.18123875e-23)
(24.0152676 1.73185295 2.52543313e-23)
(24.039228 1.70961251 1.05505317e-23)
(24.0941961 1.61982364 8.96591825e-24)
(24.0964699 1.5629221 2.87324788e-23)
(-0.0326104008 0.0174001412 1.53984069e-27)
(-0.096351359 0.0511189494 4.76249713e-27)
(-0.159951739 0.0844398735 -5.25549927e-28)
(-0.223549273 0.117455252 -3.14408357e-27)
(-0.286959076 0.150118717 -1.9658755e-27)
(-0.349792317 0.182280689 -1.2764609e-27)
(-0.411542715 0.213741359 -1.30004611e-27)
(-0.471640946 0.244284083 -3.97169195e-27)
(-0.529488476 0.273694489 -6.02267764e-27)
(-0.584481941 0.301773493 -8.3657104e-27)
(-0.636028486 0.328347257 0)
(-0.683544154 0.353288883 -3.34538695e-27)
(-0.726469981 0.376461552 1.75995585e-27)
(-0.764230014 0.397791445 0)
(-0.796263817 0.417188671 0)
(-0.821978435 0.434659842 0)
(-0.840789264 0.450168884 0)
(-0.852059268 0.463721655 -2.23285737e-27)
(-0.855098468 0.475337792 0)
(-0.849166833 0.485044996 -5.03416086e-26)
(-0.833462288 0.492898889 -5.59009055e-26)
(-0.807069907 0.498965101 1.08011119e-25)
(-0.769013214 0.503319974 1.2521739e-25)
(-0.718186888 0.506066132 -1.31665764e-25)
(-0.653354181 0.507318549 -1.56211071e-25)
(-0.573091953 0.507207554 -1.62746652e-25)
(-0.475787604 0.505882111 -1.62958911e-25)
(-0.359818708 0.503379712 -1.91476528e-25)
(-0.22332826 0.499729938 -4.36905363e-25)
(-0.0636826395 0.495805953 -2.50927974e-25)
(0.116770962 0.492714036 0)
(0.325516539 0.489662021 -1.53375282e-26)
(0.568758817 0.485838931 -1.6185607e-26)
(0.845869617 0.482553222 0)
(1.16082593 0.480868803 1.66383869e-26)
(1.51729595 0.481045873 0)
(1.919115 0.483531471 0)
(2.3704534 0.488917095 4.02197065e-25)
(2.87545968 0.497873409 -1.8072996e-26)
(3.43816318 0.511141084 -4.83339691e-25)
(4.06232266 0.529517873 5.70491921e-25)
(4.75122661 0.553830324 6.3702221e-25)
(5.50751773 0.584913774 1.53802416e-26)
(6.33286427 0.623572714 0)
(7.22765236 0.670552045 1.02431759e-24)
(8.19064971 0.726491491 1.26763987e-24)
(9.21865791 0.791869703 0)
(10.3061709 0.866933898 0)
(11.4450614 0.951655556 -2.16894205e-24)
(12.6241905 1.04559815 -2.58223651e-24)
(13.8296623 1.14804798 3.06251498e-24)
(15.043882 1.25746942 3.33642945e-24)
(16.2489167 1.37219159 -3.40086497e-24)
(17.4253371 1.48981369 2.41012389e-32)
(18.5535015 1.60781021 3.94661804e-24)
(19.6135507 1.72289791 2.0488838e-26)
(20.5875123 1.83147895 0)
(21.4585963 1.93228124 2.65901905e-25)
(22.2037117 2.02153988 -4.60413604e-24)
(22.8202407 2.1035287 3.37544955e-25)
(23.2950636 2.15137045 5.46878387e-24)
(23.6876972 2.19704847 0)
(23.7891906 2.21478843 4.16356433e-25)
(23.7943873 2.25374801 0)
(23.7890667 2.27168789 2.9437807e-25)
(23.8006439 2.24743108 -3.27735699e-25)
(23.8201636 2.20446324 -1.04498756e-24)
(23.820044 2.20305653 -9.86969987e-24)
(23.8213529 2.19674207 -1.01159199e-23)
(23.85108 2.13281545 -7.83322273e-25)
(23.8758384 2.09606452 -1.19244199e-23)
(23.8859398 2.05939827 -1.28543654e-23)
(23.8884892 2.04295532 -9.78197902e-24)
(23.9212759 1.99368901 -1.30048546e-23)
(23.9601916 1.95271535 -1.41776641e-23)
(23.9990565 1.91127941 -1.26086167e-23)
(24.0270448 1.87062306 1.19903127e-23)
(24.0410285 1.84158786 1.37727755e-23)
(24.0906321 1.77497306 -3.02885371e-24)
(24.0968566 1.70717633 2.14580069e-24)
(-0.0350857694 0.0169879545 1.32303852e-27)
(-0.103250531 0.0497363511 -4.54934091e-27)
(-0.170770829 0.0819095175 -6.15358156e-28)
(-0.237702458 0.11357538 -6.32281568e-34)
(-0.303756053 0.144671573 -2.70550159e-28)
(-0.36842632 0.175041507 -7.17707195e-28)
(-0.431085168 0.204485345 3.34936768e-27)
(-0.491040413 0.23279288 1.20193435e-33)
(-0.547567937 0.259771582 -1.56596253e-26)
(-0.59993806 0.28522822 -1.17957189e-26)
(-0.647414839 0.309015848 1.84534442e-27)
(-0.689279122 0.330995437 -1.97284243e-26)
(-0.724805004 0.351101677 -1.93064274e-26)
(-0.753285072 0.36926557 -2.54745442e-26)
(-0.7739921 0.385461752 -2.99682803e-26)
(-0.786176276 0.399692688 3.48453952e-26)
(-0.789047805 0.411989457 3.99481678e-26)
(-0.781771043 0.422387654 -2.53440637e-27)
(-0.763418559 0.430975049 0)
(-0.733002583 0.437828249 -5.43703425e-26)
(-0.689421968 0.443062626 -6.35164383e-26)
(-0.631458353 0.446810247 -6.09278065e-27)
(-0.557730808 0.449222316 7.70003938e-26)
(-0.466697157 0.450468188 8.82458639e-26)
(-0.356732721 0.450618032 -1.35333844e-26)
(-0.225989605 0.449761547 0)
(-0.0720482588 0.448660501 7.3443673e-27)
(0.103574164 0.448230932 1.38104073e-28)
(0.306846223 0.448042263 -2.19366169e-25)
(0.543557716 0.447579169 -2.55063031e-25)
(0.813538155 0.447822295 2.99909047e-25)
(1.12045474 0.449846488 2.87940712e-25)
(1.46770243 0.454015317 -3.49799951e-26)
(1.85875892 0.460765514 -3.37713253e-25)
(2.29748836 0.47074263 -1.29507888e-32)
(2.78774492 0.484652971 4.28629762e-25)
(3.33327578 0.503261614 -4.9595772e-25)
(3.93760798 0.527387916 -5.370033e-25)
(4.60386244 0.557877855 -3.46431466e-26)
(5.3346339 0.595581364 1.66546964e-26)
(6.13168825 0.641318438 1.41717396e-26)
(6.99569076 0.695854379 -9.34416091e-25)
(7.92590214 0.759854835 -2.18991319e-24)
(8.91986368 0.833831859 -1.30087725e-24)
(9.97309027 0.918084788 -1.5450443e-24)
(11.0787819 1.01264084 -1.83211877e-24)
(12.2275526 1.11719106 0)
(13.4072243 1.23103097 2.59291227e-24)
(14.6026776 1.35313675 3.0504979e-24)
(15.795359 1.48176961 3.32235085e-24)
(16.9660753 1.61458728 6.94297877e-24)
(18.0957228 1.74851316 7.24856766e-24)
(19.1645876 1.8802755 7.6664704e-24)
(20.1538581 2.00594749 8.14379241e-24)
(21.0463586 2.12337118 4.3287112e-24)
(21.8268516 2.22594447 -3.15172741e-25)
(22.4907055 2.31481461 0)
(23.025876 2.38246321 -4.52449863e-24)
(23.4253907 2.43677262 -4.48612784e-24)
(23.694444 2.45013942 0)
(23.8298467 2.48071915 -6.03067735e-24)
(23.8205737 2.48188516 -4.10237676e-24)
(23.7931277 2.48587871 0)
(23.7926443 2.45528114 -4.03459438e-25)
(23.7955695 2.43787909 0)
(23.8239407 2.40963927 -1.05594698e-23)
(23.8470551 2.38302349 -1.25698879e-24)
(23.8612208 2.36713219 8.82352307e-24)
(23.8763493 2.33172423 -1.00071318e-24)
(23.8886567 2.34858408 -1.05393577e-24)
(23.913557 2.31206056 -9.02088983e-24)
(23.9407647 2.29059126 -9.61021379e-24)
(23.9701268 2.27448072 -9.0771736e-25)
(24.0084423 2.25074619 -8.86001134e-25)
(24.0500164 2.22797872 -5.0512918e-26)
(24.0915939 2.19994419 -9.64274658e-25)
(24.1408673 2.16737545 1.29371513e-23)
(24.1379675 2.159857 1.89523076e-23)
(24.1377807 2.15731216 8.56712177e-24)
(24.1381338 2.08874913 -1.7445977e-24)
(-0.0372397202 0.0162650797 0)
(-0.108986549 0.0474475602 -6.90416302e-28)
(-0.179339821 0.0779022605 7.26398798e-28)
(-0.248237432 0.10767598 -2.08372632e-27)
(-0.315256259 0.136689355 8.0486745e-28)
(-0.379743633 0.16478611 8.46533359e-28)
(-0.440916984 0.191773203 -8.3344236e-27)
(-0.497922507 0.217454461 0)
(-0.549874718 0.241638368 1.95668424e-27)
(-0.595873775 0.264180583 -1.74983545e-26)
(-0.635029515 0.284951144 -1.92362411e-26)
(-0.666453064 0.303863687 2.56394207e-26)
(-0.689256294 0.320869247 2.37794159e-27)
(-0.702541658 0.335955492 -6.82180561e-26)
(-0.70538139 0.349149642 -8.13466986e-26)
(-0.696818243 0.360485684 -4.34655651e-26)
(-0.675800593 0.370070781 -2.84565951e-27)
(-0.641235521 0.37799723 -5.89010186e-26)
(-0.591909106 0.38440928 -6.27158164e-26)
(-0.526477938 0.389469942 3.18870998e-27)
(-0.443462281 0.393355528 -3.35762079e-27)
(-0.341306765 0.396179429 -1.38639569e-26)
(-0.218208658 0.398137051 -1.02026191e-25)
(-0.072024912 0.399920814 -2.29188134e-25)
(0.0963231007 0.402166113 -1.10433834e-25)
(0.292664215 0.404664619 -8.04965844e-27)
(0.520882951 0.407262169 -1.14146056e-25)
(0.781838035 0.41081496 8.56158664e-27)
(1.07879766 0.416235964 -8.77525599e-27)
(1.41489258 0.423965638 -1.59732821e-25)
(1.7933597 0.434494488 0)
(2.21774004 0.448492273 -4.09805311e-25)
(2.69161537 0.466675921 -1.90171861e-26)
(3.2184743 0.489821719 5.0496225e-25)
(3.80163138 0.518756299 5.6182305e-25)
(4.44406123 0.554333796 6.25497082e-25)
(5.14831051 0.597409311 -1.77836213e-26)