/*--------------------------------*- C++ -*----------------------------------*\
  =========                 |
  \\      /  F ield         | OpenFOAM: The Open Source CFD Toolbox
   \\    /   O peration     | Website:  https://openfoam.org
    \\  /    A nd           | Version:  8
     \\/     M anipulation  |
\*---------------------------------------------------------------------------*/
FoamFile
{
    version     2.0;
    format      ascii;
    class       volScalarField;
    location    "0.035";
    object      p;
}
// * * * * * * * * * * * * * * * * * * * * * * * * * * * * * * * * * * * * * //

dimensions      [1 -1 -2 0 0 0 0];

internalField   nonuniform List<scalar> 
42400
(
101456.086
101456.073
101456.059
101456.046
101456.034
101456.023
101456.014
101456.005
101455.997
101455.99
101455.985
101455.981
101455.977
101455.975
101455.974
101455.974
101455.976
101455.978
101455.982
101455.987
101455.993
101456
101456.008
101456.017
101456.027
101456.038
101456.05
101456.062
101456.076
101456.09
101456.105
101456.12
101456.136
101456.153
101456.17
101456.188
101456.206
101456.224
101456.252
101456.291
101456.335
101456.385
101456.414
101456.419
101456.421
101456.423
101456.442
101456.481
101456.525
101456.571
101456.617
101456.661
101456.699
101456.768
101456.866
101456.981
101457.064
101457.103
101457.173
101457.287
101457.43
101457.569
101457.714
101457.877
101458.063
101458.265
101458.441
101458.66
101458.88
101458.725
101459.232
101460.461
101459.275
101455.738
101457.731
101462.029
101463.76
101463.372
101465.903
101465.275
101455.522
101455.512
101455.5
101455.49
101455.48
101455.472
101455.464
101455.457
101455.452
101455.447
101455.443
101455.441
101455.439
101455.439
101455.44
101455.442
101455.445
101455.449
101455.454
101455.461
101455.468
101455.477
101455.487
101455.497
101455.509
101455.521
101455.535
101455.549
101455.564
101455.579
101455.595
101455.612
101455.63
101455.647
101455.664
101455.689
101455.723
101455.761
101455.795
101455.809
101455.81
101455.809
101455.823
101455.852
101455.883
101455.914
101455.947
101455.977
101456.001
101456.04
101456.108
101456.197
101456.255
101456.266
101456.297
101456.364
101456.455
101456.541
101456.626
101456.72
101456.832
101456.964
101457.11
101457.271
101457.46
101457.714
101457.934
101458.16
101458.565
101458.651
101458.935
101460.742
101461.922
101461.637
101463.652
101464.783
101464.656
101465.437
101466.082
101468.745
101454.831
101454.822
101454.813
101454.805
101454.798
101454.792
101454.786
101454.782
101454.778
101454.776
101454.775
101454.774
101454.775
101454.777
101454.78
101454.785
101454.791
101454.797
101454.806
101454.815
101454.825
101454.837
101454.85
101454.864
101454.879
101454.895
101454.913
101454.931
101454.95
101454.97
101454.99
101455.014
101455.043
101455.075
101455.111
101455.14
101455.156
101455.166
101455.176
101455.197
101455.23
101455.263
101455.295
101455.329
101455.36
101455.383
101455.426
101455.507
101455.588
101455.597
101455.591
101455.634
101455.701
101455.764
101455.823
101455.883
101455.954
101456.034
101456.123
101456.225
101456.337
101456.465
101456.62
101456.806
101457.023
101457.357
101457.704
101457.989
101458.421
101458.779
101459.029
101459.72
101461.439
101463.428
101464.668
101466.741
101469.076
101470.021
101470.948
101471.691
101454.033
101454.026
101454.019
101454.012
101454.007
101454.002
101453.999
101453.997
101453.995
101453.995
101453.996
101453.998
101454.002
101454.007
101454.013
101454.021
101454.03
101454.04
101454.052
101454.066
101454.081
101454.098
101454.116
101454.136
101454.157
101454.179
101454.203
101454.228
101454.256
101454.287
101454.321
101454.353
101454.382
101454.407
101454.432
101454.46
101454.496
101454.536
101454.576
101454.616
101454.657
101454.696
101454.727
101454.776
101454.857
101454.909
101454.923
101454.955
101455.012
101455.077
101455.128
101455.178
101455.233
101455.294
101455.358
101455.427
101455.503
101455.589
101455.685
101455.797
101455.941
101456.112
101456.314
101456.546
101456.818
101457.224
101457.712
101458.156
101458.633
101459.195
101460.454
101462.376
101463.719
101464.737
101466.404
101468.265
101469.608
101470.647
101471.477
101472.475
101453.132
101453.125
101453.119
101453.114
101453.11
101453.106
101453.104
101453.103
101453.104
101453.106
101453.109
101453.114
101453.121
101453.129
101453.138
101453.15
101453.163
101453.179
101453.196
101453.215
101453.236
101453.259
101453.283
101453.308
101453.336
101453.366
101453.4
101453.435
101453.471
101453.507
101453.544
101453.583
101453.627
101453.674
101453.722
101453.77
101453.819
101453.869
101453.919
101453.962
101454.019
101454.104
101454.162
101454.188
101454.235
101454.3
101454.361
101454.419
101454.478
101454.538
101454.6
101454.663
101454.73
101454.802
101454.883
101454.976
101455.08
101455.201
101455.348
101455.514
101455.728
101455.99
101456.329
101456.707
101457.152
101457.771
101458.304
101458.839
101460.467
101462.525
101463.781
101464.254
101465.061
101466.29
101467.66
101468.601
101469.476
101470.761
101472.07
101473.192
101452.113
101452.106
101452.1
101452.095
101452.092
101452.09
101452.089
101452.089
101452.091
101452.095
101452.101
101452.109
101452.118
101452.13
101452.143
101452.159
101452.177
101452.198
101452.22
101452.243
101452.269
101452.298
101452.331
101452.368
101452.408
101452.449
101452.493
101452.539
101452.588
101452.639
101452.692
101452.746
101452.802
101452.861
101452.921
101452.977
101453.029
101453.095
101453.186
101453.254
101453.293
101453.355
101453.431
101453.502
101453.569
101453.637
101453.706
101453.774
101453.844
101453.917
101453.995
101454.079
101454.173
101454.279
101454.399
101454.537
101454.705
101454.899
101455.13
101455.385
101455.706
101456.079
101456.594
101457.083
101457.397
101458.419
101460.858
101462.527
101462.719
101463.283
101464.071
101464.758
101465.775
101466.994
101468.079
101469.196
101470.39
101471.55
101472.817
101473.639
101450.944
101450.938
101450.932
101450.927
101450.924
101450.923
101450.923
101450.925
101450.929
101450.935
101450.944
101450.954
101450.967
101450.983
101451.001
101451.02
101451.043
101451.069
101451.099
101451.133
101451.171
101451.21
101451.252
101451.297
101451.344
101451.395
101451.448
101451.504
101451.563
101451.625
101451.69
101451.755
101451.817
101451.884
101451.974
101452.073
101452.134
101452.184
101452.259
101452.346
101452.426
101452.504
101452.583
101452.662
101452.741
101452.822
101452.905
101452.993
101453.085
101453.185
101453.295
101453.42
101453.561
101453.725
101453.919
101454.143
101454.411
101454.724
101455.1
101455.511
101455.968
101456.331
101457.015
101458.648
101460.503
101461.254
101461.242
101461.601
101462.651
101463.784
101464.803
101466.028
101466.995
101467.898
101468.931
101470.118
101471.528
101472.851
101474.423
101475.539
101449.593
101449.587
101449.581
101449.577
101449.575
101449.575
101449.577
101449.582
101449.588
101449.597
101449.607
101449.62
101449.637
101449.657
101449.68
101449.707
101449.737
101449.77
101449.806
101449.846
101449.889
101449.936
101449.985
101450.039
101450.096
101450.156
101450.219
101450.286
101450.355
101450.422
101450.499
101450.593
101450.681
101450.75
101450.825
101450.915
101451.009
101451.098
101451.186
101451.275
101451.365
101451.457
101451.55
101451.645
101451.743
101451.846
101451.956
101452.074
101452.204
101452.351
101452.516
101452.705
101452.925
101453.181
101453.478
101453.83
101454.247
101454.746
101455.278
101455.807
101456.632
101458.191
101459.454
101460.021
101460.139
101460.679
101461.857
101462.939
101463.671
101464.519
101465.718
101466.877
101467.968
101469.183
101470.545
101472.005
101473.563
101474.917
101476.352
101477.655
101448.002
101447.996
101447.992
101447.989
101447.989
101447.992
101447.996
101448.003
101448.014
101448.027
101448.044
101448.064
101448.087
101448.112
101448.141
101448.174
101448.21
101448.25
101448.294
101448.342
101448.394
101448.449
101448.509
101448.572
101448.639
101448.708
101448.778
101448.857
101448.951
101449.035
101449.107
101449.193
101449.289
101449.386
101449.482
101449.58
101449.679
101449.78
101449.882
101449.987
101450.094
101450.205
101450.321
101450.442
101450.572
101450.712
101450.867
101451.039
101451.233
101451.453
101451.702
101451.983
101452.298
101452.659
101453.054
101453.505
101453.951
101454.586
101455.745
101457.42
101458.564
101459.1
101459.888
101460.512
101461.129
101461.761
101462.59
101463.669
101464.871
101465.872
101466.878
101468.342
101469.677
101470.99
101472.345
101473.678
101474.917
101476.381
101477.784
101479.393
101446.14
101446.137
101446.134
101446.135
101446.138
101446.144
101446.153
101446.165
101446.18
101446.198
101446.219
101446.244
101446.273
101446.305
101446.342
101446.382
101446.427
101446.475
101446.528
101446.585
101446.646
101446.711
101446.78
101446.85
101446.928
101447.02
101447.105
101447.182
101447.272
101447.371
101447.47
101447.569
101447.672
101447.777
101447.885
101447.996
101448.109
101448.227
101448.348
101448.474
101448.607
101448.749
101448.901
101449.068
101449.251
101449.455
101449.685
101449.944
101450.237
101450.569
101450.943
101451.371
101451.852
101452.414
101452.975
101453.585
101454.738
101456.239
101457.13
101457.384
101457.768
101458.733
101459.691
101460.675
101462.035
101463.012
101463.745
101464.665
101465.899
101467.301
101468.426
101469.355
101470.65
101472.309
101473.658
101474.702
101475.927
101477.447
101479.028
101480.345
101443.96
101443.96
101443.962
101443.967
101443.975
101443.986
101443.999
101444.017
101444.038
101444.062
101444.091
101444.123
101444.16
101444.201
101444.246
101444.295
101444.349
101444.407
101444.47
101444.537
101444.606
101444.683
101444.771
101444.855
101444.935
101445.026
101445.125
101445.225
101445.327
101445.433
101445.542
101445.655
101445.77
101445.889
101446.013
101446.141
101446.275
101446.415
101446.565
101446.725
101446.899
101447.09
101447.3
101447.536
101447.799
101448.097
101448.431
101448.807
101449.227
101449.696
101450.222
101450.801
101451.44
101452.324
101453.497
101454.7
101455.255
101455.579
101456.321
101457.19
101458.166
101459.259
101460.149
101461.065
101462.065
101463.311
101464.814
101466.125
101467.365
101468.563
101470.073
101471.263
101472.278
101473.445
101474.674
101475.942
101477.277
101478.674
101480.259
101481.604
101441.421
101441.425
101441.433
101441.443
101441.457
101441.474
101441.495
101441.52
101441.549
101441.581
101441.619
101441.661
101441.707
101441.757
101441.813
101441.873
101441.936
101442.004
101442.079
101442.164
101442.247
101442.328
101442.419
101442.518
101442.618
101442.722
101442.829
101442.94
101443.055
101443.174
101443.297
101443.424
101443.556
101443.694
101443.839
101443.992
101444.156
101444.333
101444.527
101444.739
101444.975
101445.238
101445.533
101445.865
101446.237
101446.655
101447.119
101447.631
101448.193
101448.807
101449.462
101450.141
101451.063
101452.246
101453.307
101453.85
101454.293
101455.203
101456.175
101457.241
101458.586
101459.847
101461.04
101462.298
101463.643
101465.104
101466.241
101467.217
101468.334
101469.33
101470.186
101471.325
101472.86
101474.363
101475.815
101477.169
101478.459
101479.79
101481.448
101483.423
101438.478
101438.489
101438.504
101438.522
101438.543
101438.569
101438.598
101438.632
101438.671
101438.714
101438.761
101438.814
101438.871
101438.932
101438.999
101439.075
101439.154
101439.232
101439.317
101439.408
101439.506
101439.606
101439.71
101439.819
101439.931
101440.048
101440.169
101440.295
101440.425
101440.56
101440.701
101440.849
101441.006
101441.173
101441.352
101441.546
101441.759
101441.994
101442.255
101442.547
101442.875
101443.243
101443.657
101444.122
101444.641
101445.215
101445.846
101446.535
101447.288
101448.132
101448.995
101449.946
101451.032
101451.901
101452.389
101452.977
101453.932
101455.333
101456.966
101458.315
101459.294
101460.249
101461.176
101462.376
101464.014
101465.018
101466.05
101467.331
101468.713
101470.177
101471.612
101473.135
101474.653
101476.231
101477.883
101479.729
101482.102
101483.908
101485.025
101486.04
101435.091
101435.11
101435.134
101435.162
101435.193
101435.229
101435.269
101435.315
101435.365
101435.419
101435.479
101435.544
101435.616
101435.691
101435.77
101435.855
101435.947
101436.043
101436.143
101436.249
101436.359
101436.473
101436.592
101436.716
101436.845
101436.978
101437.118
101437.263
101437.415
101437.576
101437.747
101437.93
101438.127
101438.341
101438.577
101438.836
101439.125
101439.447
101439.807
101440.21
101440.661
101441.166
101441.731
101442.356
101443.043
101443.805
101444.611
101445.403
101446.188
101447.103
101448.385
101449.899
101450.624
101451.22
101452.259
101453.313
101454.327
101455.629
101457.179
101458.255
101459.102
101460.206
101461.477
101462.355
101463.009
101464.577
101466.434
101468.241
101470.019
101471.621
101473.215
101474.85
101476.568
101478.303
101480.222
101481.912
101483.499
101485.194
101486.628
101488.44
101431.219
101431.248
101431.284
101431.323
101431.366
101431.415
101431.468
101431.525
101431.589
101431.659
101431.732
101431.811
101431.895
101431.986
101432.081
101432.182
101432.288
101432.399
101432.515
101432.637
101432.764
101432.896
101433.034
101433.179
101433.33
101433.488
101433.656
101433.834
101434.023
101434.228
101434.449
101434.69
101434.955
101435.247
101435.571
101435.929
101436.325
101436.764
101437.247
101437.777
101438.352
101438.973
101439.637
101440.322
101441.009
101441.845
101443.103
101444.643
101446.18
101447.515
101448.401
101448.864
101449.528
101450.811
101452.045
101453.281
101454.594
101455.314
101455.643
101456.773
101458.76
101460.654
101462.506
101464.294
101465.92
101467.176
101468.387
101469.633
101470.901
101472.456
101474.108
101475.742
101477.431
101479.111
101480.953
101483.146
101485.103
101486.98
101488.736
101490.517
101426.832
101426.873
101426.923
101426.976
101427.033
101427.095
101427.162
101427.235
101427.313
101427.396
101427.486
101427.581
101427.681
101427.787
101427.899
101428.016
101428.139
101428.268
101428.403
101428.544
101428.692
101428.848
101429.012
101429.185
101429.37
101429.567
101429.78
101430.011
101430.263
101430.54
101430.846
101431.185
101431.563
101431.984
101432.453
101432.975
101433.556
101434.198
101434.905
101435.681
101436.528
101437.447
101438.443
101439.5
101440.606
101441.925
101443.038
101443.849
101444.732
101445.62
101446.442
101447.513
101449.091
101450.64
101451.996
101453.223
101454.804
101456.673
101458.399
101459.765
101460.959
101462.282
101463.771
101465.247
101466.677
101468
101469.238
101470.505
101471.918
101473.525
101475.467
101477.456
101479.338
101481.962
101484.05
101485.463
101486.755
101488.82
101491.143
101492.907
101421.912
101421.967
101422.032
101422.1
101422.172
101422.249
101422.332
101422.42
101422.514
101422.613
101422.717
101422.828
101422.944
101423.066
101423.195
101423.329
101423.471
101423.619
101423.776
101423.941
101424.116
101424.301
101424.5
101424.714
101424.946
101425.198
101425.475
101425.78
101426.118
101426.493
101426.91
101427.375
101427.891
101428.464
101429.097
101429.794
101430.557
101431.386
101432.28
101433.235
101434.248
101435.313
101436.419
101437.555
101438.769
101439.956
101441.049
101442.197
101443.486
101444.812
101446.041
101447.591
101449.499
101451.411
101453.026
101454.281
101455.556
101456.962
101458.391
101459.725
101461.004
101462.298
101463.549
101465.042
101466.816
101468.378
101469.906
101471.523
101473.357
101475.68
101477.952
101480.167
101482.591
101484.119
101485.788
101487.542
101488.903
101490.795
101492.811
101495.015
101416.486
101416.556
101416.638
101416.723
101416.811
101416.904
101417.002
101417.105
101417.214
101417.329
101417.449
101417.575
101417.707
101417.846
101417.991
101418.145
101418.306
101418.477
101418.658
101418.851
101419.059
101419.282
101419.525
101419.79
101420.081
101420.402
101420.757
101421.152
101421.59
101422.077
101422.617
101423.215
101423.874
101424.599
101425.391
101426.253
101427.186
101428.191
101429.272
101430.413
101431.61
101432.847
101434.011
101435.1
101436.793
101438.943
101440.561
101441.848
101443.19
101444.592
101445.953
101447.452
101449.451
101450.925
101452.004
101453.25
101454.575
101456.206
101457.933
101459.671
101461.331
101463.006
101464.868
101466.921
101469.064
101471.19
101473.41
101475.161
101476.771
101478.49
101480.417
101481.825
101482.757
101484.311
101486.664
101489.164
101491.129
101492.553
101494.074
101495.771
101410.621
101410.708
101410.808
101410.909
101411.013
101411.123
101411.237
101411.357
101411.482
101411.614
101411.751
101411.896
101412.048
101412.209
101412.379
101412.559
101412.752
101412.959
101413.183
101413.426
101413.691
101413.983
101414.304
101414.661
101415.056
101415.496
101415.986
101416.53
101417.132
101417.798
101418.528
101419.326
101420.191
101421.121
101422.112
101423.157
101424.235
101425.341
101426.472
101427.928
101429.928
101431.948
101433.921
101435.964
101437.543
101438.361
101439.434
101441.138
101442.841
101444.626
101446.477
101447.752
101448.291
101449.787
101452.601
101455.431
101457.522
101459.181
101460.715
101462.143
101463.76
101465.4
101466.928
101468.615
101470.636
101472.533
101474.088
101476.412
101478.85
101480.035
101481.069
101483.052
101485.945
101488.125
101489.425
101490.539
101492.175
101494.311
101496.344
101498.138
101404.445
101404.547
101404.665
101404.784
101404.905
101405.032
101405.164
101405.301
101405.446
101405.598
101405.758
101405.927
101406.107
101406.299
101406.506
101406.729
101406.972
101407.237
101407.529
101407.851
101408.21
101408.608
101409.053
101409.551
101410.106
101410.726
101411.417
101412.183
101413.03
101413.963
101414.984
101416.097
101417.304
101418.606
101420.005
101421.495
101423.05
101424.686
101426.803
101429.109
101430.684
101431.819
101432.866
101433.928
101435.013
101436.44
101438.378
101440.295
101442.141
101444.186
101446.395
101448.765
101451.13
101452.898
101454.266
101455.911
101457.932
101459.662
101461.105
101462.677
101464.3
101465.962
101467.741
101469.694
101471.793
101473.902
101475.938
101477.894
101480.066
101482.568
101484.609
101486.068
101487.462
101489.195
101491.381
101492.931
101494.694
101497.048
101499.089
101501.312
101427.096
101427.097
101427.1
101427.104
101427.11
101427.117
101427.126
101427.137
101427.15
101427.165
101427.181
101427.199
101427.22
101427.242
101427.267
101427.293
101427.322
101427.353
101427.387
101427.423
101427.462
101427.503
101427.548
101427.595
101427.646
101427.699
101427.757
101427.818
101427.882
101427.951
101428.024
101428.102
101428.184
101428.272
101428.364
101428.462
101428.567
101428.678
101428.797
101428.924
101429.057
101429.199
101429.35
101429.51
101429.68
101429.861
101430.053
101430.257
101430.473
101430.703
101430.946
101431.203
101431.475
101431.761
101432.061
101432.374
101432.698
101433.03
101433.365
101433.699
101434.032
101434.364
101434.692
101435.019
101435.283
101435.363
101435.26
101435.111
101435.037
101435
101434.935
101434.556
101433.869
101433.165
101432.498
101431.676
101430.725
101429.807
101428.459
101426.56
101430.796
101430.798
101430.801
101430.806
101430.813
101430.822
101430.832
101430.845
101430.86
101430.876
101430.895
101430.916
101430.939
101430.965
101430.993
101431.023
101431.056
101431.091
101431.129
101431.17
101431.214
101431.261
101431.311
101431.364
101431.421
101431.482
101431.546
101431.614
101431.687
101431.764
101431.845
101431.932
101432.023
101432.12
101432.223
101432.332
101432.447
101432.569
101432.698
101432.834
101432.98
101433.136
101433.3
101433.474
101433.657
101433.852
101434.059
101434.277
101434.509
101434.753
101435.011
101435.283
101435.568
101435.869
101436.183
101436.51
101436.849
101437.198
101437.555
101437.918
101438.288
101438.661
101439.032
101439.393
101439.735
101440.071
101440.408
101440.643
101440.628
101440.392
101439.862
101439.644
101439.907
101440.047
101439.643
101438.994
101438.606
101438.454
101438.708
101437.868
101434.241
101434.243
101434.247
101434.252
101434.26
101434.27
101434.281
101434.295
101434.311
101434.329
101434.35
101434.372
101434.397
101434.425
101434.455
101434.488
101434.523
101434.561
101434.602
101434.646
101434.693
101434.743
101434.797
101434.854
101434.915
101434.979
101435.048
101435.12
101435.197
101435.279
101435.365
101435.457
101435.553
101435.655
101435.763
101435.877
101435.998
101436.125
101436.259
101436.4
101436.549
101436.706
101436.871
101437.046
101437.234
101437.433
101437.643
101437.864
101438.096
101438.34
101438.598
101438.871
101439.158
101439.459
101439.775
101440.104
101440.448
101440.808
101441.183
101441.573
101441.975
101442.384
101442.792
101443.187
101443.559
101443.891
101444.177
101444.404
101444.59
101444.73
101444.905
101445.061
101444.956
101444.73
101444.764
101445.05
101444.826
101444.471
101444.872
101444.996
101437.411
101437.413
101437.417
101437.423
101437.432
101437.442
101437.454
101437.468
101437.485
101437.504
101437.525
101437.549
101437.575
101437.604
101437.635
101437.669
101437.706
101437.745
101437.787
101437.833
101437.881
101437.933
101437.988
101438.047
101438.109
101438.176
101438.246
101438.32
101438.399
101438.483
101438.571
101438.664
101438.762
101438.866
101438.976
101439.091
101439.214
101439.342
101439.478
101439.621
101439.772
101439.93
101440.097
101440.272
101440.456
101440.649
101440.851
101441.063
101441.287
101441.525
101441.777
101442.042
101442.318
101442.602
101442.897
101443.202
101443.525
101443.871
101444.231
101444.606
101444.997
101445.405
101445.834
101446.287
101446.771
101447.242
101447.661
101448.056
101448.399
101448.701
101448.956
101449.15
101449.32
101449.208
101448.674
101448.313
101448.69
101449.418
101449.777
101449.298
101440.3
101440.302
101440.306
101440.313
101440.321
101440.331
101440.344
101440.359
101440.376
101440.395
101440.416
101440.44
101440.467
101440.496
101440.527
101440.561
101440.598
101440.638
101440.68
101440.726
101440.774
101440.826
101440.881
101440.94
101441.002
101441.069
101441.139
101441.213
101441.291
101441.374
101441.462
101441.554
101441.651
101441.754
101441.863
101441.977
101442.097
101442.224
101442.357
101442.498
101442.646
101442.802
101442.966
101443.139
101443.321
101443.512
101443.712
101443.923
101444.145
101444.379
101444.624
101444.881
101445.149
101445.43
101445.724
101446.032
101446.356
101446.691
101447.037
101447.395
101447.765
101448.147
101448.538
101448.934
101449.326
101449.721
101450.112
101450.516
101450.993
101451.461
101451.842
101452.116
101452.261
101452.338
101452.486
101452.469
101451.926
101450.884
101450.784
101451.112
101442.906
101442.908
101442.913
101442.919
101442.927
101442.938
101442.95
101442.965
101442.981
101443
101443.022
101443.045
101443.071
101443.099
101443.13
101443.164
101443.2
101443.239
101443.28
101443.325
101443.372
101443.423
101443.477
101443.534
101443.595
101443.659
101443.727
101443.799
101443.876
101443.956
101444.041
101444.13
101444.225
101444.324
101444.429
101444.539
101444.655
101444.777
101444.906
101445.041
101445.184
101445.333
101445.491
101445.657
101445.831
101446.014
101446.207
101446.41
101446.624
101446.847
101447.082
101447.327
101447.583
101447.853
101448.136
101448.433
101448.745
101449.07
101449.406
101449.754
101450.113
101450.482
101450.858
101451.237
101451.614
101451.978
101452.343
101452.687
101453.007
101453.28
101453.568
101453.891
101454.229
101454.613
101454.849
101454.746
101454.618
101454.833
101454.814
101453.925
101445.237
101445.24
101445.244
101445.25
101445.258
101445.268
101445.28
101445.294
101445.31
101445.329
101445.349
101445.372
101445.397
101445.424
101445.454
101445.486
101445.52
101445.557
101445.597
101445.64
101445.685
101445.734
101445.785
101445.84
101445.898
101445.959
101446.024
101446.093
101446.165
101446.242
101446.323
101446.408
101446.497
101446.592
101446.691
101446.796
101446.906
101447.021
101447.143
101447.27
101447.405
101447.546
101447.694
101447.85
101448.014
101448.186
101448.367
101448.556
101448.755
101448.964
101449.183
101449.412
101449.653
101449.904
101450.168
101450.443
101450.731
101451.031
101451.343
101451.667
101452.002
101452.348
101452.707
101453.076
101453.454
101453.841
101454.233
101454.627
101454.979
101455.288
101455.589
101455.871
101456.076
101456.16
101456.274
101456.52
101456.739
101456.597
101456.325
101456.27
101447.304
101447.306
101447.31
101447.316
101447.324
101447.333
101447.344
101447.358
101447.373
101447.39
101447.409
101447.431
101447.454
101447.48
101447.508
101447.538
101447.57
101447.605
101447.642
101447.682
101447.725
101447.771
101447.819
101447.87
101447.924
101447.982
101448.043
101448.107
101448.175
101448.246
101448.322
101448.401
101448.484
101448.572
101448.664
101448.762
101448.864
101448.972
101449.085
101449.204
101449.329
101449.46
101449.598
101449.743
101449.895
101450.055
101450.223
101450.4
101450.585
101450.779
101450.983
101451.197
101451.421
101451.656
101451.902
101452.16
101452.429
101452.711
101453.005
101453.311
101453.63
101453.962
101454.308
101454.667
101455.039
101455.423
101455.819
101456.222
101456.631
101457.043
101457.423
101457.736
101457.976
101458.121
101458.168
101458.164
101458.004
101457.817
101457.648
101457.69
101449.124
101449.126
101449.129
101449.134
101449.141
101449.15
101449.16
101449.172
101449.186
101449.202
101449.219
101449.239
101449.26
101449.284
101449.31
101449.337
101449.367
101449.4
101449.434
101449.471
101449.51
101449.552
101449.596
101449.644
101449.694
101449.747
101449.803
101449.862
101449.924
101449.989
101450.058
101450.131
101450.207
101450.288
101450.374
101450.463
101450.557
101450.655
101450.76
101450.869
101450.984
101451.105
101451.232
101451.366
101451.507
101451.655
101451.81
101451.974
101452.146
101452.327
101452.517
101452.716
101452.926
101453.146
101453.378
101453.62
101453.875
101454.142
101454.422
101454.716
101455.024
101455.346
101455.683
101456.035
101456.404
101456.787
101457.185
101457.595
101458.012
101458.431
101458.842
101459.237
101459.596
101459.895
101460.121
101460.15
101460.008
101459.913
101459.679
101459.491
101450.711
101450.712
101450.715
101450.719
101450.725
101450.732
101450.741
101450.752
101450.764
101450.778
101450.794
101450.811
101450.83
101450.852
101450.875
101450.899
101450.926
101450.955
101450.986
101451.02
101451.055
101451.093
101451.133
101451.176
101451.221
101451.269
101451.319
101451.373
101451.429
101451.488
101451.55
101451.616
101451.685
101451.759
101451.836
101451.917
101452.003
101452.093
101452.188
101452.288
101452.393
101452.504
101452.62
101452.743
101452.872
101453.009
101453.152
101453.304
101453.463
101453.632
101453.809
101453.997
101454.194
101454.402
101454.622
101454.853
101455.097
101455.354
101455.625
101455.91
101456.211
101456.529
101456.862
101457.213
101457.581
101457.969
101458.374
101458.797
101459.235
101459.684
101460.139
101460.593
101461.036
101461.457
101461.833
101462.15
101462.399
101462.459
101462.303
101461.985
101452.089
101452.089
101452.091
101452.094
101452.098
101452.104
101452.111
101452.12
101452.13
101452.142
101452.155
101452.17
101452.187
101452.205
101452.225
101452.247
101452.271
101452.296
101452.323
101452.352
101452.384
101452.417
101452.452
101452.49
101452.529
101452.572
101452.616
101452.663
101452.713
101452.766
101452.822
101452.881
101452.944
101453.01
101453.079
101453.151
101453.228
101453.309
101453.394
101453.484
101453.58
101453.68
101453.787
101453.899
101454.018
101454.144
101454.277
101454.418
101454.567
101454.726
101454.893
101455.071
101455.259
101455.459
101455.67
101455.893
101456.128
101456.376
101456.638
101456.915
101457.211
101457.525
101457.859
101458.212
101458.586
101458.982
101459.4
101459.841
101460.306
101460.79
101461.292
101461.805
101462.321
101462.83
101463.318
101463.766
101464.15
101464.431
101464.602
101464.579
101453.267
101453.266
101453.266
101453.267
101453.269
101453.273
101453.278
101453.285
101453.293
101453.302
101453.312
101453.325
101453.338
101453.353
101453.37
101453.388
101453.408
101453.43
101453.453
101453.478
101453.505
101453.534
101453.565
101453.597
101453.632
101453.67
101453.709
101453.751
101453.796
101453.843
101453.892
101453.944
101453.998
101454.057
101454.119
101454.185
101454.254
101454.328
101454.406
101454.488
101454.575
101454.667
101454.764
101454.868
101454.977
101455.093
101455.216
101455.347
101455.486
101455.634
101455.79
101455.957
101456.134
101456.322
101456.521
101456.733
101456.955
101457.19
101457.438
101457.718
101458.032
101458.361
101458.707
101459.074
101459.462
101459.872
101460.304
101460.757
101461.236
101461.745
101462.28
101462.839
101463.415
101464.002
101464.587
101465.154
101465.68
101466.133
101466.485
101466.659
101454.274
101454.271
101454.269
101454.268
101454.268
101454.269
101454.272
101454.276
101454.281
101454.287
101454.295
101454.304
101454.314
101454.326
101454.339
101454.354
101454.37
101454.387
101454.406
101454.427
101454.449
101454.473
101454.499
101454.527
101454.556
101454.588
101454.621
101454.656
101454.693
101454.732
101454.775
101454.821
101454.869
101454.919
101454.972
101455.028
101455.087
101455.151
101455.218
101455.289
101455.364
101455.445
101455.531
101455.624
101455.723
101455.828
101455.942
101456.064
101456.196
101456.337
101456.489
101456.653
101456.83
101457.022
101457.232
101457.46
101457.711
101457.977
101458.251
101458.519
101458.791
101459.09
101459.415
101459.764
101460.137
101460.53
101460.948
101461.385
101461.897
101462.479
101463.076
101463.69
101464.324
101464.974
101465.638
101466.302
101466.944
101467.539
101468.049
101468.41
101455.106
101455.101
101455.096
101455.092
101455.09
101455.088
101455.088
101455.089
101455.091
101455.094
101455.099
101455.104
101455.111
101455.119
101455.129
101455.14
101455.152
101455.166
101455.181
101455.198
101455.216
101455.236
101455.257
101455.279
101455.303
101455.33
101455.358
101455.389
101455.422
101455.457
101455.493
101455.532
101455.573
101455.616
101455.663
101455.712
101455.765
101455.821
101455.881
101455.945
101456.013
101456.085
101456.163
101456.247
101456.336
101456.432
101456.535
101456.646
101456.765
101456.894
101457.032