/*--------------------------------*- C++ -*----------------------------------*\
  =========                 |
  \\      /  F ield         | OpenFOAM: The Open Source CFD Toolbox
   \\    /   O peration     | Website:  https://openfoam.org
    \\  /    A nd           | Version:  8
     \\/     M anipulation  |
\*---------------------------------------------------------------------------*/
FoamFile
{
    version     2.0;
    format      ascii;
    class       surfaceScalarField;
    location    "0.035";
    object      phi;
}
// * * * * * * * * * * * * * * * * * * * * * * * * * * * * * * * * * * * * * //

dimensions      [1 0 -1 0 0 0 0];

internalField   nonuniform List<scalar> 
84340
(
-7.04173378e-08
3.73606132e-07
-3.03194276e-07
-2.81100946e-07
1.12696544e-06
-9.16290829e-07
-6.36082566e-07
1.90879411e-06
-1.55382369e-06
-1.13964706e-06
2.71916395e-06
-2.2156126e-06
-1.79641466e-06
3.56029144e-06
-2.90353878e-06
-2.61132201e-06
4.43549379e-06
-3.62060309e-06
-3.58961747e-06
5.34837124e-06
-4.3700942e-06
-4.73682801e-06
6.30237022e-06
-5.15517995e-06
-6.05870969e-06
7.30059643e-06
-5.97873702e-06
-7.56118268e-06
8.34574034e-06
-6.84329182e-06
-9.25025042e-06
9.44007512e-06
-7.75103429e-06
-1.11319018e-05
1.05854883e-05
-8.70386646e-06
-1.32120001e-05
1.17835322e-05
-9.70346652e-06
-1.54961609e-05
1.30354803e-05
-1.07513554e-05
-1.79896137e-05
1.4342372e-05
-1.18489588e-05
-2.06970697e-05
1.57050637e-05
-1.29976514e-05
-2.36225665e-05
1.71242572e-05
-1.41988088e-05
-2.67693201e-05
1.86005269e-05
-1.54538269e-05
-3.01395588e-05
2.01343408e-05
-1.67641616e-05
-3.37343499e-05
2.17260682e-05
-1.81313433e-05
-3.75534122e-05
2.3375984e-05
-1.95569957e-05
-4.15949083e-05
2.50842644e-05
-2.10428507e-05
-4.58552107e-05
2.6850966e-05
-2.25907564e-05
-5.0328646e-05
2.86760051e-05
-2.42026739e-05
-5.50071921e-05
3.05591045e-05
-2.58806763e-05
-5.98801361e-05
3.24997349e-05
-2.76269241e-05
-6.49337091e-05
3.44970204e-05
-2.94435993e-05
-7.01506465e-05
3.65496238e-05
-3.13328592e-05
-7.55096443e-05
3.86555807e-05
-3.3296781e-05
-8.09847054e-05
4.08120628e-05
-3.53372282e-05
-8.65443701e-05
4.30151041e-05
-3.74557007e-05
-9.21509455e-05
4.52594159e-05
-3.96531404e-05
-9.77601017e-05
4.75385055e-05
-4.19296966e-05
-0.000103320906
4.98447756e-05
-4.42843705e-05
-0.000108775499
5.2168715e-05
-4.67145851e-05
-0.00011405567
5.44958929e-05
-4.92162546e-05
-0.000119074395
5.68027428e-05
-5.17846352e-05
-0.000123740104
5.90793457e-05
-5.44143413e-05
-0.000127964825
6.13186165e-05
-5.70947084e-05
-0.000131683218
6.35070532e-05
-5.97895947e-05
-0.000134762598
6.55705597e-05
-6.24922372e-05
-0.0001370112
6.74380502e-05
-6.51906273e-05
-0.000138129593
6.90106401e-05
-6.78936114e-05
-0.000137799587
7.02334584e-05
-7.05650221e-05
-0.000135697064
7.10089318e-05
-7.31132182e-05
-0.000131458943
7.12102143e-05
-7.54503188e-05
-0.000124721255
7.06911688e-05
-7.74311048e-05
-0.000115032131
6.93096018e-05
-7.9001228e-05
-0.000101832971
6.68773065e-05
-8.00792833e-05
-8.44836506e-05
6.31140211e-05
-8.04664664e-05
-6.24784075e-05
5.79690191e-05
-7.99777751e-05
-3.51918724e-05
5.11093516e-05
-7.83997945e-05
-2.4096819e-06
4.27218653e-05
-7.55084937e-05
3.68877632e-05
3.16609262e-05
-7.0963397e-05
8.37962072e-05
1.77893934e-05
-6.47035394e-05
0.000139522734
5.1639136e-07
-5.62493273e-05
0.000205369085
-2.00731543e-05
-4.5780805e-05
0.000282877519
-4.55926463e-05
-3.1924842e-05
0.00037386573
-7.65034516e-05
-1.44956079e-05
0.00047992645
-0.000113301808
7.2281813e-06
0.000603489109
-0.000156674328
3.30961161e-05
0.000746172575
-0.000207819889
6.51177203e-05
0.000909977105
-0.000267772686
0.000103945444
0.00109767776
-0.000337852761
0.000150124854
0.00131279324
-0.000419873288
0.000204725811
0.00155848646
-0.000514706619
0.000268978825
0.00183374794
-0.000619026302
0.000343729645
0.00214413982
-0.000744061546
0.000433633769
0.00249430529
-0.000879774647
0.00052957283
0.00285430657
-0.00099804042
0.000638002936
0.00323818656
-0.0012244729
0.000840557482
0.00376371394
-0.0015029986
0.000977435891
0.00434630984
-0.00153002186
0.00094739157
0.00471180973
-0.00162699268
0.00126146069
0.00504292224
-0.00205850106
0.00172735798
0.00565318029
-0.00243219757
0.00182191102
0.00644578086
-0.00245050431
0.00165788349
0.00696833647
-0.00249669128
0.00197412117
0.00718914905
-0.00275094914
0.00253014143
-0.00297473682
0.00280999761
0.00735391027
-5.81765318e-08
4.31739198e-07
-2.31925072e-07
1.30064879e-06
-5.24263893e-07
2.20105541e-06
-9.38518502e-07
3.13333009e-06
-1.47817998e-06
4.09985452e-06
-2.14706715e-06
5.10427318e-06
-2.94921255e-06
6.15039958e-06
-3.88881046e-06
7.24184164e-06
-4.97014822e-06
8.38179782e-06
-6.19752445e-06
9.57296981e-06
-7.57515124e-06
1.0817544e-05
-9.10704055e-06
1.21172079e-05
-1.07968734e-05
1.34731827e-05
-1.26478516e-05
1.48862625e-05
-1.46625449e-05
1.63568545e-05
-1.68427096e-05
1.78850019e-05
-1.91891091e-05
1.94704131e-05
-2.17013132e-05
2.11124691e-05
-2.43774784e-05
2.28102241e-05
-2.7214112e-05
2.45623985e-05
-3.02058124e-05
2.63673574e-05
-3.33449696e-05
2.82230691e-05
-3.66214456e-05
3.01270615e-05
-4.00221956e-05
3.20763442e-05
-4.35308431e-05
3.40673071e-05
-4.71271929e-05
3.60956031e-05
-5.07866643e-05
3.81559689e-05
-5.44796581e-05
4.02420499e-05
-5.8170959e-05
4.23462632e-05
-6.18192166e-05
4.44596469e-05
-6.53763515e-05
4.65715033e-05
-6.87859604e-05
4.86682223e-05
-7.19818887e-05
5.07335541e-05
-7.48911687e-05
5.27530889e-05
-7.74337665e-05
5.47102527e-05
-7.95279091e-05
5.65888872e-05
-8.10859057e-05
5.8359488e-05
-8.19676953e-05
5.9959764e-05
-8.19782232e-05
6.13276238e-05
-8.08727213e-05
6.23998811e-05
-7.83875219e-05
6.30835292e-05
-7.42447914e-05
6.32933032e-05
-6.81573132e-05
6.29209307e-05
-5.97814905e-05
6.18552017e-05
-4.87272838e-05
5.99520527e-05
-3.45745379e-05
5.70545578e-05
-1.67968186e-05
5.29102551e-05
5.10046201e-06
4.74088535e-05
3.13827475e-05
4.05912149e-05
6.23914936e-05
3.21010955e-05
9.93168227e-05
2.10391068e-05
0.000143084196
7.33699644e-06
0.000194784805
-8.98443173e-06
0.000255659305
-2.92200527e-05
0.000327183864
-5.37426258e-05
0.00041072454
-8.30328705e-05
0.000508230528
-0.000117589196
0.000620930849
-0.000158304705
0.00075044591
-0.000206032441
0.000898782018
-0.000261654435
0.00106826077
-0.000326172711
0.00126128489
-0.000400867024
0.00148020771
-0.000486721447
0.0017272222
-0.000584894334
0.00200483978
-0.000697518227
0.00231704914
-0.000826943622
0.00265948269
-0.000961487739
0.00302522725
-0.00110983433
0.00343242306
-0.00128699877
0.00387240682
-0.00143805258
0.00426257423
-0.00161466817
0.00467566577
-0.00191611748
0.00528022696
-0.0021346088
0.00584120704
-0.00218799637
0.00614595746
-0.0023632714
0.00636705852
-0.00265331547
0.00674123835
-0.00282469754
0.00716830741
-0.00292376768
0.007437139
-0.00301977827
-0.00312248187
0.00758489756
-4.64674841e-08
4.78153661e-07
-1.84697367e-07
1.438799e-06
-4.16450193e-07
2.43271343e-06
-7.43763322e-07
3.46053491e-06
-1.16885169e-06
4.52482222e-06
-1.69394403e-06
5.62923307e-06
-2.32141432e-06
6.77772563e-06
-3.05370043e-06
7.97397135e-06
-3.89316139e-06
9.22108954e-06
-4.84197592e-06
1.05216014e-05
-5.90202576e-06
1.18773962e-05
-7.0747609e-06
1.32897295e-05
-8.36104858e-06
1.47592396e-05
-9.76100287e-06
1.62859675e-05
-1.12737961e-05
1.78693784e-05
-1.28974573e-05
1.95083722e-05
-1.46286419e-05
2.12012833e-05
-1.64623903e-05
2.2945878e-05
-1.83918533e-05
2.47393203e-05
-2.04079895e-05
2.65781385e-05
-2.24992277e-05
2.84581675e-05
-2.46510807e-05
3.037446e-05
-2.68456996e-05
3.23211808e-05
-2.90613392e-05
3.42914442e-05
-3.12717886e-05
3.6277173e-05
-3.34457815e-05
3.82689655e-05
-3.55463531e-05
4.02558585e-05
-3.75299003e-05
4.222486e-05
-3.93472907e-05
4.41628549e-05
-4.09431302e-05
4.60546201e-05
-4.22560274e-05
4.78834634e-05
-4.32215474e-05
4.9632735e-05
-4.37668659e-05
5.12777831e-05
-4.37860179e-05
5.2771055e-05
-4.31488485e-05
5.40717939e-05
-4.16836712e-05
5.51223096e-05
-3.91884359e-05
5.5862725e-05
-3.54468123e-05
5.62164817e-05
-3.02184201e-05
5.60974121e-05
-2.32236941e-05
5.54031638e-05
-1.41868552e-05
5.40445149e-05
-2.78853191e-06
5.18926121e-05
1.13244597e-05
4.88053509e-05
2.86084073e-05
4.45684396e-05
4.9495426e-05
3.906195e-05
7.41242913e-05
3.24223094e-05
0.000103275418
2.37554536e-05
0.000137689726
1.29906595e-05
0.000178230833
4.58561136e-08
0.000225931039
-1.56039318e-05
0.000282073906
-3.51092511e-05
0.000347785288
-5.83805367e-05
0.000424716955
-8.5923077e-05
0.00051387483
-0.00011838584
0.000616594187
-0.000156471075
0.000734459862
-0.000200909024
0.000869335207
-0.000252476742
0.00102302649
-0.000312010062
0.0011974328
-0.000380455083
0.00139478157
-0.000459022175
0.00161734515
-0.000548757057
0.00186696977
-0.000650512786
0.00214476061
-0.000764533664
0.00245093736
-0.000891092753
0.00278486294
-0.00103146569
0.00314870599
-0.00119080896
0.00354248722
-0.00135529144
0.00394712123
-0.0015144912
0.00435719299
-0.00169709328
0.00481238752
-0.00189326998
0.00525537016
-0.00205767273
0.00559544331
-0.00225621174
0.00593982498
-0.00247901
0.00636878149
-0.00261697014
0.00670173674
-0.00269624008
0.00684959656
-0.00280118722
0.00695697187
-0.00293208441
0.00708417484
-0.00305097549
0.00722869979
-0.00316429892
-0.00325620228
0.00736243449
-3.85826771e-08
5.16638722e-07
-1.52230146e-07
1.55230418e-06
-3.41219268e-07
2.6215362e-06
-6.05981732e-07
3.72510933e-06
-9.47167474e-07
4.86579989e-06
-1.36540081e-06
6.04723909e-06
-1.86111699e-06
7.2731953e-06
-2.43445536e-06
8.54704351e-06
-3.08545773e-06
9.87180502e-06
-3.81374731e-06
1.12495822e-05
-4.61838161e-06
1.26816983e-05
-5.49769758e-06
1.41686883e-05
-6.44912781e-06
1.57102859e-05
-7.46900503e-06
1.7305432e-05
-8.55234151e-06
1.89522715e-05
-9.69257835e-06
2.06481326e-05
-1.08813221e-05
2.23895153e-05
-1.21080395e-05
2.41720458e-05
-1.33597157e-05
2.59904064e-05
-1.46204197e-05
2.7838209e-05
-1.58708006e-05
2.97078683e-05
-1.70875826e-05
3.15905124e-05
-1.82431238e-05
3.34759391e-05
-1.93057635e-05
3.53532442e-05
-2.02393535e-05
3.72098612e-05
-2.10030046e-05
3.90316479e-05
-2.15508065e-05
4.08026234e-05
-2.18320928e-05
4.25050365e-05
-2.17789688e-05
4.41085414e-05
-2.13107184e-05
4.55850967e-05
-2.03307096e-05
4.69020915e-05
-1.87186553e-05
4.80192162e-05
-1.63302474e-05
4.88877987e-05
-1.30080737e-05
4.9447192e-05
-8.56723025e-06
4.96291341e-05
-2.79814451e-06
4.93512655e-05
4.53469274e-06
4.85277786e-05
1.3679349e-05
4.70695612e-05
2.49136578e-05
4.48606708e-05
3.85448518e-05
4.17693602e-05
5.49776327e-05
3.76089347e-05
7.46248134e-05
3.22424264e-05
9.76460779e-05
2.57808466e-05
0.000124794548
1.74165519e-05
0.000156750295
7.10259116e-06
0.000194315577
-5.14690251e-06
0.000238372312
-2.0305583e-05
0.000289952169
-3.85938631e-05
0.000350398774
-6.04058556e-05
0.000420974139
-8.61848896e-05
0.000502391898
-0.000116533186
0.000596041674
-0.000152037155
0.000703453645
-0.000193342727
0.000826192205
-0.000241133022
0.000965881868
-0.000296170438
0.0011242169
-0.000359254966
0.00130295917
-0.000431231429
0.0015039789
-0.000513043879
0.00172887836
-0.000605369635
0.00197888772
-0.000709046806
0.00225515783
-0.000825042603
0.00255755363
-0.000952924299
0.00288445339
-0.0010914494
0.00323319317
-0.00123984893
0.00360018052
-0.00139846972
0.00397947174
-0.00157011731
0.00437268116
-0.00174851819
0.00477367644
-0.00191550405
0.00515569416
-0.00207912805
0.00551153158
-0.00224912322
0.00584968085
-0.00239583599
0.00611171883
-0.00251826499
0.00627046716
-0.00263777264
0.00640574132
-0.00275225545
0.0065687885
-0.00285929497
0.00672510158
-0.00295750681
0.0068455197
-0.00305250637
0.00694036273
-0.0031458178
0.00702044006
-0.00324436846
-0.00334561366
0.00710986458
-3.55330368e-08
5.52057311e-07
-1.38693713e-07
1.65529889e-06
-3.08107947e-07
2.79075692e-06
-5.42452175e-07
3.95923505e-06
-8.40380439e-07
5.16348641e-06
-1.20055563e-06
6.40714997e-06
-1.62132009e-06
7.69367259e-06
-2.10053902e-06
9.02595152e-06
-2.63523839e-06
1.04061684e-05
-3.22192845e-06
1.18359096e-05
-3.85620512e-06
1.33155836e-05
-4.53255168e-06
1.48446125e-05
-5.24412312e-06
1.64214016e-05
-5.98250176e-06
1.8043319e-05
-6.73742252e-06
1.97066619e-05
-7.49646142e-06
2.14065995e-05
-8.24466376e-06
2.31371008e-05
-8.96416028e-06
2.48908775e-05
-9.63387267e-06
2.66594025e-05
-1.0229613e-05
2.84331773e-05
-1.07236927e-05
3.02011156e-05
-1.1084546e-05
3.19504714e-05
-1.127399e-05
3.36644228e-05
-1.12462839e-05
3.53245052e-05
-1.09484293e-05
3.69108956e-05
-1.03181798e-05
3.84002055e-05
-9.28182904e-06
3.97649921e-05
-7.75067449e-06
4.0972506e-05
-5.62652385e-06
4.19829129e-05
-2.79236515e-06
4.27493538e-05
8.91186556e-07
4.32168392e-05
5.5881996e-06
4.33203722e-05
1.14855695e-05
4.29884599e-05
1.8781618e-05
4.21490322e-05
2.77037629e-05
4.07047256e-05
3.84985834e-05
3.85540199e-05
5.14523072e-05
3.55714563e-05
6.69187811e-05
3.16003088e-05
8.52838708e-05
2.64926023e-05
0.000106725373
2.0324658e-05
0.000131951301
1.23796369e-05
0.000161582014
2.60817504e-06
0.000196321836
-8.96280898e-06
0.000236960749
-2.32265263e-05
0.000284412694
-4.03538391e-05
0.00033996531
-6.0704347e-05
0.000404382951
-8.47284336e-05
0.000478716967
-0.000112933507
0.000564169523
-0.000145864518
0.000662083006
-0.000184105031
0.000773827297
-0.000228284747
0.000900854661
-0.000279072426
0.00104465756
-0.000337154244
0.00120676242
-0.000403247312
0.00138866699
-0.000478085456
0.00159187949
-0.000562478932
0.00181767017
-0.000657034042
0.00206673815
-0.000762123713
0.00233895675
-0.000877600038
0.00263295775
-0.00100305968
0.00294743343
-0.00113953023
0.00327994657
-0.00128544963
0.00362662197
-0.00143813716
0.00398052372
-0.00159376341
0.00433663448
-0.00175459332
0.00468490675
-0.00191840276
0.00501718641
-0.00208081061
0.00532652545
-0.00222485541
0.00559674204
-0.00234935688
0.00580519015
-0.00245758218
0.00596703455
-0.00255769114
0.00610277086
-0.00265401132
0.00622039347
-0.00275540232
0.00632101488
-0.00285288418
0.00641386097
-0.00295214743
0.00650420251
-0.00304785185
0.00659171654
-0.00314002002
0.00668041333
-0.00323451048
0.00676923194
-0.0033331764
-0.00343445307
0.00685808547
-3.63329998e-08
5.88237269e-07
-1.40099368e-07
1.75884592e-06
-3.08087722e-07
2.95849137e-06
-5.36997528e-07
4.18785946e-06
-8.23296471e-07
5.44947065e-06
-1.16304765e-06
6.74655808e-06
-1.55190377e-06
8.08215691e-06
-1.98489956e-06
9.45854556e-06
-2.45586957e-06
1.08767052e-05
-2.9573078e-06
1.23368812e-05
-3.4804556e-06
1.38382291e-05
-4.01490551e-06
1.53785219e-05
-4.5483183e-06
1.69542329e-05
-5.06612203e-06
1.85604972e-05
-5.55118696e-06
2.01910541e-05
-5.98352262e-06
2.18382116e-05
-6.34028025e-06
2.349308e-05
-6.59421929e-06
2.51439813e-05
-6.71343694e-06
2.67777247e-05
-6.66114972e-06
2.83799289e-05
-6.39470287e-06
2.99336358e-05
-5.86444494e-06
3.14191052e-05
-5.01400161e-06
3.28127922e-05
-3.77827522e-06
3.40875063e-05
-2.07949294e-06
3.52107513e-05
1.74399277e-07
3.61448556e-05
3.09196298e-06
3.68458635e-05
6.80062983e-06
3.72621602e-05
1.14378761e-05
3.7343871e-05
1.71613703e-05
3.702394e-05
2.41514665e-05
3.62246917e-05
3.26106282e-05
3.48590202e-05
4.2769435e-05
3.28273159e-05
5.49115464e-05
3.00044314e-05
6.93827987e-05
2.62308299e-05
8.6403209e-05
2.15307918e-05
0.000106293161
1.5678493e-05
0.000129683673
8.20664235e-06
0.000157116265
-9.43281085e-07
0.000189200759
-1.17633661e-05
0.000226644487
-2.5067886e-05
0.000270246141
-4.09975156e-05
0.000321151949
-5.98729051e-05
0.000380038979
-8.21181139e-05
0.00044787184
-0.000108191542
0.000525753391
-0.000138591053
0.000614869466
-0.000173850013
0.000716465343
-0.000214535252
0.000831841822
-0.000261247226
0.000962323354
-0.000314593178
0.00110920988
-0.000375178305
0.00127375063
-0.000443620715
0.00145710216
-0.000520513912
0.00166034908
-0.000606502984
0.00188422357
-0.000701968875
0.00212893662
-0.000807200738
0.00239408037
-0.000922186401
0.00267820242
-0.00104625434
0.00297868351
-0.00117808969
0.00329111804
-0.00131550291
0.00361129366
-0.00145971463
0.0039342819
-0.00160844689
0.00425752439
-0.00176138886
0.00457189121
-0.00190813966
0.00486515899
-0.00204786997
0.00512040624
-0.00217365813
0.00533120153
-0.00229161374
0.0055006279
-0.00239429066
0.00563979857
-0.0024885349
0.00576188608
-0.00257967641
0.00586973566
-0.00266554779
0.00596840601
-0.00275268783
0.00605487783
-0.00284187922
0.00613520801
-0.00293321777
0.00620972169
-0.00302666215
0.00628305062
-0.00312118016
0.00636078394
-0.0032177497
0.00644398166
-0.00331770156
0.00653550472
-0.00342469043
-0.00352965532
0.0066307191
-3.87011774e-08
6.26772519e-07
-1.4755819e-07
1.86746591e-06
-3.21207994e-07
3.13186727e-06
-5.53931325e-07
4.42027509e-06
-8.39501978e-07
5.7347019e-06
-1.17095879e-06
7.07764457e-06
-1.54038162e-06
8.45117812e-06
-1.93872273e-06
9.85645209e-06
-2.35583237e-06
1.12933451e-05
-2.77945723e-06
1.2759999e-05
-3.19514983e-06
1.42533746e-05
-3.58615109e-06
1.57689328e-05
-3.93309807e-06
1.73005427e-05
-4.21339146e-06
1.88401032e-05
-4.40082642e-06
2.03777489e-05
-4.46492283e-06
2.19015095e-05
-4.37060986e-06
2.33979049e-05
-4.07782211e-06
2.48502658e-05
-3.54045602e-06
2.62393612e-05
-2.70478854e-06
2.75431882e-05
-1.50757784e-06
2.87352694e-05
1.25135433e-07
2.97851467e-05
2.27805023e-06
3.06585381e-05
5.04718363e-06
3.13169336e-05
8.54218673e-06
3.17142024e-05
1.28883363e-05
3.17970466e-05
1.82285775e-05
3.15038422e-05
2.47254292e-05
3.07634005e-05
3.25726939e-05
2.94945634e-05
4.19906483e-05
2.76037995e-05
5.32372287e-05
2.49757771e-05
6.65887253e-05
2.15050282e-05
8.22623234e-05
1.71510391e-05
0.000100668834
1.15950854e-05
0.000122266747
4.6299787e-06
0.000147535522
-3.74108839e-06
0.000177045151
-1.3834502e-05
0.000211425732
-2.61775557e-05
0.000251373522
-4.08949148e-05
0.000297896427
-5.8290354e-05
0.000351594414
-7.87702017e-05
0.000413340099
-0.00010274779
0.000484133589
-0.000130671253
0.000565035294
-0.000163024977
0.00065716195
-0.000200323644
0.000761671331
-0.000243106158
0.00087972871
-0.000291913383
0.00101247019
-0.000347283007
0.00116095297
-0.000409736562
0.00132612427
-0.000479771367
0.00150875806
-0.000557819369
0.00170952181
-0.000644392145
0.00192869748
-0.000739697277
0.00216599849
-0.000843811381
0.00242034308
-0.000956320575
0.00268974054
-0.00107660511
0.0029714943
-0.00120394692
0.00326217279
-0.00133693955
0.00355717312
-0.00147309673
0.00385013614
-0.00160847276
0.00413625691
-0.00174584231
0.00440876834
-0.00188096525
0.0046558023
-0.00200842918
0.0048703596
-0.00212270323
0.00504720324
-0.00222472065
0.00518852563
-0.00231498794
0.0053031254
-0.00240622008
0.00540739344
-0.00249856409
0.00550634143
-0.00258748752
0.00559632925
-0.00266966888
0.00567773769
-0.00274696001
0.00575433576
-0.00282928947
0.0058281183
-0.00291566418
0.00590051862
-0.00300561892
0.00597661702
-0.00310276003
0.00605543027
-0.00319999148
0.0061383097
-0.00330062576
0.00622502823
-0.00340441401
0.00631927388
-0.00351892644
-0.00362554858
0.00641517913
-3.99733381e-08
6.66552757e-07
-1.4983e-07
1.97704807e-06
-3.21402476e-07
3.30312353e-06
-5.45972624e-07
4.64449075e-06
-8.13950774e-07
6.00228967e-06
-1.11457524e-06
7.37784368e-06
-1.43560627e-06
8.77174844e-06
-1.76300562e-06
1.01833539e-05
-2.08067645e-06
1.16104792e-05
-2.37017438e-06
1.30489186e-05
-2.60992796e-06
1.44925057e-05
-2.77499321e-06
1.59333273e-05
-2.83657121e-06
1.73613977e-05
-2.76133231e-06
1.8764086e-05
-2.51081085e-06
2.01263911e-05
-2.04086818e-06
2.1430667e-05
-1.30014852e-06
2.26562163e-05
-2.2976524e-07
2.37788409e-05
1.23774017e-06
2.47707363e-05
3.17961713e-06
2.56001087e-05
5.68437052e-06
2.62292251e-05
8.8526699e-06
2.6615461e-05
1.28004059e-05
2.67093142e-05
1.76617558e-05
2.64539883e-05
2.35902984e-05
2.57839508e-05
3.07612903e-05
2.46242249e-05
3.93742322e-05
2.28889428e-05
4.96608279e-05
2.04747137e-05
6.18737503e-05
1.72794055e-05
7.62102661e-05
1.326489e-05
9.30714547e-05
8.11205934e-06
0.000112847974
1.72585646e-06
0.000135972444
-5.9762587e-06
0.000162936415
-1.53719179e-05
0.000194264846
-2.67016793e-05
0.000230706888
-4.01865594e-05
0.000273000528
-5.61317766e-05
0.000321706332
-7.48872085e-05
0.000377626527
-9.68191752e-05
0.00044166661
-0.00012233473
0.000514763619
-0.00015187174
0.000597904741
-0.000185893673
0.000692114402
-0.000224885881
0.000798421105
-0.000269336849
0.000917823761
-0.000319731658
0.00105124881
-0.000376536756
0.00119951206
-0.000440182361
0.001363267
-0.000511043863
0.00154294911
-0.000589424824
0.00173877121
-0.000675599918
0.00195058132
-0.000769635914
0.00217768773
-0.000871504661
0.0024186855
-0.000980700834
0.00267135041
-0.00109648184
0.00293247008
-0.00121744558
0.00319825177
-0.00134239205
0.00346383687
-0.00146953717
0.00372579139
-0.00159889928
0.00397836794
-0.00172567848
0.00421639833
-0.00184650815
0.00442716202
-0.00195661087
0.00460610575
-0.00205991364
0.00474941653
-0.0021517446
0.00486839379
-0.00224168652
0.00497307448
-0.00232940675
0.0050712073
-0.00241312515
0.00515662597
-0.00249164307
0.00522907269
-0.00257101488
0.00529724049
-0.00265565867
0.00536751775
-0.00273994921
0.00543840358
-0.00281784855
0.00550957529
-0.00290046381
0.00558185379
-0.0029879443
0.005655089
-0.00307885485
0.00573234077
-0.00318001152
0.00581486956
-0.00328251893
0.0059022471
-0.00338800005
0.00599624644
-0.00349840764
0.00609474723
-0.00361741949
-0.00372569831
0.00619490599
-3.65814398e-08
7.02935549e-07
-1.33715922e-07
2.07390067e-06
-2.80005388e-07
3.44908857e-06
-4.63009233e-07
4.82713097e-06
-6.6892414e-07
6.20780396e-06
-8.82198558e-07
7.59068126e-06
-1.0850767e-06
8.97415295e-06
-1.25715139e-06
1.03549161e-05
-1.37488225e-06
1.17276564e-05
-1.41121136e-06
1.30846503e-05
-1.33512582e-06
1.44157756e-05
-1.11077822e-06
1.57082837e-05
-6.96665934e-07
1.69465338e-05
-4.51547948e-08
1.8111764e-05
8.98258338e-07
1.91821033e-05
2.19606523e-06
2.01319166e-05
3.91963628e-06
2.09316278e-05
6.15071577e-06
2.15466653e-05
8.98292226e-06
2.19373499e-05
1.25232474e-05
2.20585125e-05
1.68938893e-05
2.18572146e-05
2.22344869e-05
2.12733915e-05
2.87039865e-05
2.02382328e-05
3.6483096e-05
1.86731799e-05
4.57800292e-05
1.64851959e-05
5.68269975e-05
1.35753013e-05
6.9815785e-05
9.89805613e-06
8.51003309e-05
5.18793968e-06
0.000103025783
-6.48405426e-07
0.000123975215
-7.68707392e-06
0.000148383754
-1.62991967e-05
0.000176746748
-2.66400359e-05
0.000209705742
-3.89383392e-05
0.000247801452
-5.34709119e-05
0.000291639534
-7.05432475e-05
0.000341938248
-9.04889685e-05
0.000399477167
-0.000113674607
0.000465078334
-0.000140492515
0.000539613541
-0.000171358741
0.000623984319
-0.00020671007
0.000719096642
-0.000246988814
0.000825834204
-0.000292636172
0.000945021516
-0.000344078295
0.00107738819
-0.000401708791
0.00122351973
-0.000465868601
0.00138380255
-0.000536825117
0.00155837025
-0.000614755759
0.0017470555
-0.00069973502
0.00194936133
-0.000791736551
0.00216425438
-0.000890498611
0.00239006155
-0.000995448345
0.00262437107
-0.00110581915
0.00286414182
-0.00122047629
0.00310594522
-0.00133828975
0.00334531186
-0.0014568166
0.00357809006
-0.00157517458
0.00379978923
-0.0016912405
0.004002073
-0.00180118694
0.00417892183
-0.00190253104
0.00432937604
-0.00199696665
0.00445357953
-0.00208081841
0.00455589111
-0.00216222867
0.00464304133
-0.00223889923
0.00471902162
-0.00231767118
0.00478961092
-0.00240000023
0.0048585039
-0.00248202235
0.00492745335
-0.00256059599
0.00499136927
-0.00263493412
0.00504831133
-0.00271260435
0.00510700605
-0.00279864739
0.00517349774
-0.0028843428
0.00524207568
-0.00296904434
0.00531188028
-0.00305775094
0.00538411737
-0.00315109361
0.00545703818
-0.0032529332
0.00553235777
-0.00335783849
0.00561343645
-0.00346907708
0.00570303485
-0.00358800278
0.00580101512
-0.0037153935
-0.00382748094
0.00590280673
-2.8034423e-08
7.30750895e-07
-9.59648276e-08
2.14152059e-06
-1.87942563e-07
3.5407093e-06
-2.86537696e-07
4.92532634e-06
-3.72260714e-07
6.2930868e-06
-4.23062873e-07
7.64100374e-06
-4.13787559e-07
8.96435807e-06
-3.15585408e-07
1.02561525e-05
-9.5267329e-08
1.15067326e-05
2.85295057e-07
1.27034352e-05
8.69765399e-07
1.38306022e-05
1.70813424e-06
1.48691575e-05
2.8575127e-06
1.57963397e-05
4.38306186e-06
1.65853365e-05
6.35900807e-06
1.72052122e-05
8.87051444e-06
1.7619394e-05
1.20146947e-05
1.77863537e-05
1.59022551e-05
1.76579281e-05
2.06591882e-05
1.71791519e-05
2.642914e-05
1.62872014e-05
3.33745328e-05
1.49103619e-05
4.16815409e-05
1.29648174e-05
5.15611062e-05
1.03569864e-05
6.31971189e-05
7.0353612e-06
7.68989338e-05
2.78146042e-06
9.29702116e-05
-2.49801499e-06
0.00011175068
-8.88460223e-06
0.000133624619
-1.6688352e-05
0.000159025772
-2.60520702e-05
0.000188519644
-3.71836264e-05
0.000222551264
-5.03336724e-05
0.000261681394
-6.57732041e-05
0.000306539869
-8.38000399e-05
0.000357806435
-0.0001047409
0.000416205796
-0.000128946235
0.000482501422
-0.000156788425
0.000557482104
-0.000188659306
0.000641943676
-0.000224958289
0.00073666679
-0.000266086227
0.000842386093
-0.00031243391
0.000959759727
-0.000364367134
0.00108932756
-0.000422208833
0.00123146229
-0.000486217971
0.0013863146
-0.000556566163
0.00155375583
-0.000633314995
0.00173332844
-0.000716403032
0.00192423202
-0.000805664742
0.00212523241
-0.000900740678
0.00233453353
-0.00100104259
0.00254964808
-0.00110561779
0.00276746383
-0.00121326845
0.0029844424
-0.00132280188
0.0031970024
-0.00143304026
0.00340214347
-0.00154343474
0.00359515388
-0.00164983085
0.00376992019
-0.00174994445
0.003920125
-0.00184144855
0.00404444772
-0.00192551297
0.00414685704
-0.00200494441
0.00423389215
-0.0020840057
0.0043160247
-0.00216295406
0.0043923851
-0.00223859272
0.00446393238
-0.00231044976
0.00452247288
-0.00237621467
0.00456921905
-0.00244674989
0.0046126654
-0.00252547282
0.0046586385
-0.00260657281
0.00471167603
-0.00268797508
0.00476732505
-0.00276825672
0.00482098952
-0.00285231534
0.00487885077
-0.0029422084
0.00494475043
-0.00303494796
0.00501329158
-0.00312629494
0.00508353234
-0.00322133749
0.00515551172
-0.00332491559
0.00522979944
-0.00343212805
0.00530510516
-0.00354438293
0.00538336574
-0.00366626176
0.00546899075
-0.00380101418
-0.0039247415
0.00556625865
-1.30667357e-08
7.4359744e-07
-3.18525485e-08
2.15999414e-06
-3.47087245e-08
3.5432062e-06
2.35980024e-09
4.88785516e-06
1.06290118e-07
6.18871266e-06
3.0760429e-07
7.43920524e-06
6.41022413e-07
8.63041445e-06
1.14612371e-06
9.75048271e-06
1.86807659e-06
1.07841655e-05
2.85834879e-06
1.17124998e-05
4.17574445e-06
1.25124906e-05
5.88739239e-06
1.31567367e-05
8.06947053e-06
1.3613428e-05
1.08093735e-05
1.38445348e-05
1.42065831e-05
1.38070324e-05
1.83741134e-05
1.34508164e-05
2.34401969e-05
1.27191409e-05
2.95499617e-05
1.15469458e-05
3.68685414e-05
9.85926108e-06
4.55837605e-05
7.5705693e-06
5.58700005e-05
4.62259852e-06
6.79956741e-05
8.37514942e-07
8.22276484e-05
-3.87672591e-06
9.88652072e-05
-9.60407136e-06
0.000118245154
-1.66005052e-05
0.000140742878
-2.4997905e-05
0.000166843236
-3.49872806e-05
0.00019694257
-4.67901684e-05
0.000231535107
-6.06472609e-05
0.000271171882
-7.68232316e-05
0.00031644325
-9.56080568e-05
0.000367980463
-0.00011731363
0.0004264489
-0.000142271886
0.000492537191
-0.000170832791
0.000566942852
-0.00020335568
0.000650353887
-0.000240203427
0.000743423767
-0.000281733325
0.000846745862
-0.000328284689
0.000960819163
-0.000380163984
0.00108600769
-0.000437627039
0.00122249461
-0.000500858765
0.00137023172
-0.000569950775
0.00152888683
-0.000644877997
0.00169779259
-0.000725476941
0.00187590953
-0.000811437078
0.00206184095
-0.000902339594
0.00225372886
-0.000997557544
0.00244919786
-0.00109621428
0.00264535259
-0.00119720164
0.00283893847
-0.00129920777
0.00302644366
-0.00140077758
0.00320418274
-0.00150054475
0.003369894
-0.00159875509
0.00351796208
-0.00169150622
0.00364583007
-0.00177770205
0.00375232689
-0.00185644495
0.00384038978
-0.00192951514
0.00391712382
-0.00200225019
0.00398498887
-0.00207281282
0.00404583334
-0.00214485381
0.004101166
-0.00221829
0.004155057
-0.00229248709
0.00421012615
-0.00236552247
0.00426721215
-0.00243330424
0.00431778646
-0.00249732736
0.00436291787
-0.00257060702
0.00440678961
-0.00265044773
0.00445070112
-0.00273189013
0.00449912526
-0.00281668433
0.00455007348
-0.00290326673
0.00459951247
-0.00299165171
0.00465103914
-0.00308647989
0.00471039096
-0.00318565139
0.00477714958
-0.0032881006
0.0048504352
-0.00339820496
0.00493026391
-0.00351195967
0.00501178821
-0.00362590857
0.00509562865
-0.00375010169
0.00517763114
-0.00388301314
-0.00401403901
0.00526693565
8.92656597e-09
7.34431162e-07
6.12665416e-08
2.10731439e-06
1.85928717e-07
3.41815321e-06
4.15105001e-07
4.658241e-06
7.84976575e-07
5.81835889e-06
1.33643688e-06
6.88721934e-06
2.11584773e-06
7.85043401e-06
3.17592201e-06
8.68979306e-06
4.57664467e-06
9.382779e-06
6.38628937e-06
9.9021395e-06
8.6821411e-06
1.02158684e-05
1.15526651e-05
1.02853834e-05
1.5098171e-05
1.00670284e-05
1.94324534e-05
9.50928916e-06
2.46849721e-05
8.55347702e-06
3.1001514e-05
7.13315899e-06
3.85330989e-05
5.18635437e-06
4.74700557e-05
2.60869399e-06
5.80287947e-05
-7.0086376e-07
7.04406926e-05
-4.84280956e-06
8.49677453e-05
-9.9060499e-06
0.000101904344
-1.61008032e-05
0.000121575322
-2.35495486e-05
0.000144393403
-3.24241318e-05
0.000170710247
-4.29194697e-05
0.000200958761
-5.52486895e-05
0.000235615589
-6.96465357e-05
0.000275192413
-8.63695852e-05
0.000320236767
-0.000105694384
0.000371326285
-0.000127915698
0.000429060177
-0.000153345074
0.000494047953
-0.00018230471
0.000566894685
-0.000215122096
0.000648181112
-0.00025212287
0.000738442386
-0.000293620773
0.000838140372
-0.000339905397
0.000947630418
-0.000391227505
0.00106712354
-0.000447782093
0.00119664444
-0.000509689289
0.00133598711
-0.00057697423
0.00148466986
-0.000649546133
0.00164189314
-0.000727178767
0.0018065045
-0.000809494151
0.00197698069
-0.000895958063
0.00215147526
-0.000985936535
0.0023277551
-0.00107862411
0.00250316232
-0.00117296918
0.00267472743
-0.0012677836
0.00283942057
-0.00136189881
0.00299438122
-0.00145417238
0.0031369147
-0.00154331496
0.00326506899
-0.00162870273
0.00337479225
-0.00170848171
0.00346626729
-0.00178298455
0.00354272481
-0.00185416343
0.00361000176
-0.0019237256