/*--------------------------------*- C++ -*----------------------------------*\
  =========                 |
  \\      /  F ield         | OpenFOAM: The Open Source CFD Toolbox
   \\    /   O peration     | Website:  https://openfoam.org
    \\  /    A nd           | Version:  8
     \\/     M anipulation  |
\*---------------------------------------------------------------------------*/
FoamFile
{
    version     2.0;
    format      ascii;
    class       volVectorField;
    location    "0.035";
    object      U;
}
// * * * * * * * * * * * * * * * * * * * * * * * * * * * * * * * * * * * * * //

dimensions      [0 1 -1 0 0 0 0];

internalField   nonuniform List<vector> 
42400
(
(-0.0207564422 0.0198615268 -1.01797291e-26)
(-0.0612179443 0.0574850673 3.33118836e-26)
(-0.101281318 0.0934167638 3.36098134e-26)
(-0.140932929 0.127592958 0)
(-0.180240425 0.160102135 0)
(-0.219334009 0.191065249 -9.26538265e-28)
(-0.258346542 0.220596107 0)
(-0.297386996 0.248786078 1.02569734e-27)
(-0.33653397 0.275698769 0)
(-0.375836521 0.301370639 1.13545831e-27)
(-0.415317915 0.325815183 1.19463241e-27)
(-0.454980466 0.34902848 -1.25684908e-27)
(-0.494810426 0.370994847 -9.44324861e-27)
(-0.534782284 0.391691955 -5.78451221e-27)
(-0.57486223 0.411095135 -1.46319422e-27)
(-0.615010743 0.429180834 0)
(-0.655184456 0.445929324 0)
(-0.695337431 0.461326774 0)
(-0.735421978 0.475366841 0)
(-0.775389122 0.488051859 0)
(-0.815188778 0.49939372 0)
(-0.854769654 0.50941448 -4.16127091e-27)
(-0.894078891 0.518146726 3.17395952e-26)
(-0.933061398 0.525633707 7.8337089e-26)
(-0.971658857 0.53192924 4.68951336e-26)
(-1.00980835 0.537097367 -5.07940487e-27)
(-1.04744062 0.54121176 -5.3382007e-27)
(-1.08447791 0.544354891 1.12199464e-26)
(-1.12083114 0.54661707 0)
(-1.15639642 0.548095395 0)
(-1.19105055 0.548892608 -8.05175398e-26)
(-1.22464609 0.549115812 -8.63258119e-26)
(-1.25700718 0.548874186 1.43880584e-26)
(-1.28792539 0.548273625 9.77150008e-26)
(-1.31714886 0.547407104 8.71809319e-26)
(-1.34437451 0.546348208 0)
(-1.36934948 0.54521671 0)
(-1.39190273 0.544218515 0)
(-1.41126469 0.54426128 0)
(-1.42740937 0.54371809 2.82310391e-25)
(-1.43931791 0.543493955 3.28179076e-25)
(-1.44609003 0.543914432 2.74934287e-25)
(-1.4487642 0.543447206 2.82866534e-25)
(-1.44381079 0.546394601 -5.18602753e-26)
(-1.43070407 0.550193747 5.39977903e-26)
(-1.40717913 0.554382348 -1.33960097e-25)
(-1.36905276 0.55982608 6.60788875e-26)
(-1.31661448 0.564193419 2.79332069e-25)
(-1.24652884 0.569304636 7.25572882e-26)
(-1.15586983 0.575219305 4.09068489e-25)
(-1.04200769 0.581808756 3.96603368e-33)
(-0.902653691 0.589126962 -6.147586e-25)
(-0.736502278 0.596586496 -6.69578747e-25)
(-0.536607391 0.605100488 1.75838199e-25)
(-0.308551617 0.615260681 0)
(-0.0371259676 0.631057902 0)
(0.262930657 0.651133582 0)
(0.627189576 0.67037144 -2.29622677e-25)
(1.05534762 0.686194558 -2.55477514e-25)
(1.54990213 0.702253822 0)
(2.11385293 0.721236963 3.39853527e-24)
(2.75743053 0.742882463 3.82278903e-24)
(3.48425602 0.766203672 -3.90709699e-24)
(4.29953873 0.791053112 -4.57168645e-24)
(5.21247591 0.817391964 0)
(6.23007438 0.850089098 0)
(7.34146398 0.887425496 -4.36838389e-24)
(8.59302519 0.895533646 -3.97826112e-24)
(9.86431458 0.988587705 -3.9904423e-25)
(11.111723 1.11571725 0)
(13.1010909 0.553803203 0)
(14.7528022 0.36579872 -2.33545049e-26)
(15.0472261 2.15361644 4.84864776e-25)
(16.6470371 2.00614022 0)
(19.4361081 -0.115335948 -4.85831566e-26)
(20.8139531 -0.679543099 1.8187722e-23)
(20.9473709 1.59632133 -1.5765287e-24)
(21.5009343 2.76060962 -4.82705225e-25)
(22.9721747 1.63750622 -3.14501711e-24)
(23.3272379 0.52976285 7.9156576e-25)
(-0.0255759153 0.0226508548 0)
(-0.0750918648 0.0656329726 2.75489037e-26)
(-0.123762701 0.106824252 2.69725415e-26)
(-0.171578613 0.146179447 0)
(-0.218633582 0.183800189 0)
(-0.265075225 0.219817136 2.08943725e-26)
(-0.311051125 0.254351885 2.02125278e-26)
(-0.356680723 0.287501761 1.3274478e-27)
(-0.402048183 0.31933451 0)
(-0.447203008 0.349888862 1.4670097e-27)
(-0.492163823 0.379178528 1.54196721e-27)
(-0.536923351 0.407197539 -6.74919835e-27)
(-0.58145355 0.433925811 -4.83312581e-27)
(-0.625710287 0.459334326 4.6875455e-28)
(-0.66963724 0.483389659 -6.3347779e-27)
(-0.71316896 0.506057777 -4.72903967e-27)
(-0.756233175 0.52730715 0)
(-0.79875242 0.547111257 4.36393939e-27)
(-0.840645088 0.565450574 0)
(-0.881826002 0.582314127 0)
(-0.92220653 0.597700684 0)
(-0.961694278 0.611619604 3.30122941e-26)
(-1.00019237 0.624091409 8.19570981e-26)
(-1.0375983 0.635148087 4.93195218e-26)
(-1.07380229 0.644833146 0)
(-1.10868513 0.653201428 -1.27632933e-26)
(-1.14211531 0.660318661 -6.66236126e-27)
(-1.1739455 0.666260723 1.39458655e-26)
(-1.20400862 0.671112269 7.7725865e-26)
(-1.23211249 0.674963298 8.34063816e-26)
(-1.25803161 0.67790462 -1.60817902e-26)
(-1.28149565 0.68002683 -1.67771475e-26)
(-1.30222077 0.681442532 1.33305639e-25)
(-1.31994552 0.682270199 1.01557323e-25)
(-1.33442448 0.682613083 -1.4544881e-25)
(-1.34497457 0.683084499 -1.99665987e-25)
(-1.35155722 0.682864493 0)
(-1.35328125 0.682776137 2.10362004e-26)
(-1.35004298 0.682564684 0)
(-1.34157366 0.6833616 4.83079265e-26)
(-1.32460223 0.685010502 4.53726219e-26)
(-1.29822178 0.686390353 4.24623619e-26)
(-1.25911017 0.688352979 5.73858656e-26)
(-1.20753845 0.689297932 -5.84492324e-26)
(-1.14086747 0.690758073 1.19643158e-25)
(-1.05726409 0.692815504 -6.10593524e-26)
(-0.954211601 0.695517437 6.23786538e-26)
(-0.829130353 0.698699548 1.66620448e-25)
(-0.680044888 0.701562674 3.35742994e-25)
(-0.502545889 0.704596152 0)
(-0.300912952 0.708832068 -7.62087752e-26)
(-0.0629869866 0.718254507 1.50946239e-25)
(0.197538347 0.732290566 1.6843089e-25)
(0.514388176 0.746030647 3.6960935e-25)
(0.886225745 0.756945628 1.82847461e-25)
(1.31759076 0.768245952 1.90226968e-24)
(1.80990908 0.782441238 2.15732555e-24)
(2.37217832 0.79992625 -2.08690608e-25)
(3.00803287 0.819974257 -2.12398352e-25)
(3.72169995 0.842745257 2.46868005e-24)
(4.51849143 0.868698 2.99183271e-24)
(5.40611446 0.898017828 2.40605626e-25)
(6.38856901 0.9308157 -2.4659567e-25)
(7.4723 0.96443685 0)
(8.66194258 0.991321666 -4.59612645e-24)
(9.95473062 1.02259597 -7.76296213e-24)
(11.2707134 1.10008604 -3.58620159e-24)
(12.6987259 1.12102352 0)
(14.1630816 1.11135946 1.42318914e-26)
(15.3103478 1.45861132 3.87999783e-26)
(16.9091354 1.36594011 1.03265039e-23)
(18.9979402 0.33035994 1.12281625e-23)
(19.8431863 0.767902356 -3.35975232e-24)
(20.0899905 2.53459749 -7.04039196e-24)
(21.4936655 2.0628558 5.31293456e-26)
(23.0544206 0.412064387 3.63112988e-24)
(23.3787649 0.359819975 5.3832717e-24)
(23.4427625 1.16839691 -2.56330988e-24)
(23.3983656 1.59299596 -1.21927008e-23)
(23.3632803 1.5778938 -1.8533346e-23)
(-0.0298062707 0.024401646 3.31065805e-27)
(-0.0872493618 0.0707575838 5.79040567e-28)
(-0.143434216 0.115285858 -6.130141e-28)
(-0.198371807 0.157968294 6.42351004e-28)
(-0.252156421 0.198907059 0)
(-0.304964064 0.238245115 -1.58781004e-26)
(-0.356950978 0.27611175 1.40014029e-33)
(-0.408241854 0.312608474 1.14934105e-26)
(-0.458920979 0.347805477 8.86550282e-27)
(-0.50903233 0.381742453 1.18856699e-26)
(-0.558583469 0.414432457 4.56200268e-27)
(-0.607550712 0.445867053 1.93635227e-27)
(-0.655884501 0.476021746 2.03484641e-27)
(-0.703514378 0.504861162 -8.78670759e-27)
(-0.750353255 0.532343684 -1.32407728e-26)
(-0.796300856 0.55842546 7.07640252e-27)
(-0.841246355 0.583063768 1.8097812e-26)
(-0.885070249 0.606219801 5.67982389e-26)
(-0.927645546 0.62786093 3.40350529e-26)
(-0.968838297 0.64796249 5.72758147e-27)
(-1.00850754 0.666509186 -6.00242274e-27)
(-1.04650465 0.683496148 -6.28684506e-27)
(-1.08267213 0.698929715 0)
(-1.11684163 0.712827991 1.37280052e-26)
(-1.14883127 0.725220966 -7.28753045e-26)
(-1.17844226 0.73615021 4.91387519e-29)
(-1.20545436 0.745668133 8.75278571e-26)
(-1.22961912 0.753837515 9.47981034e-26)
(-1.25066537 0.760728244 1.01033647e-25)
(-1.26831438 0.766408396 -8.8996592e-26)
(-1.28228366 0.770943608 -1.82570898e-26)
(-1.29210412 0.774616072 2.56780962e-25)
(-1.29764831 0.77719158 2.13420585e-25)
(-1.2984175 0.779082746 0)
(-1.29388167 0.780673236 0)
(-1.28389116 0.781621382 -2.21825678e-26)
(-1.26701463 0.782950949 0)
(-1.24129666 0.783929309 4.91743584e-26)
(-1.20543823 0.784062207 1.03530726e-25)
(-1.15666237 0.784090269 1.06544608e-25)
(-1.09540055 0.783326925 -1.83937197e-25)
(-1.01943285 0.782810965 0)
(-0.927067957 0.782663777 0)
(-0.815911443 0.782803853 2.54036965e-25)
(-0.683337204 0.783099108 2.73429454e-25)
(-0.527894751 0.782766262 5.94695358e-26)
(-0.344788892 0.782078248 0)
(-0.133612843 0.784380585 0)
(0.100660428 0.7930336 3.67862888e-25)
(0.365468242 0.803417025 2.722637e-26)
(0.694313429 0.810817081 -7.15469253e-26)
(1.07124502 0.816731473 0)
(1.50335512 0.825956317 -4.8768048e-25)
(1.99636544 0.838966309 -6.2860367e-25)
(2.55471061 0.855367265 -1.10378035e-24)
(3.18258664 0.875194847 -1.09096668e-24)
(3.88498819 0.899053854 -1.51624422e-24)
(4.66784413 0.927424722 -2.23700256e-32)
(5.53591341 0.960512317 2.79272099e-32)
(6.4927925 0.998536075 -4.9287984e-24)
(7.53986975 1.04154927 -2.75113497e-24)
(8.68145882 1.08793739 2.85869304e-24)
(9.90868916 1.13750893 2.92215477e-24)
(11.2088925 1.19043837 0)
(12.5755403 1.23268411 3.70930262e-24)
(14.0225503 1.25199162 8.13460236e-24)
(15.3971434 1.34504607 3.49500428e-24)
(16.7161039 1.50481872 0)
(18.1410656 1.43973945 -1.78969449e-26)
(19.3483483 1.49511806 3.23866212e-24)
(20.2994817 1.9393859 4.62657725e-24)
(21.5482402 1.64561541 0)
(22.8555137 0.925226576 0)
(23.3655359 1.18047936 4.90822354e-25)
(23.387344 1.96279495 -3.61991579e-25)
(23.3534082 2.03933932 9.70314503e-24)
(23.3900676 1.63927058 1.02709359e-23)
(23.4267471 1.41536557 0)
(23.4356187 1.3366187 -9.85661997e-25)
(23.3887473 1.41212499 1.06947685e-23)
(-0.0335105479 0.025317333 4.22624258e-28)
(-0.0978726668 0.0734068368 6.65271645e-28)
(-0.160596837 0.119631012 8.41021607e-27)
(-0.221707437 0.16399689 -5.95206321e-27)
(-0.281333217 0.206623777 -6.50717064e-27)
(-0.33963085 0.24764953 0)
(-0.396775807 0.287210076 -8.16163265e-27)
(-0.452898639 0.325415749 -7.11005353e-27)
(-0.508075863 0.362340594 -2.17523558e-27)
(-0.562339645 0.398025351 1.29667211e-27)
(-0.61567966 0.43248307 9.39480718e-27)
(-0.668048363 0.465704202 5.40521357e-34)
(-0.719366693 0.497661826 2.34810809e-27)
(-0.769529351 0.528316752 3.16144628e-33)
(-0.818409339 0.557622207 -2.59293641e-27)
(-0.865861646 0.585527934 3.59133986e-26)
(-0.911726073 0.6119837 -4.25033566e-26)
(-0.955829196 0.636942219 -5.96738823e-27)
(-0.997985489 0.660361569 5.07856311e-26)
(-1.0379975 0.682207237 6.54593919e-27)
(-1.07565499 0.70245392 -1.37391701e-26)
(-1.11073367 0.721087151 -7.50680815e-26)
(-1.14299316 0.738103979 -8.3973154e-26)
(-1.17217128 0.753507589 7.82668311e-27)
(-1.19798375 0.767304631 0)
(-1.22013158 0.779507346 8.51950201e-27)
(-1.23829809 0.790128938 0)
(-1.2521147 0.799219945 1.43317645e-25)
(-1.26133746 0.806870853 3.05831872e-25)
(-1.26557264 0.813287848 1.92855027e-25)
(-1.2644281 0.818698333 -1.83091385e-25)
(-1.25762689 0.82320457 -1.92643833e-25)
(-1.24428343 0.827157457 4.46635959e-26)
(-1.2226508 0.830131666 2.3305153e-26)
(-1.1916956 0.831967813 -1.63805047e-25)
(-1.14977454 0.83276424 -2.27225073e-25)
(-1.09556451 0.832722556 0)
(-1.02848033 0.832089319 2.95715738e-25)
(-0.94672319 0.831232134 2.77152858e-25)
(-0.848595799 0.830238149 5.488006e-26)
(-0.731845128 0.829140679 5.71230666e-26)
(-0.593984943 0.82799231 0)
(-0.43342796 0.826247607 0)
(-0.245967162 0.824196479 0)
(-0.0298565284 0.825678852 6.20424457e-26)
(0.203753053 0.831734276 3.34439721e-25)
(0.486940178 0.837825068 2.00539533e-25)
(0.815388335 0.842106283 0)
(1.19424857 0.847789441 0)
(1.62709124 0.856716605 5.38526574e-25)
(2.11911266 0.869214647 4.17893484e-25)
(2.67333287 0.885282184 5.22580324e-25)
(3.29473216 0.905735243 5.85530651e-25)
(3.98871042 0.931301807 -1.62786822e-25)
(4.76008322 0.962526691 -8.7513088e-25)
(5.61230422 0.999912201 -6.20947651e-25)
(6.54718107 1.04402834 -1.73968394e-24)
(7.56539921 1.09526842 -1.80286547e-24)
(8.66590546 1.15332778 0)
(9.84953469 1.21500488 1.13046835e-25)
(11.1093368 1.2788783 -2.5708199e-24)
(12.4274632 1.34823474 -5.44914745e-24)
(13.7802315 1.42561474 -3.05287669e-26)
(15.1413898 1.50590123 -6.99127293e-27)
(16.4927287 1.5817155 -3.679455e-24)
(17.8664286 1.61274481 4.24314801e-24)
(19.1470568 1.63811465 4.02696004e-24)
(20.2092708 1.81746294 -1.50383343e-25)
(21.1762349 1.9622809 -2.93951987e-24)
(22.2165063 1.84126784 -5.86742153e-24)
(22.9756603 1.85432753 4.9907235e-26)
(23.3727389 2.01492309 -1.03170386e-23)
(23.4631518 1.94121165 -8.6056636e-24)
(23.458387 1.78251637 0)
(23.4399162 1.76483487 -8.52180623e-24)
(23.4405342 1.81439358 -1.38008486e-23)
(23.4068226 1.81219802 1.43847198e-25)
(23.3873583 1.79424277 4.74780998e-24)
(23.3834083 1.71405591 5.92192755e-24)
(23.3641152 1.63848 8.04513537e-24)
(-0.036960294 0.0257139569 2.88512857e-27)
(-0.107716533 0.0744656517 0)
(-0.176438794 0.121258682 0)
(-0.243169939 0.166125038 1.81754026e-30)
(-0.308054067 0.209202354 0)
(-0.371283212 0.250644942 0)
(-0.433008257 0.290583036 0)
(-0.493334879 0.329123629 -4.14525887e-27)
(-0.552359966 0.366349417 0)
(-0.610090354 0.402310466 2.3005335e-27)
(-0.666489653 0.437021817 1.80011918e-26)
(-0.721477915 0.470475323 3.18517193e-33)
(-0.774937037 0.502645255 -2.17516818e-26)
(-0.82671638 0.533493053 0)
(-0.876637515 0.562971864 -2.94911222e-27)
(-0.924497948 0.591030714 6.20381747e-27)
(-0.97007389 0.617618336 0)
(-1.01312221 0.642686535 6.25988071e-26)
(-1.05338191 0.666192538 7.17501946e-27)
(-1.09056816 0.688095483 -1.56451598e-25)
(-1.12437003 0.708355997 -1.00074378e-25)
(-1.15445552 0.726939801 8.18396668e-27)
(-1.18050105 0.743776961 0)
(-1.20214373 0.758988387 -1.29463421e-25)
(-1.21909014 0.772596408 -1.456877e-25)
(-1.23097969 0.784709175 -1.5433172e-25)
(-1.23741405 0.795478169 -1.80038827e-25)
(-1.2380341 0.804990588 1.90216455e-25)
(-1.2316008 0.813079642 1.88628397e-25)
(-1.21734024 0.819706549 0)
(-1.19428526 0.824881028 -2.11387089e-25)
(-1.16120327 0.828629776 -2.35567802e-25)
(-1.11685678 0.831165588 2.50434597e-26)
(-1.06070129 0.832799905 -2.60737587e-25)
(-0.991182268 0.833745101 -2.98385739e-25)
(-0.906735229 0.834080975 -5.49045703e-26)
(-0.805601328 0.833882942 2.86867745e-26)
(-0.685603106 0.833288108 -3.38553252e-25)
(-0.544488734 0.832455842 -3.21745518e-25)
(-0.380520579 0.830991634 3.88497564e-25)
(-0.189872916 0.829119744 1.10243479e-24)
(0.0302927024 0.830340967 5.90473441e-25)
(0.268742286 0.835441456 0)
(0.556993284 0.840465259 -6.91445557e-26)
(0.888991477 0.844160428 -4.61169177e-25)
(1.26929355 0.84998988 -7.62519581e-26)
(1.70208002 0.85935238 1.46767997e-32)
(2.19127952 0.872513072 -4.42264801e-25)
(2.74127036 0.890037686 0)
(3.35692418 0.912657918 -8.30477879e-26)
(4.04295586 0.940967755 -7.74321266e-25)
(4.8033223 0.975576571 -6.3958286e-25)
(5.64065865 1.0171658 -3.31852264e-25)
(6.55621983 1.06639173 -1.08837473e-24)
(7.54994587 1.12381972 -8.60151626e-25)
(8.62042323 1.18978225 -9.76225994e-25)
(9.7649045 1.26404368 -3.09895248e-24)
(10.9789224 1.3453386 -2.16136786e-24)
(12.2487078 1.43405552 -2.36042193e-24)
(13.5559902 1.52654518 -2.5335948e-24)
(14.8904294 1.61688051 0)
(16.2198214 1.70610739 6.3102103e-27)
(17.5118046 1.80801666 -3.44988801e-24)
(18.7324521 1.90673555 -3.72182493e-24)
(19.8776876 1.9928976 -2.14242964e-26)
(20.940791 2.0620614 0)
(21.8907276 2.05917779 5.00593506e-24)
(22.6658653 2.08545518 7.12954522e-24)
(23.225181 2.16643178 5.08008945e-25)
(23.4476838 2.23817673 -5.82571091e-25)
(23.4676101 2.24488816 -1.72129968e-26)
(23.4538216 2.23692775 -7.21150954e-25)
(23.464549 2.16734379 -4.76169542e-24)
(23.4378864 2.11119877 -8.10890927e-24)
(23.4282104 2.0246791 -2.26027174e-25)
(23.4120691 1.96881957 0)
(23.405065 1.95877205 -5.69217902e-24)
(23.3886126 1.91998984 -6.16808034e-24)
(23.3744987 1.89689859 0)
(23.3549989 1.83431376 -9.10944491e-24)
(-0.0404402392 0.0258397832 -4.76195737e-27)
(-0.11756119 0.0746507061 -6.54821808e-27)
(-0.192168898 0.121334602 -7.67347171e-27)
(-0.264328408 0.165948257 -9.58795433e-28)
(-0.334200251 0.208646374 3.60761983e-27)
(-0.401980662 0.249597206 -2.13134163e-27)
(-0.467839574 0.288948339 2.0350005e-27)
(-0.531886882 0.326808083 -4.98708611e-28)
(-0.594128888 0.36325307 2.50146922e-27)
(-0.654590079 0.398332341 5.26679058e-27)
(-0.713190574 0.432075839 -7.89376891e-27)
(-0.76980644 0.464481085 -4.2132725e-26)
(-0.824268517 0.495527777 -3.55563109e-26)
(-0.876367292 0.525183432 -4.05051414e-26)
(-0.925857989 0.553407576 3.3953674e-27)
(-0.972463882 0.580155727 6.95411278e-26)
(-1.01587339 0.605381377 0)
(-1.05574462 0.629041519 0)
(-1.09174402 0.651050282 8.93973734e-26)
(-1.12347916 0.671488425 2.08487925e-25)
(-1.15062874 0.690322563 1.15327528e-25)
(-1.17279654 0.707615429 1.35679477e-25)
(-1.18940641 0.723352775 2.97359147e-33)
(-1.19987507 0.737402052 -1.84486233e-25)
(-1.20352443 0.749838249 1.78661432e-25)
(-1.19962598 0.760655998 4.08923274e-25)
(-1.18731427 0.769867485 2.10787482e-25)
(-1.16553758 0.777502171 -1.21049253e-26)
(-1.13376524 0.783897822 1.25845136e-26)
(-1.09083972 0.789124656 -2.61283137e-26)
(-1.03548819 0.793259582 0)
(-0.966303494 0.796394499 3.45783699e-25)
(-0.881717658 0.798629642 -2.92118837e-26)
(-0.779834187 0.800089313 -3.60345521e-25)
(-0.65841898 0.801007767 0)
(-0.51580044 0.801458607 -3.79664646e-25)
(-0.350076693 0.801254914 -3.60943151e-25)
(-0.157808586 0.800941185 0)
(0.064646927 0.803533186 0)
(0.306511153 0.809262761 -3.39111979e-25)
(0.597912731 0.814831384 -3.74066069e-25)
(0.931886579 0.819526684 1.58616358e-25)
(1.31220038 0.826990426 0)
(1.74349628 0.838433127 4.71292535e-25)
(2.22952089 0.853966818 1.03197456e-24)
(2.77462124 0.874199555 4.90374856e-25)
(3.38341317 0.899834839 9.17751957e-26)
(4.05999773 0.931615732 -1.52547132e-27)
(4.80795856 0.970217089 0)
(5.62958947 1.01642071 -7.87923361e-25)
(6.52585884 1.07101732 -1.85555858e-25)
(7.49629349 1.13466721 8.28752051e-25)
(8.53866419 1.20782445 -1.6954017e-25)
(9.64924068 1.29062419 -1.19781144e-24)
(10.8227466 1.38249228 -2.15460183e-24)
(12.0529487 1.48133491 -1.34463623e-32)
(13.3258431 1.5865679 1.26221078e-24)
(14.6200746 1.69762413 0)
(15.9114977 1.8168161 0)
(17.1681717 1.93735523 -8.97625824e-28)
(18.3896053 2.04735351 1.99824697e-26)
(19.5391726 2.13834692 0)
(20.5988641 2.23449241 4.11227099e-24)
(21.5125929 2.33420452 3.11441469e-24)
(22.3169563 2.39062339 -4.65001412e-24)
(22.9863251 2.43876551 -2.03680852e-23)
(23.4238665 2.44526097 -1.05538163e-23)
(23.5496934 2.44846724 -4.90154289e-24)
(23.5285707 2.47322677 -3.18284757e-24)
(23.5188924 2.49151674 -2.4068715e-25)
(23.4649805 2.45321528 5.63220765e-24)
(23.4257454 2.44725694 6.59840624e-24)
(23.4107926 2.4099278 -8.78295017e-24)
(23.4139174 2.3553648 -8.02874659e-24)
(23.425751 2.29595704 -5.51220533e-24)
(23.4343224 2.23452792 -4.89672574e-24)
(23.4140865 2.18172914 -6.86785529e-24)
(23.4012288 2.14204263 4.33031796e-32)
(23.4131096 2.10095545 1.12544957e-23)
(23.3994456 2.05615435 1.18041408e-23)
(-0.0441406505 0.0258201482 2.46189988e-27)
(-0.127915362 0.0743442677 9.93339953e-28)
(-0.208550901 0.12051012 5.59650467e-27)
(-0.286133238 0.164398415 -1.73398208e-33)
(-0.360835593 0.206181628 -2.68564935e-27)
(-0.432855994 0.24603848 -2.96274328e-27)
(-0.502353484 0.284126381 3.7930156e-27)
(-0.569423157 0.3205682 1.71585344e-27)
(-0.634075299 0.355447229 7.45331907e-27)
(-0.696226252 0.388815867 1.11389933e-26)
(-0.755780778 0.420700058 1.51564415e-26)
(-0.812549043 0.451114902 1.59974894e-26)
(-0.866291028 0.480050078 2.40097874e-26)
(-0.916718347 0.507486232 3.27192604e-26)
(-0.963499468 0.533398923 3.90149278e-27)
(-1.00628478 0.5577199 4.08364225e-27)
(-1.04465654 0.580543408 9.14130092e-26)
(-1.07818153 0.60172047 1.08958791e-25)
(-1.10630866 0.621318776 -9.39574405e-27)
(-1.12856646 0.6392565 -9.91661965e-27)
(-1.14429235 0.655569702 1.506395e-25)
(-1.15279643 0.670222856 1.65023672e-25)
(-1.15337395 0.683305323 0)
(-1.14531222 0.694908552 1.19157071e-26)
(-1.12769299 0.705069057 0)
(-1.0995056 0.713841598 0)
(-1.05963125 0.721304864 1.35776948e-26)
(-1.00682966 0.727548403 -3.2294732e-25)
(-0.939704384 0.73269716 -3.036342e-25)
(-0.856650281 0.736904523 3.12302582e-25)
(-0.75578234 0.740337359 3.62967095e-25)
(-0.635157137 0.743183552 3.26805809e-26)
(-0.492975051 0.745356694 -3.38762973e-26)
(-0.326711711 0.746779009 0)
(-0.131674619 0.748999235 3.67347158e-26)
(0.0852733635 0.754384494 0)
(0.331414878 0.761597354 0)
(0.62444174 0.768140966 4.1276748e-26)
(0.958233436 0.775099019 0)
(1.33639562 0.785566009 0)
(1.7642513 0.800148795 5.85261882e-25)
(2.24528786 0.818891628 6.90126315e-25)
(2.78354677 0.842534329 0)
(3.38332985 0.871865385 0)
(4.04843126 0.907671563 0)
(4.78216662 0.95072894 1.07214359e-25)
(5.58662164 1.001914 1.06297834e-25)
(6.46262136 1.06207599 6.65074643e-25)
(7.40948596 1.13190412 8.30439922e-25)
(8.42482542 1.21187488 9.09726905e-25)
(9.5042558 1.30214415 1.02053336e-24)
(10.6420696 1.40249456 1.05385489e-24)
(11.8304863 1.51217148 1.19233313e-24)
(13.0615907 1.62900684 0)
(14.3185471 1.75194642 0)
(15.5812928 1.87840968 -1.56916229e-24)
(16.8301149 2.00584894 -3.23131675e-24)
(18.0372241 2.1307976 -1.72491416e-24)
(19.1758595 2.25990858 -1.79962871e-24)
(20.2037709 2.38755473 -1.76885584e-24)
(21.1399408 2.49777194 3.53653836e-24)
(21.959807 2.56955992 8.41085254e-24)
(22.702113 2.61697021 1.76525336e-25)
(23.2108408 2.65370011 -1.03666047e-23)
(23.4835175 2.70036366 1.47153931e-25)
(23.5068159 2.73057184 -3.5369174e-25)
(23.5384693 2.71659218 1.26846464e-24)
(23.5328704 2.67184758 -1.05987941e-32)
(23.5337208 2.66455756 -5.21289912e-24)
(23.4877383 2.6417834 -1.87010978e-25)
(23.4378442 2.65787713 6.82559929e-24)
(23.4165264 2.62732953 6.19279658e-24)
(23.4084308 2.59426226 0)
(23.4120514 2.55567076 2.40874928e-25)
(23.4197078 2.50607543 0)
(23.4236723 2.47230802 9.62262278e-24)
(23.4388965 2.43232395 1.22412941e-23)
(23.4555788 2.38469562 8.28612367e-24)
(23.510256 2.35563968 6.57348676e-24)
(23.5014505 2.29765188 1.91799589e-23)
(-0.0480998611 0.0256553314 2.42797863e-27)
(-0.138817284 0.0735665083 7.31485886e-27)
(-0.225545665 0.11885141 -1.22372374e-27)
(-0.308391575 0.161616691 -3.63068188e-27)
(-0.387537678 0.202053181 -1.12648068e-27)
(-0.463177043 0.240350875 1.6808262e-28)
(-0.535450233 0.276676021 -3.02631939e-27)
(-0.604418468 0.311164376 -1.11839776e-26)
(-0.670063858 0.343912503 -1.4661437e-26)
(-0.732255119 0.374980081 -1.83642748e-26)
(-0.790776421 0.404401481 0)
(-0.845378664 0.432194333 -7.82478262e-27)
(-0.895737198 0.458399845 4.12966576e-27)
(-0.941471446 0.482971194 0)
(-0.982116553 0.505923127 0)
(-1.01714287 0.527288309 0)
(-1.04604357 0.546964926 0)
(-1.06814736 0.565064785 -5.27595318e-27)
(-1.08279413 0.581565381 0)
(-1.08922774 0.596493192 -9.64039683e-26)
(-1.08660289 0.609894071 -1.06564048e-25)
(-1.07402193 0.621802464 1.96177582e-25)
(-1.05043877 0.632310284 2.30334411e-25)
(-1.01474117 0.641490036 -2.39270895e-25)
(-0.965672793 0.649467056 -2.90991501e-25)
(-0.901836129 0.656379975 -3.00404883e-25)
(-0.821663358 0.662387285 -3.0956281e-25)
(-0.723352581 0.667668858 -3.80518114e-25)
(-0.604966962 0.672404726 -7.17932067e-25)
(-0.464660265 0.676530461 -3.9196953e-25)
(-0.2998034 0.680336376 0)
(-0.108378201 0.685612207 -3.88298736e-26)
(0.106019331 0.692879639 -3.9924459e-26)
(0.356846562 0.700927207 0)
(0.646751298 0.709313015 4.39815514e-26)
(0.976619335 0.719698885 0)
(1.35066999 0.733587252 0)
(1.77286572 0.751371531 6.48206939e-25)
(2.24643014 0.773434587 -5.17956022e-26)
(2.77537403 0.800636653 -6.45475975e-25)
(3.36373061 0.833801636 7.26148591e-25)
(4.01500761 0.873754498 6.98459676e-25)
(4.73226062 0.921327467 5.91208963e-26)
(5.5174529 0.97742093 0)
(6.37139615 1.04288831 6.78527087e-25)
(7.29349351 1.11843995 9.69457775e-25)
(8.28147535 1.20458018 0)
(9.33119241 1.30155721 0)
(10.4364583 1.40924997 -1.23228734e-24)
(11.5893332 1.52718931 -1.3630766e-24)
(12.7793927 1.65436029 1.41113077e-24)
(13.9981587 1.78792618 1.39307536e-24)
(15.2281572 1.92606504 -1.61175111e-24)
(16.4489609 2.06698902 -1.38516751e-32)
(17.6361366 2.20842168 1.74355923e-24)
(18.7666904 2.34580721 9.33476648e-27)
(19.8219405 2.47457819 0)
(20.7820374 2.58821268 -1.36121882e-26)
(21.6279389 2.69608293 -2.12468506e-24)
(22.317818 2.79306601 1.37525536e-25)
(22.9061348 2.87288099 3.57820775e-24)
(23.3107363 2.90318608 0)
(23.4822581 2.9328348 1.72302122e-25)
(23.5219833 2.93279732 0)
(23.5218013 2.91678464 5.60320198e-26)
(23.5174 2.92761328 -1.92580892e-26)
(23.4831565 2.93035456 -1.63820729e-25)
(23.4964184 2.87738106 -4.69205658e-24)
(23.507234 2.80932696 -5.25798253e-24)
(23.4898861 2.79558583 -1.83364604e-25)
(23.4378002 2.79782447 -7.13747417e-24)
(23.4120559 2.7862474 -6.8593922e-24)
(23.4091612 2.76198072 -8.47435065e-24)
(23.4146261 2.73928842 -5.95981743e-24)
(23.4582647 2.68093015 -8.68338653e-24)
(23.4871424 2.65619464 -7.98199919e-24)
(23.512017 2.62694863 8.75189543e-24)
(23.5336907 2.60494845 8.43595916e-24)
(23.6254882 2.58066442 -1.32258093e-24)
(23.6209064 2.55835946 1.01827459e-24)
(-0.0520595832 0.0251986095 2.06138255e-27)
(-0.149477044 0.0719359209 -7.34997801e-27)
(-0.241802469 0.115800867 -1.43778326e-27)
(-0.329157891 0.156925895 -1.4791089e-33)
(-0.411726795 0.19551777 1.53368829e-27)
(-0.489683602 0.231776542 -1.68251074e-27)
(-0.563133065 0.265875259 8.46185777e-27)
(-0.632084565 0.297954964 2.82637317e-33)
(-0.696440501 0.328139468 -3.2076968e-26)
(-0.756011659 0.356489378 -2.3495211e-26)
(-0.810496985 0.383072545 4.36167723e-27)
(-0.859512753 0.407927647 -3.94516661e-26)
(-0.902601884 0.431055157 -3.58188026e-26)
(-0.939193379 0.452513709 -4.72247857e-26)
(-0.968688991 0.47230502 -5.49015094e-26)
(-0.990402728 0.490461282 6.3160461e-26)
(-1.00357028 0.507017452 7.19909987e-26)
(-1.00734351 0.522021739 -6.12623676e-27)
(-1.00078771 0.535545395 0)
(-0.982930103 0.547648083 -9.47578685e-26)
(-0.952569041 0.558459284 -1.12691814e-25)
(-0.908481053 0.568066887 -1.49190118e-26)
(-0.849279409 0.576626615 1.3656849e-25)
(-0.773432201 0.584309034 1.65595027e-25)
(-0.679203514 0.591310163 -3.40593523e-26)
(-0.564710999 0.597841275 0)
(-0.428102261 0.603927859 1.86695446e-26)
(-0.266938416 0.609874366 2.71169023e-28)
(-0.079087903 0.61723813 -4.816979e-25)
(0.131621273 0.626295795 -4.17171762e-25)
(0.380531365 0.636257215 4.41505446e-25)
(0.665856593 0.646898229 4.54207396e-25)
(0.990432559 0.660137559 -9.70302894e-26)
(1.35789809 0.676862879 -5.33122977e-25)
(1.77165098 0.697483098 -3.72544061e-32)
(2.23526961 0.722653823 6.30976548e-25)
(2.75252364 0.753179699 -7.1676379e-25)
(3.32704524 0.789873843 -6.88282188e-25)
(3.9620893 0.833597813 -1.22880574e-25)
(4.66052274 0.885209621 6.35621646e-26)
(5.42425907 0.945603181 6.39839709e-26)
(6.25418408 1.01562337 -8.27358152e-25)
(7.14991298 1.09598978 -1.68710217e-24)
(8.1095221 1.18724129 -9.3766151e-25)
(9.12930089 1.28968412 -1.14498819e-24)
(10.2035354 1.40331761 -1.11098284e-24)
(11.3243897 1.52776049 0)
(12.4819269 1.6622064 1.25452471e-24)
(13.6643125 1.80529011 1.43371144e-24)
(14.8598201 1.95454412 1.5381487e-24)
(16.0520878 2.1070649 3.29156321e-24)
(17.2216027 2.26034693 3.47461986e-24)
(18.3456853 2.41053159 3.63951862e-24)
(19.4047381 2.55570192 3.7956447e-24)
(20.3712712 2.69240176 1.97975432e-24)
(21.2348829 2.81929149 2.69821727e-26)
(21.9738652 2.92410183 0)
(22.6227061 3.00875835 -3.002351e-24)
(23.095155 3.05926231 -4.46326456e-24)
(23.4101683 3.1051507 0)
(23.4713442 3.13583057 -3.35418521e-24)
(23.5039693 3.16099348 -1.78998142e-24)
(23.4770887 3.16156855 0)
(23.4901588 3.10256204 -6.67665962e-26)
(23.5067296 3.06185737 0)
(23.502126 3.0121079 -7.3267707e-24)
(23.4880362 3.02196167 -2.62559485e-25)
(23.4228449 3.02168374 8.10720455e-24)
(23.427418 3.00607037 -2.4322776e-25)
(23.4416372 2.91541793 -5.52075164e-25)
(23.4332628 2.92690272 -5.15783222e-24)
(23.4165723 2.90609429 -7.80221942e-24)
(23.4171681 2.88881429 -2.81497186e-25)
(23.424177 2.86145478 -4.25552288e-25)
(23.4726192 2.82661252 -3.57422931e-26)
(23.516926 2.77129187 -4.22158959e-25)
(23.5701525 2.72982386 8.92880194e-24)
(23.6473753 2.69426883 1.77385022e-23)
(23.7168238 2.65591067 8.93715956e-24)
(23.7372086 2.68928153 -8.75103721e-25)
(-0.0555976573 0.0242732181 0)
(-0.158631144 0.0689652839 -1.59513197e-27)
(-0.255198494 0.110601263 1.68088567e-27)
(-0.345423582 0.149340011 -4.07682516e-27)
(-0.429475698 0.185403688 1.86749855e-27)
(-0.507491041 0.219010298 1.9689443e-27)
(-0.579512234 0.25033609 -1.49334742e-26)
(-0.645458884 0.27953812 0)
(-0.705134337 0.306725764 4.58870303e-27)
(-0.75819877 0.332010494 -3.04490862e-26)
(-0.804229063 0.355460006 -3.18389259e-26)
(-0.842692001 0.377142003 4.39387238e-26)
(-0.872954693 0.397116581 5.64193549e-27)
(-0.894290523 0.41544242 -1.13296016e-25)
(-0.905882127 0.432183359 -1.36992194e-25)
(-0.906809431 0.447422424 -7.12077332e-26)
(-0.89608802 0.461222857 -6.86115589e-27)
(-0.87255909 0.473728877 -9.78883429e-26)
(-0.834998487 0.48503283 -1.01613274e-25)
(-0.782041981 0.495295617 7.85729916e-27)
(-0.712191918 0.504696115 -8.32018538e-27)
(-0.623778454 0.513442184 -3.46964466e-26)
(-0.514982528 0.521768902 -1.54919242e-25)
(-0.38396498 0.529776432 -3.39947647e-25)
(-0.228449396 0.537763437 -1.99668021e-25)
(-0.046094767 0.546984223 -2.07056803e-26)
(0.159970287 0.557706845 -1.56004036e-25)
(0.402955967 0.569576504 2.26321245e-26)
(0.681386197 0.582555858 -2.37584965e-26)
(0.997990906 0.598307931 -2.42921345e-25)
(1.35632932 0.617583814 0)
(1.75951901 0.640807041 -6.07525047e-25)
(2.21096648 0.668697381 -5.64058495e-26)
(2.71418192 0.702065859 7.05077487e-25)
(3.27251245 0.741765084 7.42797604e-25)
(3.88903215 0.788664982 7.82344504e-25)
(4.56645618 0.843621321 -6.59458154e-26)
(5.30667722 0.907514245 0)
(6.1106779 0.98117797 -1.39650021e-25)
(6.97831468 1.06533256 -8.89784339e-25)
(7.90806376 1.16053319 -9.51022876e-25)
(8.89677286 1.26712325 7.28368899e-26)