/*--------------------------------*- C++ -*----------------------------------*\
  =========                 |
  \\      /  F ield         | OpenFOAM: The Open Source CFD Toolbox
   \\    /   O peration     | Website:  https://openfoam.org
    \\  /    A nd           | Version:  8
     \\/     M anipulation  |
\*---------------------------------------------------------------------------*/
FoamFile
{
    version     2.0;
    format      ascii;
    class       volScalarField;
    location    "0.011";
    object      p_rgh;
}
// * * * * * * * * * * * * * * * * * * * * * * * * * * * * * * * * * * * * * //

dimensions      [1 -1 -2 0 0 0 0];

internalField   nonuniform List<scalar> 
42400
(
101293.727
101293.714
101293.701
101293.688
101293.677
101293.667
101293.658
101293.65
101293.643
101293.638
101293.633
101293.63
101293.628
101293.628
101293.628
101293.63
101293.633
101293.637
101293.643
101293.649
101293.657
101293.666
101293.676
101293.687
101293.699
101293.712
101293.726
101293.74
101293.756
101293.772
101293.789
101293.807
101293.826
101293.845
101293.865
101293.885
101293.906
101293.937
101293.982
101294.029
101294.06
101294.071
101294.082
101294.097
101294.129
101294.176
101294.226
101294.28
101294.337
101294.398
101294.457
101294.538
101294.646
101294.766
101294.864
101294.961
101295.101
101295.274
101295.471
101295.686
101295.929
101296.207
101296.534
101296.915
101297.345
101297.834
101298.356
101298.931
101299.749
101300.361
101300.628
101302.181
101303.289
101302.63
101303.691
101304.883
101307.046
101311.394
101312.902
101316.324
101292.852
101292.842
101292.831
101292.821
101292.813
101292.805
101292.798
101292.793
101292.788
101292.784
101292.781
101292.78
101292.779
101292.78
101292.782
101292.784
101292.788
101292.794
101292.8
101292.807
101292.815
101292.825
101292.835
101292.846
101292.858
101292.87
101292.884
101292.898
101292.912
101292.928
101292.943
101292.959
101292.974
101292.996
101293.024
101293.056
101293.09
101293.11
101293.113
101293.115
101293.13
101293.156
101293.185
101293.215
101293.248
101293.281
101293.31
101293.356
101293.418
101293.497
101293.559
101293.601
101293.674
101293.777
101293.894
101294.019
101294.159
101294.321
101294.511
101294.734
101295
101295.303
101295.644
101296.037
101296.491
101297.035
101297.657
101298.297
101299.212
101300.292
101300.794
101301.935
101303.602
101304.184
101306.186
101309.821
101312.192
101314.1
101317.355
101320.136
101291.864
101291.857
101291.849
101291.841
101291.835
101291.83
101291.825
101291.821
101291.819
101291.817
101291.816
101291.817
101291.818
101291.821
101291.824
101291.829
101291.835
101291.843
101291.851
101291.86
101291.871
101291.883
101291.895
101291.909
101291.923
101291.939
101291.955
101291.972
101291.989
101292.008
101292.031
101292.057
101292.085
101292.11
101292.127
101292.136
101292.145
101292.163
101292.19
101292.218
101292.247
101292.277
101292.306
101292.331
101292.371
101292.437
101292.485
101292.507
101292.547
101292.61
101292.691
101292.773
101292.862
101292.964
101293.082
101293.223
101293.394
101293.591
101293.817
101294.074
101294.369
101294.713
101295.112
101295.568
101296.108
101296.748
101297.553
101298.404
101299.551
101300.928
101301.66
101302.633
101306.416
101308.809
101309.219
101311.01
101314.071
101316.537
101318.103
101319.17
101290.796
101290.79
101290.783
101290.778
101290.773
101290.77
101290.767
101290.765
101290.764
101290.765
101290.766
101290.769
101290.773
101290.778
101290.784
101290.792
101290.801
101290.812
101290.824
101290.837
101290.852
101290.868
101290.886
101290.904
101290.923
101290.944
101290.966
101290.991
101291.018
101291.045
101291.069
101291.091
101291.113
101291.134
101291.162
101291.195
101291.229
101291.262
101291.297
101291.331
101291.359
101291.401
101291.466
101291.511
101291.531
101291.574
101291.635
101291.698
101291.763
101291.834
101291.915
101292.012
101292.127
101292.261
101292.415
101292.592
101292.802
101293.047
101293.335
101293.669
101294.056
101294.49
101294.995
101295.534
101296.165
101296.842
101297.618
101298.229
101299.125
101301.499
101304.908
101307.165
101307.649
101309.24
101311.809
101313.229
101314.235
101315.815
101318.179
101319.772
101289.645
101289.639
101289.634
101289.629
101289.626
101289.623
101289.622
101289.621
101289.622
101289.624
101289.628
101289.633
101289.64
101289.648
101289.658
101289.669
101289.682
101289.697
101289.714
101289.732
101289.751
101289.772
101289.794
101289.818
101289.846
101289.875
101289.905
101289.936
101289.968
101290.001
101290.037
101290.076
101290.116
101290.156
101290.196
101290.238
101290.28
101290.316
101290.364
101290.433
101290.482
101290.509
101290.557
101290.62
101290.681
101290.742
101290.808
101290.883
101290.968
101291.064
101291.174
101291.298
101291.443
101291.615
101291.822
101292.068
101292.358
101292.701
101293.107
101293.577
101294.131
101294.761
101295.512
101296.33
101297.275
101298.372
101299.652
101302.055
101304.489
101305.319
101305.557
101306.716
101308.313
101310.334
101312.531
101314.753
101317.04
101319.137
101320.892
101322.502
101288.399
101288.394
101288.388
101288.384
101288.382
101288.38
101288.38
101288.381
101288.384
101288.387
101288.393
101288.401
101288.411
101288.422
101288.436
101288.452
101288.469
101288.487
101288.508
101288.532
101288.559
101288.59
101288.622
101288.657
101288.693
101288.731
101288.771
101288.813
101288.856
101288.901
101288.947
101288.995
101289.045
101289.095
101289.141
101289.197
101289.272
101289.329
101289.366
101289.422
101289.492
101289.557
101289.623
101289.693
101289.769
101289.85
101289.938
101290.036
101290.145
101290.272
101290.42
101290.594
101290.802
101291.047
101291.338
101291.683
101292.09
101292.566
101293.127
101293.778
101294.535
101295.387
101296.337
101297.389
101298.611
101300.655
101302.718
101303.777
101304.597
101305.695
101307.095
101308.9
101311.009
101313.027
101314.998
101316.752
101318.345
101319.927
101321.721
101323.58
101287.03
101287.024
101287.019
101287.016
101287.014
101287.013
101287.014
101287.017
101287.022
101287.029
101287.037
101287.046
101287.058
101287.073
101287.091
101287.112
101287.136
101287.163
101287.193
101287.224
101287.258
101287.295
101287.334
101287.376
101287.42
101287.467
101287.516
101287.567
101287.621
101287.678
101287.735
101287.789
101287.852
101287.933
101287.999
101288.047
101288.113
101288.191
101288.264
101288.339
101288.416
101288.497
101288.582
101288.672
101288.77
101288.878
101288.999
101289.136
101289.294
101289.478
101289.694
101289.949
101290.246
101290.596
101291.003
101291.474
101292.024
101292.659
101293.382
101294.187
101295.117
101296.103
101297.229
101299.012
101300.725
101301.726
101302.806
101304.243
101305.695
101307.375
101309.407
101310.756
101312.052
101314.053
101315.744
101317.327
101319.055
101320.707
101322.596
101324.144
101285.493
101285.488
101285.483
101285.481
101285.48
101285.481
101285.484
101285.489
101285.497
101285.506
101285.519
101285.535
101285.554
101285.574
101285.597
101285.623
101285.653
101285.685
101285.72
101285.759
101285.8
101285.845
101285.893
101285.943
101285.997
101286.054
101286.114
101286.175
101286.236
101286.304
101286.388
101286.46
101286.519
101286.593
101286.678
101286.76
101286.843
101286.929
101287.018
101287.111
101287.209
101287.313
101287.426
101287.549
101287.686
101287.84
101288.015
101288.217
101288.452
101288.726
101289.046
101289.417
101289.846
101290.338
101290.904
101291.553
101292.283
101293.101
101294.002
101294.927
101296.298
101298.505
101300.174
101300.711
101301.393
101302.917
101304.757
101306.43
101307.527
101308.685
101310.101
101311.898
101313.757
101315.137
101316.869
101318.456
101319.877
101321.734
101323.632
101325.305
101283.754
101283.751
101283.748
101283.747
101283.748
101283.752
101283.758
101283.766
101283.778
101283.793
101283.81
101283.829
101283.852
101283.878
101283.908
101283.94
101283.977
101284.016
101284.059
101284.106
101284.156
101284.21
101284.267
101284.328
101284.39
101284.453
101284.524
101284.609
101284.685
101284.752
101284.833
101284.922
101285.01
101285.1
101285.194
101285.291
101285.392
101285.498
101285.61
101285.73
101285.859
101286
101286.155
101286.329
101286.526
101286.752
101287.011
101287.311
101287.659
101288.059
101288.519
101289.047
101289.651
101290.34
101291.116
101292.022
101293.033
101294.111
101295.37
101296.957
101298.382
101299.3
101300.188
101301.367
101302.858
101304.426
101305.954
101307.325
101308.714
101310.165
101311.545
101313.059
101314.451
101315.795
101317.447
101319.295
101321.214
101323.069
101324.999
101326.687
101281.773
101281.771
101281.771
101281.773
101281.778
101281.786
101281.796
101281.809
101281.824
101281.844
101281.866
101281.892
101281.921
101281.954
101281.991
101282.032
101282.076
101282.124
101282.176
101282.233
101282.292
101282.353
101282.42
101282.494
101282.578
101282.653
101282.724
101282.808
101282.901
101282.993
101283.088
101283.187
101283.289
101283.397
101283.509
101283.627
101283.753
101283.887
101284.032
101284.19
101284.365
101284.56
101284.78
101285.029
101285.314
101285.641
101286.016
101286.443
101286.929
101287.475
101288.086
101288.766
101289.512
101290.313
101291.109
101292.041
101293.476
101295.35
101296.745
101297.784
101298.85
101300.059
101301.349
101302.565
101303.845
101305.198
101306.632
101308.019
101309.736
101311.563
101313.394
101314.9
101316.032
101317.313
101318.904
101320.741
101322.593
101324.376
101326.446
101328.422
101279.503
101279.505
101279.509
101279.516
101279.525
101279.538
101279.553
101279.572
101279.595
101279.621
101279.65
101279.684
101279.721
101279.763
101279.808
101279.858
101279.912
101279.97
101280.03
101280.097
101280.173
101280.25
101280.322
101280.402
101280.489
101280.583
101280.677
101280.775
101280.877
101280.983
101281.095
101281.211
101281.333
101281.462
101281.6
101281.747
101281.908
101282.083
101282.277
101282.493
101282.737
101283.014
101283.328
101283.686
101284.095
101284.561
101285.088
101285.682
101286.347
101287.089
101287.915
101288.835
101289.854
101290.989
101292.358
101293.941
101295.107
101295.813
101296.663
101297.788
101299.088
101300.544
101302.086
101303.894
101305.568
101306.603
101307.714
101309.146
101310.841
101312.592
101313.967
101315.193
101316.849
101318.634
101320.584
101322.956
101324.935
101326.845
101328.803
101331.047
101276.908
101276.915
101276.925
101276.937
101276.953
101276.973
101276.995
101277.022
101277.053
101277.087
101277.126
101277.169
101277.216
101277.268
101277.324
101277.383
101277.449
101277.523
101277.596
101277.67
101277.753
101277.841
101277.934
101278.029
101278.129
101278.233
101278.341
101278.455
101278.573
101278.698
101278.829
101278.968
101279.117
101279.277
101279.451
101279.642
101279.853
101280.09
101280.356
101280.656
101280.998
101281.387
101281.828
101282.329
101282.896
101283.533
101284.245
101285.037
101285.912
101286.866
101287.906
101289.02
101290.194
101291.414
101292.524
101293.589
101294.876
101296.299
101297.525
101298.761
101300.119
101301.407
101302.708
101304.006
101305.279
101306.902
101308.961
101310.828
101312.325
101313.633
101315.251
101317.147
101319.018
101320.874
101322.888
101324.862
101326.906
101329.118
101331.221
101332.997
101273.941
101273.955
101273.973
101273.994
101274.018
101274.046
101274.078
101274.114
101274.155
101274.2
101274.25
101274.304
101274.362
101274.426
101274.498
101274.571
101274.646
101274.728
101274.816
101274.908
101275.005
101275.105
101275.211
101275.321
101275.436
101275.556
101275.682
101275.815
101275.954
101276.103
101276.261
101276.432
101276.618
101276.822
101277.047
101277.299
101277.581
101277.9
101278.259
101278.666
101279.126
101279.645
101280.227
101280.877
101281.596
101282.385
101283.243
101284.172
101285.164
101286.214
101287.314
101288.479
101289.709
101291.007
101292.504
101293.883
101294.793
101295.778
101297.335
101299.232
101300.802
101302.149
101303.528
101304.98
101306.798
101308.901
101310.325
101311.531
101313.066
101314.935
101316.794
101318.624
101320.479
101322.64
101324.471
101326.002
101327.935
101330.017
101331.686
101333.604
101270.564
101270.586
101270.614
101270.645
101270.679
101270.718
101270.762
101270.81
101270.862
101270.919
101270.982
101271.051
101271.123
101271.199
101271.281
101271.37
101271.462
101271.559
101271.661
101271.768
101271.88
101271.997
101272.119
101272.248
101272.382
101272.524
101272.674
101272.833
101273.003
101273.188
101273.388
101273.608
101273.851
101274.122
101274.425
101274.765
101275.149
101275.581
101276.066
101276.612
101277.221
101277.9
101278.651
101279.478
101280.374
101281.339
101282.392
101283.523
101284.689
101285.858
101286.998
101288.209
101289.685
101291.203
101292.638
101294.189
101295.717
101297.147
101298.438
101299.642
101301.151
101303.057
101304.871
101306.193
101307.725
101309.723
101311.426
101312.902
101314.475
101315.948
101317.584
101319.352
101320.961
101322.846
101325.201
101327.642
101329.986
101332.415
101334.718
101336.08
101266.736
101266.768
101266.808
101266.851
101266.898
101266.95
101267.006
101267.068
101267.135
101267.206
101267.283
101267.366
101267.454
101267.547
101267.645
101267.749
101267.858
101267.972
101268.092
101268.218
101268.35
101268.488
101268.634
101268.788
101268.952
101269.127
101269.315
101269.519
101269.741
101269.985
101270.256
101270.556
101270.892
101271.268
101271.689
101272.161
101272.688
101273.275
101273.925
101274.641
101275.422
101276.269
101277.177
101278.139
101279.126
101280.12
101281.249
101282.816
101284.718
101286.653
101288.633
101290.06
101291.303
101292.731
101294.115
101295.307
101296.701
101298.269
101299.599
101300.805
101302.105
101303.361
101304.664
101306.68
101308.432
101309.299
101310.73
101313.241
101315.455
101317.588
101319.807
101322.025
101324.417
101326.797
101329.018
101330.778
101332.281
101333.806
101335.281
101337.376
101262.429
101262.474
101262.528
101262.586
101262.647
101262.713
101262.785
101262.862
101262.944
101263.032
101263.125
101263.224
101263.328
101263.439
101263.555
101263.677
101263.806
101263.941
101264.083
101264.233
101264.392
101264.56
101264.74
101264.932
101265.14
101265.367
101265.615
101265.888
101266.191
101266.528
101266.905
101267.327
101267.8
101268.329
101268.921
101269.58
101270.312
101271.119
101272.005
101272.973
101274.023
101275.16
101276.382
101277.692
101279.072
101280.644
101282.286
101283.736
101285.214
101286.516
101287.69
101289.035
101290.513
101291.996
101293.488
101295.013
101296.514
101297.994
101299.536
101301.193
101302.776
101304.253
101305.946
101307.696
101309.402
101311.597
101313.589
101315.189
101317.087
101319.189
101321.298
101323.537
101325.853
101327.875
101329.682
101331.807
101334.343
101336.166
101338.035
101340.327
101257.63
101257.689
101257.759
101257.832
101257.909
101257.991
101258.078
101258.171
101258.269
101258.373
101258.483
101258.599
101258.721
101258.85
101258.985
101259.128
101259.278
101259.437
101259.606
101259.786
101259.978
101260.185
101260.41
101260.656
101260.925
101261.223
101261.553
101261.921
101262.332
101262.792
101263.307
101263.882
101264.523
101265.235
101266.022
101266.886
101267.83
101268.854
101269.956
101271.134
101272.382
101273.691
101275.058
101276.456
101277.923
101279.334
101280.586
101281.562
101282.537
101284.183
101286.444
101288.537
101290.488
101292.102
101293.586
101295.083
101296.616
101298.204
101299.814
101301.728
101303.947
101305.89
101307.656
101309.623
101311.468
101313.322
101315.224
101316.782
101318.59
101320.674
101322.697
101324.725
101327.002
101329.729
101332.211
101333.951
101335.763
101338.008
101340.383
101341.441
101252.356
101252.431
101252.518
101252.607
101252.7
101252.798
101252.901
101253.009
101253.124
101253.244
101253.37
101253.503
101253.643
101253.79
101253.946
101254.111
101254.286
101254.474
101254.675
101254.892
101255.128
101255.386
101255.67
101255.984
101256.332
101256.72
101257.154
101257.638
101258.179
101258.782
101259.451
101260.192
101261.007
101261.899
101262.869
101263.917
101265.041
101266.239
101267.508
101268.847
101270.254
101271.722
101273.254
101274.848
101276.435
101278.129
101279.887
101281.586
101283.495
101285.429
101287.174
101288.941
101290.327
101292.058
101294.472
101296.525
101297.915
101299.155
101300.829
101302.829
101304.92
101306.978
101308.6
101309.915
101311.341
101313.228
101315.632
101318.001
101320.318
101322.838
101325.527
101328.522
101330.626
101332.061
101333.614
101335.775
101337.576
101338.935
101340.052
101341.617
101246.69
101246.781
101246.885
101246.991
101247.099
101247.213
101247.331
101247.455
101247.585
101247.721
101247.865
101248.015
101248.175
101248.344
101248.524
101248.717
101248.926
101249.151
101249.398
101249.668
101249.967
101250.298
101250.667
101251.08
101251.541
101252.058
101252.635
101253.279
101253.996
101254.788
101255.661
101256.617
101257.656
101258.777
101259.979
101261.257
101262.604
101264.007
101265.459
101266.96
101268.472
101270.092
101271.975
101274.044
101276.259
101278.633
101281.118
101283.795
101285.562
101286.61
101287.614
101288.77
101290.603
101292.821
101294.559
101295.878
101297.695
101300.591
101302.924
101304.263
101305.398
101306.996
101309.667
101312.342
101313.959
101315.582
101317.761
101320.671
101323
101324.858
101326.781
101328.725
101330.726
101333.005
101334.93
101336.526
101338.524
101341.123
101343.53
101345.349
101240.761
101240.867
101240.989
101241.111
101241.235
101241.364
101241.499
101241.639
101241.787
101241.942
101242.106
101242.28
101242.466
101242.665
101242.882
101243.117
101243.374
101243.659
101243.974
101244.324
101244.716
101245.156
101245.648
101246.2
101246.817
101247.506
101248.273
101249.122
101250.056
101251.079
101252.191
101253.392
101254.68
101256.053
101257.508
101259.043
101260.644
101262.296
101264.053
101266.393
101269.408
101272.365
101274.501
101276.068
101277.465
101278.808
101280.152
101281.396
101283.228
101285.999
101288.795
101291.264
101292.91
101294.104
101295.284
101296.932
101298.927
101300.49
101302.223
101304.671
101307.577
101310.214
101312.101
101313.794
101316.237
101318.567
101319.997
101321.238
101323.587
101326.875
101329.251
101331.092
101332.817
101334.911
101337.118
101339.544
101341.966
101344.058
101346.093
101347.997
101280.035
101280.042
101280.05
101280.057
101280.065
101280.072
101280.08
101280.087
101280.095
101280.102
101280.11
101280.118
101280.125
101280.133
101280.14
101280.147
101280.154
101280.161
101280.168
101280.175
101280.181
101280.187
101280.193
101280.198
101280.203
101280.208
101280.212
101280.215
101280.218
101280.22
101280.222
101280.222
101280.222
101280.221
101280.218
101280.215
101280.21
101280.204
101280.196
101280.186
101280.175
101280.162
101280.147
101280.129
101280.109
101280.087
101280.061
101280.03
101279.995
101279.955
101279.91
101279.86
101279.801
101279.732
101279.651
101279.562
101279.465
101279.353
101279.226
101279.079
101278.91
101278.717
101278.493
101278.235
101277.933
101277.576
101277.187
101276.749
101276.155
101275.384
101274.474
101273.482
101272.536
101271.64
101270.57
101269.076
101267.303
101265.481
101264.026
101262.49
101281.264
101281.271
101281.28
101281.288
101281.296
101281.304
101281.312
101281.32
101281.327
101281.335
101281.343
101281.35
101281.358
101281.365
101281.372
101281.379
101281.385
101281.392
101281.398
101281.403
101281.408
101281.413
101281.417
101281.421
101281.424
101281.426
101281.428
101281.429
101281.429
101281.428
101281.426
101281.422
101281.418
101281.412
101281.405
101281.396
101281.386
101281.373
101281.359
101281.343
101281.324
101281.303
101281.279
101281.253
101281.223
101281.189
101281.152
101281.111
101281.064
101281.013
101280.956
101280.89
101280.815
101280.731
101280.637
101280.53
101280.408
101280.267
101280.103
101279.919
101279.715
101279.488
101279.234
101278.951
101278.642
101278.29
101277.827
101277.271
101276.658
101275.946
101275.13
101274.202
101273.037
101271.526
101270.107
101268.861
101267.379
101265.258
101262.741
101260.487
101282.51
101282.518
101282.527
101282.535
101282.544
101282.552
101282.561
101282.569
101282.577
101282.586
101282.594
101282.601
101282.609
101282.616
101282.624
101282.63
101282.637
101282.643
101282.649
101282.654
101282.659
101282.664
101282.668
101282.671
101282.673
101282.675
101282.676
101282.676
101282.675
101282.673
101282.67
101282.665
101282.659
101282.652
101282.643
101282.633
101282.62
101282.606
101282.589
101282.571
101282.55
101282.526
101282.499
101282.47
101282.437
101282.401
101282.361
101282.317
101282.268
101282.215
101282.155
101282.089
101282.016
101281.935
101281.844
101281.742
101281.627
101281.499
101281.353
101281.187
101280.998
101280.781
101280.529
101280.233
101279.88
101279.484
101279.046
101278.53
101277.921
101277.208
101276.382
101275.432
101274.342
101273.053
101271.417
101269.393
101267.608
101266.056
101263.623
101260.345
101283.768
101283.776
101283.786
101283.795
101283.804
101283.813
101283.822
101283.831
101283.84
101283.849
101283.858
101283.866
101283.875
101283.883
101283.891
101283.898
101283.906
101283.913
101283.92
101283.926
101283.932
101283.937
101283.942
101283.946
101283.95
101283.952
101283.954
101283.955
101283.956
101283.955
101283.953
101283.95
101283.945
101283.939
101283.932
101283.923
101283.913
101283.901
101283.887
101283.871
101283.853
101283.832
101283.81
101283.785
101283.757
101283.726
101283.692
101283.655
101283.614
101283.569
101283.52
101283.465
101283.404
101283.337
101283.263
101283.18
101283.089
101282.987
101282.872
101282.737
101282.581
101282.399
101282.186
101281.935
101281.635
101281.277
101280.86
101280.373
101279.8
101279.127
101278.341
101277.424
101276.364
101275.153
101273.767
101272.123
101270.013
101267.494
101265.284
101262.855
101285.042
101285.05
101285.06
101285.07
101285.079
101285.089
101285.098
101285.108
101285.118
101285.127
101285.137
101285.147
101285.156
101285.165
101285.174
101285.183
101285.192
101285.2
101285.208
101285.216
101285.224
101285.231
101285.238
101285.244
101285.25
101285.255
101285.259
101285.263
101285.266
101285.268
101285.269
101285.27
101285.269
101285.268
101285.265
101285.261
101285.256
101285.25
101285.242
101285.233
101285.222
101285.21
101285.196
101285.181
101285.163
101285.144
101285.123
101285.099
101285.074
101285.045
101285.014
101284.979
101284.941
101284.897
101284.848
101284.793
101284.73
101284.657
101284.574
101284.477
101284.362
101284.226
101284.063
101283.867
101283.631
101283.345
101283
101282.586
101282.092
101281.507
101280.812
101279.995
101279.043
101277.941
101276.679
101275.238
101273.588
101271.525
101268.918
101266.442
101286.315
101286.324
101286.334
101286.343
101286.353
101286.363
101286.374
101286.384
101286.394
101286.405
101286.416
101286.426
101286.437
101286.447
101286.458
101286.469
101286.479
101286.489
101286.5
101286.51
101286.52
101286.529
101286.539
101286.548
101286.557
101286.566
101286.574
101286.582
101286.589
101286.596
101286.602
101286.608
101286.614
101286.619
101286.623
101286.627
101286.63
101286.632
101286.634
101286.635
101286.636
101286.636
101286.636
101286.635
101286.634
101286.632
101286.629
101286.626
101286.622
101286.618
101286.613
101286.607
101286.599
101286.59
101286.577
101286.562
101286.542
101286.517
101286.484
101286.442
101286.387
101286.316
101286.223
101286.103
101285.948
101285.749
101285.496
101285.181
101284.79
101284.308
101283.721
101283.014
101282.171
101281.178
101280.016
101278.668
101277.118
101275.328
101273.14
101270.379
101287.58
101287.588
101287.598
101287.608
101287.618
101287.628
101287.638
101287.649
101287.66
101287.671
101287.683
101287.694
101287.706
101287.718
101287.73
101287.742
101287.754
101287.766
101287.779
101287.791
101287.804
101287.816
101287.829
101287.842
101287.854
101287.867
101287.88
101287.892
101287.905
101287.918
101287.93
101287.943
101287.956
101287.968
101287.981
101287.994
101288.007
101288.021
101288.035
101288.049
101288.064
101288.08
101288.096
101288.114
101288.132
101288.151
101288.172
101288.194
101288.218
101288.243
101288.27
101288.299
101288.33
101288.362
101288.395
101288.429
101288.463
101288.496
101288.527
101288.553
101288.573
101288.583
101288.578
101288.552
101288.499
101288.409
101288.273
101288.08
101287.816
101287.469
101287.023
101286.461
101285.764
101284.914
101283.887
101282.663
101281.225
101279.539
101277.575
101275.232
101288.814
101288.822
101288.831
101288.84
101288.849
101288.859
101288.87
101288.881
101288.892
101288.904
101288.916
101288.928
101288.941
101288.954
101288.967
101288.981
101288.995
101289.009
101289.024
101289.039
101289.054
101289.07
101289.086
101289.102
101289.118
101289.135
101289.153
101289.171
101289.189
101289.208
101289.227
101289.247
101289.268
101289.289
101289.312
101289.335
101289.359
101289.385
101289.412
101289.441
101289.472
101289.504
101289.539
101289.576
101289.616
101289.659
101289.705
101289.755
101289.809
101289.867
101289.929
101289.996
101290.068
101290.145
101290.227
101290.314
101290.405
101290.5
101290.598
101290.698
101290.798
101290.894
101290.984
101291.062
101291.122
101291.155
101291.152
101291.101
101290.991
101290.805
101290.529
101290.145
101289.631
101288.965
101288.122
101287.092
101285.86
101284.405
101282.702
101280.755
101290.003
101290.01
101290.018
101290.026
101290.035
101290.044
101290.054
101290.064
101290.075
101290.087
101290.099
101290.112
101290.125
101290.139
101290.153
101290.168
101290.183
101290.199
101290.215
101290.232
101290.25
101290.269
101290.287
101290.307
101290.327
101290.348
101290.37
101290.393
101290.417
101290.441
101290.467
101290.494
101290.522
101290.552
101290.584
101290.618
101290.653
101290.691
101290.732
101290.775
101290.821
101290.871
101290.925
101290.982
101291.044
101291.112
101291.184
101291.262
101291.347
101291.439
101291.537
101291.644
101291.759
101291.882
101292.014
101292.156
101292.307
101292.466
101292.633
101292.808
101292.99
101293.175
101293.362
101293.547
101293.723
101293.883
101294.019
101294.12
101294.173
101294.164
101294.077
101293.892
101293.59
101293.147
101292.544
101291.77
101290.797
101289.604
101288.14
101286.449
101291.122
101291.127
101291.133
101291.14
101291.147
101291.155
101291.164
101291.174
101291.184
101291.195
101291.207
101291.219
101291.232
101291.246
101291.261
101291.276
101291.292
101291.309
101291.327
101291.346
101291.365
101291.386
101291.407
101291.429
101291.452
101291.477
101291.502
101291.529
101291.558
101291.588
101291.619
101291.653
101291.689
101291.728
101291.769
101291.812
101291.858
101291.908
101291.961
101292.018
101292.079
101292.145
101292.217
101292.294
101292.377
101292.467
101292.565
101292.671
101292.785
101292.909
101293.043
101293.187
101293.344
101293.512
101293.694
101293.888
101294.097
101294.319
101294.555
101294.804
101295.066
101295.339
101295.621
101295.91
101296.201
101296.489
101296.765
101297.021
101297.244
101297.421
101297.536
101297.57
101297.502
101297.31
101296.982
101296.507
101295.853
101295.008
101293.891
101292.612
101292.157
101292.16
101292.164
101292.169
101292.174
101292.18
101292.188
101292.196
101292.204
101292.214
101292.225
101292.236
101292.249
101292.262
101292.276
101292.291
101292.307
101292.324
101292.342
101292.361
101292.381
101292.403
101292.426
101292.45
101292.476
101292.503
101292.532
101292.562
101292.595
101292.63
101292.667
101292.707
101292.749
101292.794
101292.841
101292.892
101292.948
101293.007
101293.071
101293.14
101293.215
101293.295
101293.381
101293.475
101293.577
101293.687
101293.806
101293.936
101294.076
101294.229
101294.395
101294.574
101294.768
101294.978
101295.204
101295.448
101295.709
101295.989
101296.288
101296.606
101296.943
101297.298
101297.67
101298.057
101298.456
101298.862
101299.27
101299.673
101300.061
101300.421
101300.739
101300.997
101301.173
101301.242
101301.195
101301.023
101300.699
101300.215
101299.516
101298.603
101293.082
101293.082
101293.083
101293.085
101293.088
101293.092
101293.097
101293.103
101293.11
101293.117
101293.126
101293.136
101293.147
101293.159
101293.172
101293.187
101293.202
101293.219
101293.237
101293.257
101293.278
101293.301
101293.325
101293.35
101293.378
101293.407
101293.438
101293.472
101293.508
101293.546
101293.587
101293.63
101293.676
101293.726
101293.78
101293.838
101293.901
101293.968
101294.04
101294.117
101294.2
101294.29
101294.387
101294.495
101294.613
101294.741
101294.88
101295.03
101295.192
101295.367
101295.557
101295.763
101295.988
101296.231
101296.494
101296.778
101297.085
101297.415
101297.769
101298.148
101298.55
101298.976
101299.426
101299.898
101300.39
101300.9
101301.422
101301.952
101302.483
101303.004
101303.503
101303.965
101304.372
101304.698
101304.918
101305.024
101305.007
101304.84
101304.504
101303.85
101293.89
101293.887
101293.885
101293.884
101293.883
101293.885
101293.887
101293.89
101293.894
101293.9
101293.906
101293.914
101293.923
101293.933
101293.945
101293.958
101293.972
101293.987
101294.004
101294.023
101294.043
101294.065
101294.089
101294.114
101294.142
101294.172
101294.203
101294.236
101294.273
101294.312
101294.355
101294.401
101294.45
101294.503
101294.56
101294.622
101294.689
101294.762
101294.841
101294.927
101295.022
101295.125
101295.235
101295.35
101295.474
101295.608
101295.753
101295.911
101296.081
101296.265
101296.474
101296.71
101296.964
101297.238
101297.532
101297.848
101298.187
101298.551
101298.944
101299.366
101299.817
101300.299
101300.809
101301.349
101301.914
101302.504
101303.116
101303.745
101304.387
101305.032
101305.673
101306.294
101306.882
101307.417
101307.876
101308.232
101308.461
101308.539
101308.479
101308.091
101294.548
101294.542
101294.536
101294.531
101294.528
101294.526
101294.525
101294.525
101294.526
101294.529
101294.533
101294.538
101294.545
101294.553
101294.563
101294.574
101294.586
101294.6
101294.616
101294.633
101294.653
101294.674
101294.696
101294.721
101294.747
101294.775
101294.807
101294.842
101294.879
101294.918
101294.961
101295.007
101295.056
101295.11
101295.167
101295.23
101295.297
101295.37
101295.448
101295.534
101295.626
101295.728
101295.84
101295.964
101296.1
101296.249
101296.413
101296.595
101296.797