/*--------------------------------*- C++ -*----------------------------------*\
  =========                 |
  \\      /  F ield         | OpenFOAM: The Open Source CFD Toolbox
   \\    /   O peration     | Website:  https://openfoam.org
    \\  /    A nd           | Version:  8
     \\/     M anipulation  |
\*---------------------------------------------------------------------------*/
FoamFile
{
    version     2.0;
    format      ascii;
    class       volVectorField;
    location    "0.011";
    object      U;
}
// * * * * * * * * * * * * * * * * * * * * * * * * * * * * * * * * * * * * * //

dimensions      [0 1 -1 0 0 0 0];

internalField   nonuniform List<vector> 
42400
(
(-0.0212684594 0.0203548198 -9.940608e-27)
(-0.0623881954 0.0586344161 3.2709869e-26)
(-0.103207176 0.0953486038 3.2509661e-26)
(-0.144079691 0.130795457 0)
(-0.185155974 0.165148551 0)
(-0.226490499 0.198460784 -1.54575933e-27)
(-0.268078217 0.230716037 0)
(-0.309878385 0.261862715 1.71535781e-27)
(-0.351830582 0.29183085 0)
(-0.393863502 0.32054141 1.90408541e-27)
(-0.435899368 0.34791215 2.0062743e-27)
(-0.477856275 0.373861646 -2.11405691e-27)
(-0.519649632 0.398312231 -4.30199882e-27)
(-0.561193138 0.421192237 -1.58006515e-28)
(-0.602399529 0.442437765 -2.4740743e-27)
(-0.643181228 0.461994115 0)
(-0.683450963 0.479816995 0)
(-0.723122346 0.495873523 0)
(-0.762110386 0.510143078 0)
(-0.800331894 0.52261798 0)
(-0.837705725 0.533304012 0)
(-0.874152803 0.542220785 -7.15220691e-27)
(-0.909595884 0.549401939 3.8808693e-26)
(-0.943959 0.554895166 9.6536985e-26)
(-0.977166538 0.558762063 5.82364077e-26)
(-1.00914187 0.561077769 -8.84171223e-27)
(-1.03980548 0.561930404 -9.32609506e-27)
(-1.06907234 0.561420304 1.9677538e-26)
(-1.09684843 0.559659113 0)
(-1.12302661 0.556768758 0)
(-1.14748207 0.552879541 -9.69875682e-26)
(-1.17006532 0.54812214 -1.03936706e-25)
(-1.19058815 0.542616238 2.58439704e-26)
(-1.20881244 0.5364603 1.1884737e-25)
(-1.22449164 0.529789986 9.61495227e-26)
(-1.23740345 0.5227472 0)
(-1.24737956 0.515391466 0)
(-1.25369184 0.508985892 0)
(-1.25671758 0.502004979 0)
(-1.25461887 0.495319494 2.73375433e-25)
(-1.24824531 0.487507767 1.51555665e-25)
(-1.23467805 0.48179031 8.1996503e-26)
(-1.21377544 0.47626048 2.92812043e-25)
(-1.18350763 0.470789093 -9.92223055e-26)
(-1.14100215 0.465775791 -2.11249321e-25)
(-1.08581188 0.459835747 -5.14294086e-25)
(-1.01528116 0.454052972 1.18628895e-25)
(-0.926974148 0.448281141 3.68407091e-25)
(-0.818649689 0.442567533 1.29935425e-25)
(-0.687741236 0.437173253 5.58405775e-25)
(-0.532438805 0.431737937 7.59429079e-33)
(-0.346720527 0.426186469 -1.52788908e-24)
(-0.128209786 0.42104065 -1.4563243e-24)
(0.127083943 0.419017377 3.36626359e-25)
(0.419072081 0.418062484 0)
(0.775201215 0.413289118 0)
(1.18785404 0.405775375 0)
(1.66264291 0.39874158 -4.51009382e-25)
(2.20756371 0.392517247 -4.74064702e-25)
(2.82921511 0.386314273 0)
(3.5313144 0.379687054 6.43863386e-24)
(4.31879065 0.372198109 8.11675614e-24)
(5.19653105 0.36346856 -8.84123749e-24)
(6.16814814 0.354318499 -1.00290285e-23)
(7.23628119 0.342777459 0)
(8.40665344 0.328286731 0)
(9.64276776 0.330589785 -9.4213982e-24)
(10.9771911 0.295319903 -1.04271154e-23)
(12.4699438 0.181005654 -4.81831056e-25)
(13.6534205 0.454698916 0)
(14.931795 0.670233855 0)
(17.0855318 -0.334240108 -2.78150235e-25)
(18.2163785 -0.248762595 1.67284835e-25)
(18.3580205 1.91352709 0)
(20.0381973 1.63409159 6.00164074e-25)
(22.1975632 -0.859852757 1.10090045e-23)
(23.1908341 -0.99181151 2.63758075e-23)
(23.1949392 0.0969927324 -1.04160083e-24)
(23.1981839 1.36712912 -9.35653406e-24)
(23.4351142 1.05955968 -4.32371507e-23)
(-0.0259180624 0.0229594761 0)
(-0.0757266965 0.0662675329 2.58664408e-26)
(-0.124761393 0.107920688 2.46185954e-26)
(-0.173397089 0.148222212 0)
(-0.221820581 0.187359984 0)
(-0.270111822 0.225408853 1.78468436e-26)
(-0.318284321 0.262375111 1.76053644e-26)
(-0.366308031 0.298225561 1.99634072e-27)
(-0.414123804 0.332902252 0)
(-0.461652018 0.366330984 2.21287101e-27)
(-0.508797939 0.398427497 2.32969522e-27)
(-0.555455638 0.429102562 -3.35833797e-27)
(-0.60151116 0.458266264 3.10137941e-27)
(-0.646845147 0.485831629 4.12015354e-27)
(-0.691334988 0.511717636 -1.10737813e-26)
(-0.734856536 0.535851689 -6.49561759e-27)
(-0.777285449 0.558171603 0)
(-0.818498144 0.578627165 6.68153173e-27)
(-0.85837238 0.597181303 0)
(-0.896787456 0.61381092 0)
(-0.933624037 0.628507431 0)
(-0.968763568 0.641277036 3.36290509e-26)
(-1.00208729 0.652140801 8.54115834e-26)
(-1.03347478 0.661134571 5.22640624e-26)
(-1.06280201 0.668308761 0)
(-1.08993872 0.673727956 -2.00013276e-26)
(-1.11474482 0.677469844 -1.04921363e-26)
(-1.13706546 0.679623268 2.20596762e-26)
(-1.15672258 0.680285591 7.83639755e-26)
(-1.17350398 0.679559976 8.2927863e-26)
(-1.18719065 0.677555837 -2.56392148e-26)
(-1.19757639 0.674397592 -2.67159796e-26)
(-1.20444293 0.670208976 1.63797456e-25)
(-1.20735483 0.665652777 1.47420991e-25)
(-1.2063795 0.659981412 -2.13426659e-25)
(-1.20064768 0.653818751 -2.404964e-25)
(-1.18964594 0.647506724 0)
(-1.17383222 0.64020576 3.62550324e-26)
(-1.15015891 0.633909703 0)
(-1.11818643 0.62711814 8.14803839e-26)
(-1.07522592 0.62044726 2.36124519e-25)
(-1.0211487 0.612619537 2.08822024e-25)
(-0.953806694 0.604803554 9.29607946e-26)
(-0.871598739 0.597109425 -9.70039796e-26)
(-0.772352011 0.589551358 2.03090224e-25)
(-0.653696463 0.582035579 -1.04933904e-25)
(-0.513757861 0.573986109 1.10084194e-25)
(-0.348041531 0.565639446 3.55831098e-25)
(-0.157108507 0.557591884 7.63060574e-25)
(0.0691763349 0.551898161 0)
(0.320236373 0.548906457 -1.31352378e-25)
(0.626026758 0.543364557 2.79617139e-25)
(0.983126014 0.534918131 5.86915198e-25)
(1.39399938 0.52634941 1.44665075e-24)
(1.86676935 0.518993428 3.28571626e-25)
(2.40724623 0.512439002 3.20674231e-24)
(3.01935199 0.50642776 3.71191329e-24)
(3.70803644 0.501242196 -3.45224061e-25)
(4.47840352 0.497004005 -3.48700551e-25)
(5.3342573 0.493824968 5.6569658e-24)
(6.27845397 0.492729089 6.53798647e-24)
(7.31117573 0.494818872 3.23122873e-25)
(8.43354687 0.497403658 -2.95694615e-25)
(9.63854361 0.500016674 0)
(10.9145183 0.501487948 -8.15326721e-24)
(12.2636379 0.490456847 -1.59742915e-23)
(13.6242867 0.504698061 -7.91635513e-24)
(14.9630093 0.562875477 0)
(16.4945543 0.398474866 4.79521829e-26)
(17.8693535 0.324385993 9.45579052e-26)
(18.6704842 0.973280637 6.68949722e-24)
(20.0266126 0.895346721 1.06168052e-23)
(21.7213773 -0.305123945 -7.31970688e-24)
(22.5100603 0.0632256819 -7.06067864e-24)
(22.7280608 1.36352982 7.50356694e-26)
(23.1337154 1.31435818 1.77279602e-23)
(23.5006323 0.463598918 1.43427412e-23)
(23.5580201 0.264780538 -1.48927411e-24)
(23.60913 0.37702521 -2.2759748e-23)
(23.6290832 0.521020113 -1.1548279e-23)
(-0.0298541229 0.0244469782 2.96254039e-27)
(-0.0870217946 0.0706566102 8.05637217e-28)
(-0.143014927 0.115190667 -8.51903342e-28)
(-0.198232963 0.158355654 8.95012769e-28)
(-0.252872651 0.200337734 0)
(-0.307030832 0.241224966 -1.36780269e-26)
(-0.360743369 0.28104562 1.95445079e-33)
(-0.413981522 0.31978263 9.18518777e-27)
(-0.466680669 0.357387843 6.56599237e-27)
(-0.518746528 0.393791655 7.31064236e-27)
(-0.570061136 0.428909385 3.03687662e-27)
(-0.620488205 0.462646956 2.71823441e-27)
(-0.669877857 0.494906095 2.86067777e-27)
(-0.718070675 0.525588927 -1.08816399e-26)
(-0.764901071 0.554601882 -1.52268309e-26)
(-0.810199921 0.581858902 9.99594342e-27)
(-0.853796494 0.607283985 1.76911011e-26)
(-0.895519668 0.630813127 5.96067797e-26)
(-0.935198485 0.652395739 3.51315138e-26)
(-0.97266207 0.671995617 8.14903338e-27)
(-1.00773894 0.689591572 -8.55940231e-27)
(-1.0402556 0.705177814 -8.98725417e-27)
(-1.070034 0.718764007 0)
(-1.09688852 0.730375284 1.97573361e-26)
(-1.12062156 0.740051658 -7.0370778e-26)
(-1.14101841 0.7478436 4.67390907e-29)
(-1.15784766 0.753807789 8.11800037e-26)
(-1.17086701 0.758000465 8.55876651e-26)
(-1.17982181 0.760469311 9.53636497e-26)
(-1.18433585 0.761432342 -8.69806908e-26)
(-1.18439793 0.760834749 -2.69929444e-26)
(-1.1794828 0.758912928 2.44692165e-25)
(-1.16916864 0.755948018 2.16117195e-25)
(-1.15324425 0.751971216 0)
(-1.13135371 0.747734645 0)
(-1.10111792 0.742751381 -3.43997671e-26)
(-1.06163643 0.736563471 0)
(-1.01072707 0.729679945 7.61728526e-26)
(-0.948394075 0.721560228 1.90459392e-25)
(-0.872810837 0.71303594 1.62159419e-25)
(-0.782444384 0.704219468 -1.30447429e-25)
(-0.67528106 0.695070227 0)
(-0.548987301 0.685602952 0)
(-0.402068796 0.675409247 2.5657011e-25)
(-0.230260816 0.664700549 5.28255922e-25)
(-0.0314787556 0.655962 1.00964837e-25)
(0.18762228 0.650526934 0)
(0.452422962 0.643493782 0)
(0.76123903 0.633953204 4.64916311e-25)
(1.11824666 0.624063222 6.66248526e-25)
(1.52788405 0.61532627 -1.24295286e-25)
(1.99727903 0.607908794 0)
(2.53054087 0.6014451 -6.97754496e-25)
(3.13258184 0.596227294 -1.13335413e-24)
(3.80846582 0.592483769 -2.47497118e-24)
(4.5631664 0.59033265 -2.79820724e-24)
(5.40061804 0.59082134 -3.68846078e-24)
(6.32297745 0.595248328 -3.00104965e-32)
(7.33068212 0.604531814 3.49544159e-32)
(8.42073659 0.619151319 -1.15961227e-23)
(9.59128221 0.637593727 -5.87336806e-24)
(10.8299277 0.660487561 6.00089656e-24)
(12.1254168 0.68819785 6.026709e-24)
(13.4574899 0.717293352 0)
(14.8044575 0.754208184 6.66284171e-24)
(16.154898 0.779230445 1.48441185e-23)
(17.4991511 0.774580796 7.76402715e-24)
(18.6852225 0.868270312 0)
(19.8537662 0.94170357 -4.8686111e-26)
(21.1335435 0.692633392 7.92167869e-24)
(21.9959054 0.728978093 6.42552698e-24)
(22.5058183 1.29783294 0)
(23.2131034 1.14310448 0)
(23.6569479 0.52353296 7.74313978e-25)
(23.7343765 0.628108776 -1.20263925e-24)
(23.7396043 0.964342019 9.66168839e-24)
(23.5893289 1.08057302 2.06576671e-23)
(23.5646368 0.942977083 0)
(23.6228389 0.793886596 -4.12509058e-25)
(23.6567766 0.6813517 6.76829229e-24)
(-0.0332306816 0.0251115032 5.55156503e-28)
(-0.0967077955 0.0726057241 8.73371063e-28)
(-0.158664648 0.118399339 7.32270538e-27)
(-0.219511629 0.162796315 -4.43009346e-27)
(-0.279474201 0.205993955 -5.52820524e-27)
(-0.338660198 0.248086975 0)
(-0.397073929 0.289103503 -6.55670351e-27)
(-0.454708721 0.329040832 -6.00720858e-27)
(-0.511481375 0.367864371 -5.39567159e-28)
(-0.567275088 0.405510175 2.82468206e-27)
(-0.621942759 0.441895731 1.21663538e-26)
(-0.675311684 0.476926361 7.15058655e-34)
(-0.727189488 0.510500852 3.10923856e-27)
(-0.777369473 0.542516612 4.19198047e-33)
(-0.825635034 0.57287417 -3.44154267e-27)
(-0.871763018 0.60148088 3.81329252e-26)
(-0.915525994 0.628253805 -4.45008998e-26)
(-0.956693316 0.653121947 -7.96510518e-27)
(-0.995030963 0.676027942 5.00810493e-26)
(-1.03030077 0.696929502 8.77367579e-27)
(-1.06225932 0.715799979 -1.84512362e-26)
(-1.09065138 0.73262161 -7.17958284e-26)
(-1.11520713 0.747381392 -7.90599926e-26)
(-1.13564488 0.76007283 1.0608911e-26)
(-1.15167504 0.770680717 0)
(-1.16302631 0.779296096 1.15452045e-26)
(-1.16943274 0.786003913 0)
(-1.17060122 0.790946922 1.43228207e-25)
(-1.16619886 0.79436486 2.80342814e-25)
(-1.15594681 0.796309533 1.62656896e-25)
(-1.13920065 0.797091005 -1.2700803e-25)
(-1.11451327 0.796367072 -1.53929065e-25)
(-1.08105419 0.794065767 6.28383823e-26)
(-1.03766017 0.790119413 3.28685363e-26)
(-0.98252706 0.78485505 -1.87626197e-25)
(-0.915648483 0.778334855 -2.48580482e-25)
(-0.835376393 0.771022376 0)
(-0.740200808 0.762990505 2.68162757e-25)
(-0.628151335 0.754270431 2.362686e-25)
(-0.497063523 0.744960901 8.08164751e-26)
(-0.345321558 0.734727117 8.44237706e-26)
(-0.169210198 0.723682743 0)
(0.0341226968 0.714408387 0)
(0.256443765 0.708111514 0)
(0.524836513 0.700024221 9.7518379e-26)
(0.835410556 0.689655286 5.32997813e-25)
(1.19253072 0.679757686 5.33734257e-25)
(1.60127096 0.671348945 0)
(2.06604471 0.664376036 0)
(2.59171955 0.658925381 7.07472892e-25)
(3.18343759 0.655311025 7.3069496e-25)
(3.84647317 0.653880293 1.03295781e-24)
(4.58569074 0.655326338 1.22496823e-24)
(5.40463059 0.660561149 -2.30773207e-25)
(6.30520546 0.670388071 -1.87565632e-24)
(7.28738359 0.685393839 -1.72995033e-24)
(8.34940762 0.706079739 -4.50491809e-24)
(9.48705735 0.732805159 -4.97135054e-24)
(10.6956838 0.765192385 0)
(11.9608799 0.803941841 7.69344653e-26)
(13.2678651 0.850488528 -5.48747197e-24)
(14.5923642 0.903349787 -1.12413342e-23)
(15.9173128 0.966916525 3.59187812e-26)
(17.2095067 1.0277014 6.82976408e-26)
(18.4640427 1.09133617 -6.04373354e-24)
(19.6156426 1.16567364 5.97470651e-24)
(20.7355174 1.19528609 5.26074486e-24)
(21.7133732 1.19596173 -5.46315843e-25)
(22.5755672 1.29107283 -8.85582374e-24)
(23.2100873 1.31682869 -1.59546654e-23)
(23.6968037 1.19699996 7.42739764e-26)
(23.8115935 1.27084943 -1.02292279e-23)
(23.8169852 1.39328968 -4.39324445e-24)
(23.7271039 1.4951166 0)
(23.7196078 1.32059489 -8.56788613e-24)
(23.7588149 1.13884616 -1.87236879e-23)
(23.7497514 1.13969254 5.708033e-25)
(23.7089539 1.21385036 1.17412564e-23)
(23.7115989 1.18892126 8.61818555e-24)
(23.68636 1.0869469 9.59463359e-24)
(-0.0363701749 0.0253082666 2.70116244e-27)
(-0.105676448 0.0731172171 0)
(-0.173108228 0.119145901 0)
(-0.239086997 0.163693237 1.54279412e-30)
(-0.30384618 0.206961076 0)
(-0.36749831 0.249058947 0)
(-0.430074174 0.290028361 0)
(-0.49149499 0.329858302 -5.19425732e-27)
(-0.551658473 0.36851887 0)
(-0.610451444 0.405958992 2.88831846e-27)
(-0.667680146 0.442109208 1.99690711e-26)
(-0.723125774 0.476877252 4.0048505e-33)
(-0.77654405 0.510163245 -2.12696519e-26)
(-0.827670585 0.541865826 0)
(-0.876226202 0.571886762 -3.71978653e-27)
(-0.921921106 0.600134925 7.83075641e-27)
(-0.964457398 0.626528935 0)
(-1.00352503 0.650994633 6.04971347e-26)
(-1.03879922 0.673465527 9.101192e-27)
(-1.06994458 0.693891082 -1.43027307e-25)
(-1.09664473 0.712191534 -9.18214927e-26)
(-1.11856917 0.728480341 1.03775365e-26)
(-1.1354451 0.742756989 0)
(-1.1469529 0.755106013 -1.28552789e-25)
(-1.15274959 0.765670743 -1.43034564e-25)
(-1.15221163 0.774314029 -1.42068842e-25)
(-1.14460981 0.781036328 -1.63630292e-25)
(-1.12927534 0.785848193 1.72306092e-25)
(-1.10540563 0.788767832 1.68741177e-25)
(-1.07199453 0.78981627 0)
(-1.02799302 0.78916189 -2.07530851e-25)
(-0.972885806 0.787088671 -2.230801e-25)
(-0.905351565 0.783741707 3.31102881e-26)
(-0.824004685 0.779179676 -2.08336231e-25)
(-0.727313726 0.77349225 -2.55283938e-25)
(-0.613383375 0.766787903 -7.4615908e-26)
(-0.480090582 0.759223232 3.85311197e-26)
(-0.325713006 0.750510723 -2.81852824e-25)
(-0.146889413 0.740736217 -4.01960361e-25)
(0.0594417537 0.732393616 4.52156942e-25)
(0.284835058 0.726585004 6.29868104e-25)
(0.555660219 0.71925481 3.71179673e-25)
(0.86709364 0.710066602 0)
(1.22324501 0.701802152 -1.00523844e-25)
(1.62925498 0.695256565 -4.95091139e-25)
(2.08910749 0.690381608 -1.04734763e-25)
(2.60747657 0.687501166 2.08164584e-32)
(3.18951323 0.687085994 -5.92578406e-25)
(3.84017943 0.689866196 0)
(4.56391316 0.696536895 -1.13382667e-25)
(5.36388488 0.707817939 -1.29890672e-24)
(6.24171294 0.724373119 -1.25005559e-24)
(7.19740959 0.746718845 -4.09767136e-25)
(8.22915468 0.775352559 -2.14515854e-24)
(9.33354378 0.810726203 -2.07897729e-24)
(10.5046718 0.852960053 -2.40159332e-24)
(11.7358056 0.901062699 -7.45150408e-24)
(13.0112998 0.955164107 -5.25105672e-24)
(14.3131921 1.01606159 -5.55602852e-24)
(15.6175423 1.0825039 -5.87523153e-24)
(16.9043783 1.15540053 0)
(18.1440601 1.227953 9.07817649e-26)
(19.319132 1.30781154 -6.59790036e-24)
(20.383925 1.3842598 -7.08878221e-24)
(21.3637219 1.44513051 -3.76938282e-26)
(22.1962381 1.49972693 0)
(22.927939 1.52500455 1.32421865e-23)
(23.505232 1.51639017 1.34287817e-23)
(23.7336303 1.53442145 7.02748587e-25)
(23.8047518 1.53405052 -6.37995269e-25)
(23.8302042 1.53086481 -2.33801719e-26)
(23.8112371 1.5153344 -5.54033369e-25)
(23.8133024 1.4813077 -8.0704374e-24)
(23.7675484 1.5079236 -1.0494367e-23)
(23.7360564 1.52785172 -4.19333683e-25)
(23.7414926 1.50394722 0)
(23.7573997 1.41827206 -1.2269611e-23)
(23.7637665 1.37330689 -9.63097613e-24)
(23.773979 1.33618338 0)
(23.7909125 1.28299086 -9.38461499e-24)
(-0.0395239404 0.0252595318 -4.128413e-27)
(-0.114611433 0.0728381724 -5.36664951e-27)
(-0.187394069 0.118490789 -6.84398538e-27)
(-0.258300265 0.162509901 -1.14672846e-27)
(-0.327564511 0.205099514 2.76849672e-27)
(-0.39529182 0.246374863 -2.55048478e-27)
(-0.461491995 0.286392627 3.39097043e-27)
(-0.526103782 0.325166435 -3.54269766e-28)
(-0.58900158 0.362664905 2.98981528e-27)
(-0.649943964 0.39883748 6.30276762e-27)
(-0.708738814 0.433608626 -7.50767935e-27)
(-0.765110917 0.466906419 -4.25072758e-26)
(-0.818747411 0.498641601 -3.54255502e-26)
(-0.869310062 0.528718014 -3.94075105e-26)
(-0.916439231 0.557045979 4.07976393e-27)
(-0.959758217 0.583546199 6.74804276e-26)
(-0.998902279 0.608103238 0)
(-1.03347184 0.630749402 0)
(-1.06310965 0.651458917 8.85242722e-26)
(-1.0873583 0.670134317 2.19534812e-25)
(-1.10567839 0.686792872 1.20563172e-25)
(-1.11763338 0.701368869 1.34888559e-25)
(-1.12261153 0.713900194 3.60967462e-33)
(-1.11995353 0.724381909 -1.72189416e-25)
(-1.10891324 0.732800048 1.60184332e-25)
(-1.08887245 0.739364249 3.74684847e-25)
(-1.05908381 0.744170037 1.88266053e-25)
(-1.01857551 0.747277423 -1.48640513e-26)
(-0.966261955 0.748757528 1.54954854e-26)
(-0.900933734 0.748690476 -3.22837277e-26)
(-0.821243019 0.747175155 0)
(-0.725640754 0.744341709 3.13434016e-25)
(-0.61224278 0.740338927 -3.65772783e-26)
(-0.478994591 0.735329824 -2.88082288e-25)
(-0.324093857 0.729091141 0)
(-0.144455548 0.721723029 -4.55530428e-25)
(0.0630230212 0.71549519 -3.8145946e-25)
(0.290276161 0.711375244 0)
(0.561723828 0.706116585 0)
(0.872530788 0.69947495 -3.97379586e-25)
(1.22635898 0.694122986 -4.89164487e-25)
(1.62842433 0.690723864 2.01024285e-25)
(2.08247696 0.689299535 0)
(2.5930516 0.690436592 4.70139017e-25)
(3.16500756 0.694780436 1.16289852e-24)
(3.80280307 0.703002608 5.94931782e-25)
(4.5104337 0.715751092 1.14281675e-25)
(5.29084504 0.733716585 -2.17759548e-27)
(6.14565427 0.757616927 0)
(7.075061 0.78815863 -1.29793218e-24)
(8.07750999 0.825995424 -2.05808504e-25)
(9.14931016 0.871622339 1.6589541e-24)
(10.2848797 0.92530166 -1.66823322e-25)
(11.4759451 0.986965062 -2.4118488e-24)
(12.7141817 1.05479508 -4.69908225e-24)
(13.9831741 1.1281543 -8.77401887e-33)
(15.2634428 1.20681839 2.67868694e-24)
(16.5314357 1.28913759 0)
(17.7644024 1.37349919 0)
(18.9367395 1.45572339 4.52445095e-26)
(20.0269744 1.53731339 7.2447027e-26)
(21.0077252 1.61281646 0)
(21.8704627 1.68011223 7.64329083e-24)
(22.5853977 1.73908829 7.86489243e-24)
(23.1715789 1.78002424 -9.63905465e-24)
(23.6046874 1.77964688 -2.70110884e-23)
(23.7902417 1.81233025 -8.48476059e-24)
(23.7954637 1.80460276 -7.85384581e-24)
(23.7822095 1.79498876 -5.66046412e-24)
(23.7784298 1.77341358 -4.15092323e-25)
(23.7957274 1.68584079 1.22408911e-23)
(23.805191 1.65356461 8.19082148e-24)
(23.7722939 1.62664715 -1.24772758e-23)
(23.7549155 1.59418692 -1.10257722e-23)
(23.7483139 1.5732853 -1.11694602e-23)
(23.7464272 1.54401311 -1.17057066e-23)
(23.7551996 1.49516684 -8.03057063e-24)
(23.7555625 1.45605113 3.4469698e-32)
(23.7569997 1.45104766 1.82321616e-23)
(23.7558623 1.41846224 1.99030879e-23)
(-0.0428690293 0.0250811846 2.07968886e-27)
(-0.123959537 0.0721116078 1.14387469e-27)
(-0.202158436 0.117008212 4.18312897e-27)
(-0.27789877 0.1600589 -1.9969063e-33)
(-0.351409885 0.201470973 -1.5970232e-27)
(-0.422781056 0.241365049 -2.31677269e-27)
(-0.491996745 0.279804418 5.85535716e-27)
(-0.558957505 0.316813845 2.49075849e-27)
(-0.623492041 0.35238831 8.34916418e-27)
(-0.685376629 0.386483886 1.09564585e-26)
(-0.744266808 0.419036949 1.39294002e-26)
(-0.79981401 0.449966017 1.36985311e-26)
(-0.851642507 0.479195871 2.230009e-26)
(-0.899330786 0.506688527 3.23512996e-26)
(-0.942445699 0.53231847 4.49334078e-27)
(-0.980488692 0.556042174 4.71946803e-27)
(-1.01292424 0.577844894 9.5901839e-26)
(-1.03926653 0.597626978 1.09397678e-25)
(-1.05890773 0.615363152 -1.08797005e-26)
(-1.07123191 0.631098399 -1.1495207e-26)
(-1.07561757 0.644846244 1.35061891e-25)
(-1.07134302 0.656625222 1.50354676e-25)
(-1.05763644 0.666465394 0)
(-1.03358781 0.674434837 1.38611926e-26)
(-0.998242613 0.680573314 0)
(-0.950519131 0.684970364 0)
(-0.889200582 0.687736814 1.58466777e-26)
(-0.812918185 0.689000402 -3.01368223e-25)
(-0.720134431 0.688904869 -2.71179267e-25)
(-0.609055732 0.687611701 2.69876752e-25)
(-0.477717978 0.685312392 3.09057159e-25)
(-0.324298951 0.68188782 3.85691255e-26)
(-0.14598481 0.677480552 -4.03326312e-26)
(0.0603385841 0.674025081 0)
(0.287583629 0.672281844 4.29856449e-26)
(0.557517399 0.669830171 0)
(0.865695464 0.666514637 0)
(1.21578499 0.664744795 4.97093744e-26)
(1.61249268 0.665209067 0)
(2.05942232 0.668056028 0)
(2.56083154 0.673903727 5.76728287e-25)
(3.12119607 0.683404152 7.31370117e-25)
(3.74460716 0.697237899 0)
(4.43474802 0.716084414 0)
(5.19448995 0.740698062 0)
(6.02554995 0.771909779 1.1805374e-25)
(6.92831411 0.810503105 1.13804607e-25)
(7.90150739 0.857146789 1.0893916e-24)
(8.94189689 0.912349326 1.39198505e-24)
(10.0440589 0.976388742 1.62878647e-24)
(11.2004315 1.0493006 1.91122083e-24)
(12.4007828 1.13087495 2.13709502e-24)
(13.6348428 1.21924383 2.28549364e-24)
(14.8853643 1.31333543 0)
(16.1322117 1.41191903 0)
(17.3529102 1.51220891 -2.77345813e-24)
(18.5248813 1.61210059 -5.83572147e-24)
(19.6227993 1.70943237 -3.10117601e-24)
(20.6236437 1.80233987 -3.24765569e-24)
(21.5111624 1.88247343 -3.2822388e-24)
(22.2777797 1.9519977 7.34008107e-24)
(22.904635 2.00654545 1.49009112e-23)
(23.376885 2.0431392 2.49084265e-25)
(23.7139063 2.08436959 -1.00168491e-23)
(23.800597 2.10527826 1.85013851e-25)
(23.8226848 2.11501861 -2.67299665e-25)
(23.7941302 2.09337525 6.49858823e-24)
(23.7942539 2.0684233 -4.12032772e-32)
(23.769653 2.03793626 -8.26551187e-24)
(23.7411705 2.03063198 -4.28754991e-25)
(23.7475876 1.9796919 6.91949315e-24)
(23.767308 1.84826723 1.11064798e-23)
(23.7740149 1.79389637 0)
(23.7427516 1.79903967 3.18566138e-25)
(23.7254988 1.71146631 0)
(23.7306575 1.70175881 8.57125852e-24)
(23.7272074 1.64183078 2.82908027e-23)
(23.7621591 1.60113806 9.32525455e-24)
(23.778223 1.56316969 1.17959669e-23)
(23.7773816 1.53059074 2.21189773e-23)
(-0.0463369065 0.0247226357 1.927859e-27)
(-0.133475427 0.0708258795 5.71869555e-27)
(-0.216931068 0.114567966 -1.35800132e-27)
(-0.297135913 0.15623278 -2.19290164e-27)
(-0.374305495 0.196029779 1.86998052e-28)
(-0.448500444 0.234084148 1.19414742e-27)
(-0.519663304 0.270465063 -3.35697631e-27)
(-0.587641291 0.305203537 -1.2517013e-26)
(-0.652198641 0.338300459 -1.63672664e-26)
(-0.713024748 0.369733085 -2.09961653e-26)
(-0.769734986 0.399481778 0)
(-0.821889898 0.427463286 -8.68471988e-27)
(-0.868975424 0.453636602 4.57450749e-27)
(-0.910453741 0.477912815 0)
(-0.945691341 0.500281064 0)
(-0.974075406 0.520678359 0)
(-0.994934412 0.539087106 0)
(-1.00754652 0.555502609 -5.87110493e-27)
(-1.01113053 0.569931397 0)
(-1.00483996 0.582409751 -9.4091885e-26)
(-0.987813379 0.592971177 -1.03266096e-25)
(-0.958990721 0.601713965 1.84369848e-25)
(-0.917291756 0.608699937 2.18152861e-25)
(-0.861484825 0.614051289 -2.22601478e-25)
(-0.790214204 0.617895478 -2.74852693e-25)
(-0.701963223 0.620380644 -2.80238181e-25)
(-0.595022568 0.621685631 -2.82771602e-25)
(-0.467508273 0.622026901 -3.47019051e-25)
(-0.317610817 0.621377673 -6.71131112e-25)
(-0.142727655 0.619921762 -4.09371545e-25)
(0.0602256063 0.619261163 0)
(0.285349131 0.619993846 -4.32323532e-26)
(0.551542351 0.620447905 -4.58853385e-26)
(0.854988025 0.620594346 0)
(1.19927415 0.622520429 4.94769555e-26)
(1.58860742 0.626897575 0)
(2.02640415 0.633959078 0)
(2.51663022 0.644342112 6.41393461e-25)
(3.06340799 0.658717651 -5.76711632e-26)
(3.67055677 0.677807002 -6.75888732e-25)
(4.34154797 0.702364473 7.93776576e-25)
(5.07917489 0.733191754 7.98998147e-25)
(5.88519686 0.771132953 6.21394104e-26)
(6.76018666 0.816974238 0)
(7.70321885 0.87139016 9.80121833e-25)
(8.71158053 0.93490003 1.3715096e-24)
(9.78050918 1.00780597 0)
(10.9030064 1.09012252 0)
(12.0697516 1.18151446 -2.03718486e-24)
(13.2692361 1.2812406 -2.33077552e-24)
(14.4890375 1.38747107 2.42610203e-24)
(15.7125565 1.49845758 2.50693647e-24)
(16.9188341 1.61267946 -2.69801488e-24)
(18.0852603 1.7277817 -3.11881857e-33)
(19.1895389 1.84104522 2.97930582e-24)
(20.2105741 1.94836542 1.54128382e-26)
(21.1300571 2.04629592 0)
(21.9296881 2.13333072 9.74661766e-26)
(22.5959812 2.20970672 -3.34261414e-24)
(23.1226897 2.26196995 2.00172346e-25)
(23.5451331 2.30630768 5.38577946e-24)
(23.7845655 2.32619294 0)
(23.8554958 2.3389753 1.75601187e-25)
(23.8420228 2.31435302 0)
(23.8388792 2.32938091 1.10722048e-25)
(23.7979379 2.32453363 -1.42697312e-25)
(23.7783401 2.30108132 -3.85053311e-25)
(23.7809081 2.26882493 -7.47137716e-24)
(23.7822104 2.20377178 -1.09182248e-23)
(23.7559274 2.20948011 -3.07715752e-25)
(23.7096873 2.17879553 -1.13979277e-23)
(23.7018088 2.18586054 -7.62225758e-24)
(23.7191928 2.07818733 -8.48150533e-24)
(23.7242382 1.99979649 -1.10567251e-23)
(23.7340087 1.97244434 -7.9770143e-24)
(23.7344218 1.88764325 -1.13349386e-23)
(23.7416477 1.85540253 7.65810872e-24)
(23.7738507 1.78955109 1.13823793e-23)
(23.834216 1.72875063 -9.4604943e-25)
(23.8305596 1.69134126 7.2753267e-25)
(-0.0496697516 0.0240490561 1.4833322e-27)
(-0.142368964 0.0686143905 -5.58717832e-27)
(-0.230357521 0.110608726 -1.54212892e-27)
(-0.314053412 0.15031364 -1.58671431e-33)
(-0.393644182 0.187940009 3.15283773e-27)
(-0.469146157 0.223618735 -1.80451282e-27)
(-0.540439868 0.257436249 1.04125778e-26)
(-0.607299678 0.289423724 3.03530204e-33)
(-0.669388844 0.319601577 -3.4497789e-26)
(-0.726279665 0.347962299 -2.40657701e-26)
(-0.777467141 0.374463618 4.68983316e-27)
(-0.822341744 0.399098434 -3.92689627e-26)
(-0.860261022 0.421820018 -3.55006915e-26)
(-0.890511457 0.442603866 -4.74651576e-26)
(-0.912323536 0.461435601 -5.47360955e-26)
(-0.924873477 0.478315523 6.2629251e-26)
(-0.927268884 0.493269103 7.08264082e-26)
(-0.918574548 0.506314809 -6.58958313e-27)
(-0.897726945 0.517546444 0)
(-0.863603317 0.527019042 -9.10613584e-26)
(-0.814964308 0.534849119 -1.08499726e-25)
(-0.750449107 0.541169222 -1.60816446e-26)
(-0.668525519 0.546139728 1.30165195e-25)
(-0.567556785 0.549958271 1.57617707e-25)
(-0.44580465 0.552818474 -3.66255711e-26)
(-0.301494572 0.554786443 0)
(-0.13217104 0.556149785 2.02315916e-26)
(0.0651647077 0.558210876 2.48098274e-28)
(0.285875305 0.561394248 -3.89396978e-25)
(0.546023818 0.564637363 -3.95371862e-25)
(0.842493762 0.568051749 4.71026638e-25)
(1.1786833 0.573431557 4.30931033e-25)
(1.55836656 0.581433698 -1.03774453e-25)
(1.98479184 0.592362413 -4.96575058e-25)
(2.46168615 0.606869333 -4.00035483e-32)
(2.99286334 0.625659572 6.29043441e-25)
(3.58188183 0.649493299 -7.36730953e-25)
(4.23199476 0.67915749 -7.28754506e-25)
(4.94589991 0.715462304 -1.27155402e-25)
(5.72539101 0.759246781 6.50564835e-26)
(6.57123251 0.811294169 6.44700941e-26)
(7.48287629 0.872285129 -1.04783186e-24)
(8.45817933 0.942756521 -2.28798906e-24)
(9.49312665 1.02304997 -1.33162146e-24)
(10.581579 1.11324728 -1.63877186e-24)
(11.7150855 1.2130998 -1.74322846e-24)
(12.8828348 1.32194844 0)
(14.0719027 1.43868298 2.21168773e-24)
(15.2676675 1.56152534 2.50833234e-24)
(16.4544855 1.68769534 2.65002851e-24)
(17.6119319 1.81474668 5.65048651e-24)
(18.7189792 1.94004724 6.0025978e-24)
(19.7537367 2.06047173 6.35334844e-24)
(20.6961009 2.1732883 6.71931217e-24)
(21.527086 2.27490978 3.62432906e-24)
(22.2391998 2.36435571 -5.71597407e-26)
(22.8216908 2.43553811 0)
(23.2751354 2.48541602 -4.16686382e-24)
(23.6058781 2.51251489 -4.93541924e-24)
(23.7987165 2.53856217 0)
(23.8101 2.55319217 -4.43488321e-24)
(23.8334275 2.53379907 -2.88706503e-24)
(23.8332078 2.50144428 0)
(23.8341928 2.49356489 -8.5533664e-26)
(23.8110875 2.47455547 0)
(23.7860265 2.46624585 -1.00093487e-23)
(23.7630855 2.45518406 -3.87325974e-25)
(23.7530792 2.42885702 8.68629066e-24)
(23.749103 2.3858513 -3.3240346e-25)
(23.7405152 2.33408172 -5.11714771e-25)
(23.720231 2.31485003 -1.09832472e-23)
(23.6932664 2.30333255 -8.53957623e-24)
(23.6849131 2.25222538 -4.51989943e-25)
(23.695016 2.23823836 -2.63538193e-25)
(23.7112846 2.19829657 -5.37960027e-26)
(23.7260549 2.16032447 -3.7393685e-25)
(23.7475202 2.10047949 1.21211074e-23)
(23.7962194 2.04108353 2.34146373e-23)
(23.8832575 1.97016785 1.07228022e-23)
(23.9050536 1.8986835 -9.60505467e-25)
(-0.052518683 0.0229373096 0)
(-0.149551459 0.0651342711 -1.66991346e-27)
(-0.240551176 0.104595024 1.7603472e-27)
(-0.32590302 0.141604787 -6.3873262e-27)
(-0.405743571 0.176373741 1.95679263e-27)
(-0.480012368 0.209042989 2.06187625e-27)
(-0.548498507 0.239694649 -1.6121649e-26)
(-0.610845724 0.268392747 0)
(-0.666596945 0.295163648 4.80614393e-27)
(-0.71518446 0.320023054 -3.17518607e-26)
(-0.75594182 0.342975964 -3.26567183e-26)
(-0.788114462 0.364024297 4.46991027e-26)
(-0.810867 0.383174084 5.90723764e-27)
(-0.823286347 0.400441997 -1.13640365e-25)
(-0.824375365 0.415869777 -1.36350086e-25)
(-0.813094358 0.42948429 -6.98224426e-26)
(-0.7882431 0.441400761 -7.1959166e-27)
(-0.748580224 0.451685735 -9.62230835e-26)
(-0.692738491 0.460481348 -9.8832099e-26)
(-0.619224158 0.467949975 8.24401732e-27)
(-0.526414623 0.474279155 -8.70641373e-27)
(-0.412600856 0.47957276 -3.6314026e-26)
(-0.27570657 0.484056908 -1.55114642e-25)
(-0.114611353 0.48829112 -3.59365564e-25)
(0.0747512293 0.493257727 -1.84029326e-25)
(0.288131889 0.498883939 -2.16351928e-26)
(0.540264297 0.504683215 -1.4586369e-25)
(0.827406946 0.511140172 2.37995465e-26)
(1.15300502 0.519800586 -2.48661287e-26)
(1.52063791 0.531192369 -2.25246281e-25)
(1.93346689 0.545655012 0)
(2.39493837 0.563873216 -6.01138782e-25)
(2.90855095 0.586585994 -5.86796101e-26)
(3.47761252 0.614578263 7.19857705e-25)
(4.10517436 0.648655059 7.73650398e-25)
(4.7938428 0.689630132 8.30583399e-25)
(5.54544565 0.738339894 -6.63223225e-26)
(6.36092562 0.795569595 0)
(7.2400831 0.862009795 -1.37495093e-25)
(8.18131261 0.938217118 -1.10929318e-24)