/*--------------------------------*- C++ -*----------------------------------*\
  =========                 |
  \\      /  F ield         | OpenFOAM: The Open Source CFD Toolbox
   \\    /   O peration     | Website:  https://openfoam.org
    \\  /    A nd           | Version:  8
     \\/     M anipulation  |
\*---------------------------------------------------------------------------*/
FoamFile
{
    version     2.0;
    format      ascii;
    class       volScalarField;
    location    "0.045";
    object      p;
}
// * * * * * * * * * * * * * * * * * * * * * * * * * * * * * * * * * * * * * //

dimensions      [1 -1 -2 0 0 0 0];

internalField   nonuniform List<scalar> 
42400
(
101484.033
101484.02
101484.006
101483.994
101483.982
101483.972
101483.962
101483.953
101483.946
101483.939
101483.934
101483.929
101483.926
101483.924
101483.923
101483.923
101483.925
101483.927
101483.93
101483.935
101483.941
101483.947
101483.955
101483.963
101483.972
101483.982
101483.993
101484.005
101484.017
101484.03
101484.043
101484.057
101484.072
101484.087
101484.102
101484.118
101484.133
101484.149
101484.174
101484.211
101484.253
101484.277
101484.279
101484.279
101484.28
101484.295
101484.327
101484.362
101484.401
101484.442
101484.484
101484.525
101484.588
101484.67
101484.772
101484.859
101484.926
101485.031
101485.171
101485.334
101485.508
101485.705
101485.931
101486.198
101486.501
101486.838
101487.227
101487.624
101488.158
101488.929
101489.161
101489.615
101491.521
101491.417
101490.216
101490.894
101494.611
101500.453
101499.997
101502.15
101483.082
101483.072
101483.06
101483.05
101483.041
101483.033
101483.025
101483.018
101483.012
101483.008
101483.004
101483.001
101482.999
101482.998
101482.998
101482.999
101483.001
101483.004
101483.008
101483.012
101483.018
101483.025
101483.032
101483.04
101483.049
101483.059
101483.069
101483.079
101483.09
101483.102
101483.114
101483.126
101483.137
101483.149
101483.166
101483.19
101483.218
101483.247
101483.261
101483.257
101483.251
101483.258
101483.277
101483.298
101483.32
101483.344
101483.367
101483.385
101483.42
101483.475
101483.545
101483.593
101483.617
101483.668
101483.75
101483.852
101483.958
101484.078
101484.218
101484.386
101484.586
101484.817
101485.073
101485.361
101485.682
101486.035
101486.463
101486.939
101487.464
101488.458
101489.323
101490.032
101491.631
101492.692
101492.737
101496.278
101501.042
101501.947
101503.31
101505.329
101482.016
101482.008
101481.999
101481.992
101481.985
101481.979
101481.973
101481.969
101481.965
101481.962
101481.96
101481.959
101481.959
101481.96
101481.962
101481.965
101481.969
101481.974
101481.98
101481.987
101481.994
101482.003
101482.013
101482.023
101482.035
101482.047
101482.059
101482.073
101482.086
101482.1
101482.117
101482.137
101482.159
101482.184
101482.206
101482.218
101482.222
101482.225
101482.237
101482.258
101482.28
101482.303
101482.326
101482.348
101482.364
101482.397
101482.457
101482.502
101482.511
101482.531
101482.581
101482.65
101482.719
101482.793
101482.88
101482.986
101483.114
101483.266
101483.443
101483.647
101483.881
101484.154
101484.468
101484.833
101485.237
101485.676
101486.148
101486.753
101487.265
101488.075
101488.732
101489.185
101491.785
101495.972
101497.634
101497.25
101497.799
101501.34
101504.072
101504.154
101480.869
101480.862
101480.856
101480.85
101480.845
101480.84
101480.837
101480.834
101480.832
101480.832
101480.832
101480.833
101480.835
101480.838
101480.843
101480.848
101480.855
101480.863
101480.872
101480.883
101480.894
101480.907
101480.921
101480.936
101480.952
101480.969
101480.986
101481.006
101481.028
101481.052
101481.076
101481.096
101481.114
101481.13
101481.146
101481.168
101481.197
101481.226
101481.255
101481.284
101481.312
101481.334
101481.37
101481.43
101481.468
101481.479
101481.509
101481.559
101481.613
101481.664
101481.721
101481.789
101481.87
101481.965
101482.075
101482.206
101482.362
101482.55
101482.774
101483.042
101483.358
101483.73
101484.156
101484.67
101485.246
101485.898
101486.577
101487.451
101488.237
101489.178
101492.29
101495.489
101495.851
101495.018
101496.183
101498.929
101500.569
101502.088
101504.118
101505.956
101479.637
101479.632
101479.626
101479.622
101479.618
101479.615
101479.612
101479.611
101479.611
101479.612
101479.614
101479.618
101479.623
101479.629
101479.636
101479.645
101479.656
101479.668
101479.681
101479.697
101479.713
101479.731
101479.749
101479.769
101479.791
101479.816
101479.842
101479.868
101479.895
101479.923
101479.951
101479.982
101480.017
101480.053
101480.09
101480.126
101480.164
101480.201
101480.232
101480.275
101480.339
101480.382
101480.401
101480.439
101480.493
101480.544
101480.594
101480.648
101480.709
101480.777
101480.852
101480.938
101481.037
101481.155
101481.299
101481.472
101481.681
101481.934
101482.239
101482.606
101483.047
101483.575
101484.198
101484.942
101485.808
101486.753
101487.843
101489.225
101491.674
101493.211
101493.673
101494.52
101495.647
101496.989
101498.784
101500.521
101502.089
101503.841
101505.727
101507.214
101478.319
101478.313
101478.308
101478.303
101478.3
101478.298
101478.297
101478.297
101478.298
101478.301
101478.305
101478.311
101478.319
101478.328
101478.339
101478.352
101478.367
101478.382
101478.399
101478.418
101478.44
101478.465
101478.493
101478.523
101478.555
101478.588
101478.624
101478.661
101478.7
101478.741
101478.783
101478.826
101478.87
101478.916
101478.962
101479.004
101479.055
101479.127
101479.179
101479.21
101479.26
101479.323
101479.381
101479.439
101479.499
101479.563
101479.63
101479.702
101479.781
101479.87
101479.973
101480.092
101480.234
101480.402
101480.602
101480.839
101481.12
101481.449
101481.849
101482.327
101482.922
101483.609
101484.478
101485.37
101486.151
101487.281
101489.313
101490.682
101491.351
101492.654
101494.036
101495.379
101496.959
101498.361
101499.72
101501.134
101502.811
101504.329
101505.687
101507.174
101476.877
101476.872
101476.866
101476.862
101476.86
101476.858
101476.858
101476.86
101476.863
101476.867
101476.874
101476.883
101476.894
101476.907
101476.921
101476.938
101476.957
101476.98
101477.007
101477.036
101477.066
101477.099
101477.134
101477.172
101477.212
101477.254
101477.299
101477.346
101477.395
101477.447
101477.501
101477.553
101477.603
101477.663
101477.741
101477.803
101477.848
101477.909
101477.982
101478.051
101478.119
101478.19
101478.262
101478.338
101478.418
101478.504
101478.598
101478.702
101478.819
101478.954
101479.111
101479.295
101479.51
101479.76
101480.049
101480.375
101480.753
101481.178
101481.672
101482.187
101482.822
101483.324
101484.241
101486.225
101488.298
101489.627
101490.184
101491.195
101492.817
101494.137
101495.399
101496.712
101497.972
101499.2
101500.656
101502.692
101504.375
101505.49
101506.759
101508.015
101475.285
101475.279
101475.274
101475.271
101475.269
101475.269
101475.271
101475.275
101475.28
101475.288
101475.297
101475.309
101475.323
101475.341
101475.361
101475.385
101475.41
101475.438
101475.47
101475.504
101475.541
101475.581
101475.625
101475.671
101475.72
101475.773
101475.828
101475.885
101475.941
101476.002
101476.079
101476.162
101476.221
101476.274
101476.347
101476.428
101476.507
101476.585
101476.667
101476.751
101476.838
101476.929
101477.025
101477.129
101477.241
101477.364
101477.503
101477.661
101477.843
101478.056
101478.303
101478.59
101478.922
101479.305
101479.745
101480.244
101480.813
101481.454
101482.161
101482.903
101484.018
101486.192
101487.846
101488.457
101488.998
101489.867
101491.041
101492.262
101493.424
101495.331
101496.775
101497.857
101499.674
101501.696
101502.989
101503.637
101504.607
101506.374
101508.251
101509.915
101473.489
101473.484
101473.481
101473.479
101473.479
101473.481
101473.485
101473.492
101473.501
101473.513
101473.528
101473.546
101473.565
101473.588
101473.613
101473.642
101473.674
101473.71
101473.749
101473.791
101473.836
101473.885
101473.937
101473.993
101474.051
101474.109
101474.176
101474.254
101474.328
101474.392
101474.465
101474.548
101474.635
101474.719
101474.806
101474.895
101474.988
101475.084
101475.184
101475.29
101475.402
101475.522
101475.653
101475.797
101475.958
101476.14
101476.35
101476.592
101476.874
101477.2
101477.577
101478.011
101478.507
101479.085
101479.749
101480.496
101481.332
101482.318
101483.214
101484.414
101485.929
101486.775
101487.406
101488.461
101489.805
101490.937
101492.185
101493.784
101495.109
101496.287
101497.908
101499.471
101500.388
101501.435
101502.98
101504.328
101505.822
101507.514
101509.182
101511.257
101471.464
101471.462
101471.46
101471.461
101471.465
101471.471
101471.479
101471.49
101471.504
101471.52
101471.54
101471.563
101471.589
101471.618
101471.651
101471.687
101471.727
101471.77
101471.818
101471.869
101471.924
101471.982
101472.041
101472.108
101472.185
101472.258
101472.325
101472.403
101472.49
101472.577
101472.667
101472.76
101472.856
101472.955
101473.058
101473.166
101473.279
101473.398
101473.525
101473.661
101473.809
101473.972
101474.154
101474.358
101474.591
101474.857
101475.163
101475.516
101475.919
101476.376
101476.896
101477.492
101478.156
101478.914
101479.815
101480.712
101481.675
101482.623
101483.717
101485.176
101486.137
101486.889
101487.95
101489.038
101490.2
101491.333
101492.538
101493.78
101495.17
101496.816
101498.314
101499.817
101501.278
101502.724
101504.505
101506.346
101508.059
101509.829
101511.765
101513.603
101469.164
101469.165
101469.168
101469.173
101469.181
101469.192
101469.205
101469.222
101469.241
101469.265
101469.291
101469.321
101469.355
101469.393
101469.434
101469.479
101469.529
101469.582
101469.639
101469.699
101469.765
101469.841
101469.914
101469.984
101470.065
101470.152
101470.242
101470.334
101470.43
101470.53
101470.634
101470.743
101470.856
101470.975
101471.1
101471.233
101471.375
101471.528
101471.696
101471.881
101472.086
101472.316
101472.576
101472.87
101473.204
101473.583
101474.008
101474.481
101475.003
101475.569
101476.178
101476.845
101477.517
101478.143
101479.206
101480.862
101482.354
101483.541
101484.824
101485.444
101486.128
101487.327
101488.237
101489.213
101490.598
101491.92
101493.123
101494.445
101496.046
101498.097
101500.157
101501.781
101503.231
101504.814
101506.306
101507.951
101509.596
101511.212
101512.931
101514.413
101466.555
101466.561
101466.569
101466.58
101466.594
101466.611
101466.631
101466.655
101466.683
101466.714
101466.749
101466.788
101466.831
101466.878
101466.93
101466.986
101467.045
101467.11
101467.183
101467.256
101467.329
101467.41
101467.498
101467.588
101467.682
101467.78
101467.883
101467.99
101468.102
101468.219
101468.341
101468.471
101468.607
101468.754
101468.911
101469.082
101469.27
101469.478
101469.71
101469.972
101470.267
101470.602
101470.983
101471.416
101471.907
101472.461
101473.086
101473.788
101474.575
101475.454
101476.418
101477.484
101478.654
101479.997
101480.894
101481.345
101481.958
101483.028
101484.022
101485.037
101486.554
101488.043
101489.558
101491.132
101492.552
101493.968
101495.552
101497.275
101498.777
101499.778
101500.77
101502.096
101503.814
101505.422
101507.155
101508.914
101510.761
101512.561
101514.146
101516.003
101463.591
101463.603
101463.619
101463.637
101463.659
101463.684
101463.713
101463.746
101463.783
101463.824
101463.87
101463.919
101463.973
101464.031
101464.095
101464.166
101464.238
101464.312
101464.393
101464.481
101464.572
101464.666
101464.766
101464.87
101464.978
101465.091
101465.21
101465.334
101465.465
101465.603
101465.75
101465.907
101466.077
101466.262
101466.465
101466.69
101466.941
101467.224
101467.542
101467.902
101468.308
101468.768
101469.285
101469.866
101470.511
101471.224
101472.004
101472.851
101473.769
101474.77
101475.817
101476.897
101478.056
101479.169
101480.589
101482.155
101483.271
101484.155
101485.168
101486.461
101488.102
101489.958
101491.309
101492.49
101493.659
101494.666
101495.786
101497.001
101498.065
101499.599
101501.564
101503.438
101505.167
101506.721
101508.523
101510.822
101513.131
101515.188
101517.351
101518.805
101460.238
101460.258
101460.283
101460.311
101460.342
101460.377
101460.417
101460.46
101460.508
101460.56
101460.618
101460.681
101460.748
101460.817
101460.893
101460.974
101461.061
101461.151
101461.246
101461.346
101461.45
101461.56
101461.674
101461.793
101461.918
101462.049
101462.187
101462.334
101462.489
101462.656
101462.836
101463.033
101463.249
101463.489
101463.756
101464.055
101464.39
101464.769
101465.194
101465.672
101466.208
101466.806
101467.47
101468.201
101468.994
101469.842
101470.768
101471.686
101472.537
101473.706
101475.278
101476.731
101478.127
101479.703
101480.897
101481.863
101483.335
101484.339
101485.092
101486.257
101487.831
101489.666
101490.998
101491.926
101493.108
101494.692
101496.173
101497.789
101499.792
101501.963
101503.981
101506.038
101508.482
101511.461
101513.635
101514.731
101515.795
101517.104
101518.764
101520.383
101456.456
101456.486
101456.522
101456.562
101456.605
101456.652
101456.704
101456.76
101456.822
101456.888
101456.958
101457.033
101457.114
101457.2
101457.291
101457.386
101457.487
101457.593
101457.703
101457.82
101457.941
101458.069
101458.203
101458.344
101458.493
101458.652
101458.822
101459.005
101459.203
101459.421
101459.66
101459.926
101460.222
101460.554
101460.925
101461.342
101461.81
101462.332
101462.914
101463.557
101464.265
101465.037
101465.875
101466.771
101467.699
101468.67
101470.006
101471.975
101474.096
101475.473
101476.513
101477.619
101478.51
101479.363
101480.349
101481.51
101482.572
101483.888
101486.097
101488.094
101489.058
101489.741
101491.326
101493.963
101495.897
101497.237
101498.837
101500.507
101502.136
101503.967
101506.053
101507.656
101509.104
101511.134
101513.207
101515.421
101517.583
101519.569
101521.943
101524.093
101452.228
101452.27
101452.32
101452.373
101452.43
101452.491
101452.557
101452.627
101452.703
101452.784
101452.87
101452.961
101453.057
101453.159
101453.266
101453.378
101453.496
101453.62
101453.75
101453.887
101454.031
101454.184
101454.346
101454.519
101454.705
101454.906
101455.125
101455.366
101455.632
101455.928
101456.258
101456.628
101457.044
101457.51
101458.033
101458.618
101459.271
101459.996
101460.798
101461.679
101462.643
101463.691
101464.828
101466.058
101467.307
101468.724
101470.226
101471.276
101472.088
101473.249
101474.501
101475.881
101477.422
101479.055
101480.658
101482.009
101483.244
101484.621
101485.999
101487.569
101489.748
101492.013
101493.784
101495.22
101496.875
101499
101500.737
101502.058
101503.352
101504.77
101506.216
101508.219
101510.962
101512.644
101514.337
101516.539
101518.724
101521.312
101523.021
101524.102
101447.542
101447.598
101447.664
101447.732
101447.803
101447.88
101447.961
101448.047
101448.139
101448.235
101448.337
101448.444
101448.557
101448.676
101448.801
101448.931
101449.069
101449.214
101449.367
101449.53
101449.703
101449.888
101450.087
101450.304
101450.54
101450.8
101451.087
101451.406
101451.762
101452.16
101452.604
101453.102
101453.657
101454.274
101454.958
101455.712
101456.537
101457.435
101458.404
101459.441
101460.54
101461.691
101462.89
101464.127
101465.455
101466.762
101468.27
101469.741
101471.077
101472.486
101473.915
101475.392
101476.913
101478.449
101479.961
101481.57
101483.448
101485.555
101487.662
101489.367
101490.718
101492.281
101494.099
101495.845
101497.424
101498.814
101500.582
101502.951
101504.971
101506.872
101508.797
101510.19
101511.541
101513.975
101515.814
101517.226
101519.941
101521.638
101523.414
101525.25
101442.422
101442.492
101442.575
101442.659
101442.747
101442.839
101442.937
101443.039
101443.147
101443.259
101443.378
101443.502
101443.633
101443.77
101443.915
101444.067
101444.228
101444.399
101444.582
101444.779
101444.991
101445.221
101445.473
101445.75
101446.057
101446.397
101446.776
101447.199
101447.671
101448.197
101448.781
101449.429
101450.144
101450.929
101451.786
101452.715
101453.717
101454.791
101455.938
101457.157
101458.448
101459.793
101461.198
101462.628
101464.293
101466.21
101467.912
101469.503
101471.059
101472.541
101473.958
101475.37
101477.286
101479.605
101481.797
101483.216
101484.853
101486.696
101487.95
101489.124
101490.615
101492.662
101494.627
101496.144
101497.959
101500.143
101502.222
101504.078
101506.077
101508.142
101510.347
101512.82
101515.369
101516.517
101517.735
101519.529
101520.705
101523.269
101525.485
101526.76
101436.931
101437.018
101437.119
101437.22
101437.325
101437.434
101437.549
101437.668
101437.794
101437.926
101438.064
101438.209
101438.362
101438.525
101438.697
101438.881
101439.078
101439.291
101439.522
101439.774
101440.051
101440.358
101440.697
101441.075
101441.497
101441.969
101442.495
101443.082
101443.735
101444.457
101445.254
101446.127
101447.077
101448.104
101449.203
101450.369
101451.593
101452.852
101454.153
101455.455
101457.062
101459.138
101461.139
101463.182
101465.272
101466.512
101467.357
101469.016
101471.422
101473.756
101475.723
101477.374
101478.932
101480.202
101481.358
101483.476
101484.667
101485.64
101488.031
101489.944
101492.288
101493.884
101495.306
101497.931
101500.264
101502.187
101504.129
101506.394
101508.772
101510.947
101513.138
101515.511
101517.518
101518.515
101520.066
101522.979
101524.985
101526.134
101527.553
101530.45
101431.157
101431.259
101431.378
101431.496
101431.618
101431.744
101431.876
101432.014
101432.159
101432.311
101432.472
101432.642
101432.824
101433.018
101433.228
101433.455
101433.703
101433.974
101434.274
101434.606
101434.976
101435.389
101435.85
101436.366
101436.942
101437.585
101438.301
101439.093
101439.967
101440.926
101441.971
101443.105
101444.326
101445.634
101447.027
101448.495
101450.017
101451.689
101453.807
101456.575
101459.168
101460.746
101461.973
101463.136
101464.233
101466.147
101468.303
101469.947
101471.771
101473.326
101475.124
101477.812
101480.297
101481.963
101483.069
101483.998
101486.082
101488.699
101490.627
101492.509
101494.412
101496.995
101498.936
101500.387
101502.126
101503.958
101505.783
101507.502
101509.241
101511.626
101514.672
101517.179
101518.8
101520.531
101522.905
101525.152
101527.631
101529.609
101531.507
101534.162
101468.661
101468.666
101468.673
101468.681
101468.69
101468.701
101468.713
101468.726
101468.741
101468.756
101468.774
101468.792
101468.812
101468.834
101468.856
101468.881
101468.907
101468.935
101468.964
101468.995
101469.028
101469.063
101469.099
101469.138
101469.178
101469.221
101469.265
101469.312
101469.361
101469.412
101469.466
101469.522
101469.58
101469.641
101469.705
101469.771
101469.84
101469.912
101469.986
101470.064
101470.144
101470.228
101470.314
101470.404
101470.497
101470.594
101470.694
101470.798
101470.903
101471.011
101471.122
101471.238
101471.357
101471.476
101471.595
101471.716
101471.838
101471.965
101472.096
101472.23
101472.362
101472.49
101472.61
101472.718
101472.805
101472.866
101472.89
101472.87
101472.771
101472.558
101472.235
101471.782
101471.227
101470.601
101469.866
101469.078
101467.895
101466.607
101465.812
101464.682
101470.787
101470.793
101470.8
101470.809
101470.818
101470.829
101470.841
101470.854
101470.868
101470.884
101470.9
101470.919
101470.938
101470.959
101470.981
101471.004
101471.029
101471.055
101471.083
101471.113
101471.144
101471.176
101471.21
101471.246
101471.284
101471.323
101471.365
101471.408
101471.453
101471.499
101471.548
101471.599
101471.652
101471.706
101471.763
101471.822
101471.882
101471.945
101472.01
101472.078
101472.147
101472.218
101472.292
101472.367
101472.445
101472.525
101472.606
101472.69
101472.775
101472.863
101472.952
101473.042
101473.132
101473.221
101473.311
101473.401
101473.495
101473.592
101473.688
101473.776
101473.858
101473.933
101473.999
101474.05
101474.079
101474.077
101474.028
101473.923
101473.803
101473.686
101473.58
101473.401
101472.882
101472.131
101471.217
101470.127
101468.852
101467.016
101465.24
101463.756
101472.764
101472.77
101472.778
101472.786
101472.796
101472.807
101472.818
101472.831
101472.845
101472.86
101472.877
101472.894
101472.913
101472.933
101472.954
101472.976
101473
101473.025
101473.052
101473.08
101473.109
101473.14
101473.172
101473.205
101473.241
101473.277
101473.316
101473.355
101473.397
101473.44
101473.485
101473.531
101473.579
101473.628
101473.679
101473.732
101473.786
101473.842
101473.9
101473.959
101474.02
101474.082
101474.145
101474.21
101474.277
101474.345
101474.414
101474.484
101474.556
101474.628
101474.702
101474.776
101474.851
101474.927
101475.003
101475.079
101475.156
101475.228
101475.295
101475.354
101475.408
101475.455
101475.492
101475.516
101475.521
101475.5
101475.443
101475.321
101475.111
101474.789
101474.297
101473.867
101473.521
101473.025
101472.26
101471.306
101470.24
101468.89
101466.884
101464.353
101474.604
101474.61
101474.617
101474.626
101474.635
101474.646
101474.657
101474.67
101474.684
101474.698
101474.714
101474.731
101474.749
101474.768
101474.789
101474.81
101474.833
101474.857
101474.882
101474.909
101474.937
101474.966
101474.996
101475.028
101475.061
101475.096
101475.132
101475.169
101475.208
101475.248
101475.29
101475.333
101475.377
101475.423
101475.471
101475.519
101475.569
101475.621
101475.673
101475.727
101475.783
101475.839
101475.897
101475.956
101476.016
101476.077
101476.139
101476.202
101476.266
101476.331
101476.397
101476.463
101476.53
101476.597
101476.664
101476.731
101476.798
101476.863
101476.925
101476.985
101477.04
101477.09
101477.132
101477.163
101477.177
101477.17
101477.134
101477.058
101476.908
101476.647
101476.269
101475.654
101474.82
101474
101473.196
101472.159
101471.018
101469.933
101468.882
101467.476
101476.311
101476.317
101476.324
101476.332
101476.342
101476.352
101476.363
101476.376
101476.389
101476.403
101476.419
101476.435
101476.453
101476.471
101476.491
101476.512
101476.534
101476.557
101476.582
101476.608
101476.635
101476.663
101476.692
101476.723
101476.755
101476.788
101476.823
101476.859
101476.897
101476.936
101476.976
101477.017
101477.06
101477.104
101477.15
101477.197
101477.245
101477.295
101477.346
101477.398
101477.452
101477.507
101477.564
101477.621
101477.681
101477.741
101477.803
101477.867
101477.932
101477.998
101478.066
101478.136
101478.208
101478.281
101478.356
101478.432
101478.51
101478.589
101478.668
101478.746
101478.822
101478.894
101478.96
101479.016
101479.057
101479.078
101479.068
101479.018
101478.912
101478.74
101478.481
101478.125
101477.582
101476.775
101475.838
101474.821
101473.494
101471.762
101469.791
101468.373
101477.892
101477.898
101477.905
101477.913
101477.922
101477.932
101477.943
101477.955
101477.968
101477.982
101477.997
101478.013
101478.031
101478.049
101478.068
101478.089
101478.11
101478.133
101478.157
101478.182
101478.209
101478.237
101478.266
101478.296
101478.328
101478.361
101478.395
101478.431
101478.468
101478.506
101478.546
101478.588
101478.631
101478.675
101478.721
101478.768
101478.817
101478.867
101478.919
101478.973
101479.028
101479.086
101479.145
101479.205
101479.268
101479.333
101479.4
101479.47
101479.542
101479.617
101479.695
101479.776
101479.86
101479.948
101480.04
101480.136
101480.236
101480.339
101480.446
101480.556
101480.667
101480.777
101480.885
101480.987
101481.078
101481.151
101481.199
101481.216
101481.189
101481.105
101480.948
101480.698
101480.341
101479.863
101479.17
101478.283
101477.203
101475.826
101474.186
101472.357
101479.346
101479.351
101479.358
101479.365
101479.374
101479.383
101479.394
101479.406
101479.418
101479.432
101479.447
101479.463
101479.48
101479.498
101479.517
101479.537
101479.559
101479.581
101479.605
101479.63
101479.657
101479.685
101479.714
101479.744
101479.776
101479.809
101479.844
101479.88
101479.918
101479.957
101479.998
101480.04
101480.084
101480.13
101480.177
101480.226
101480.277
101480.33
101480.385
101480.443
101480.502
101480.564
101480.628
101480.695
101480.765
101480.838
101480.914
101480.994
101481.077
101481.165
101481.258
101481.355
101481.458
101481.566
101481.681
101481.803
101481.931
101482.067
101482.21
101482.36
101482.516
101482.677
101482.84
101483.003
101483.161
101483.31
101483.444
101483.553
101483.626
101483.65
101483.61
101483.488
101483.263
101482.911
101482.408
101481.731
101480.857
101479.794
101478.433
101476.84
101480.673
101480.678
101480.684
101480.691
101480.699
101480.708
101480.718
101480.729
101480.742
101480.755
101480.769
101480.785
101480.802
101480.819
101480.838
101480.858
101480.88
101480.902
101480.926
101480.952
101480.978
101481.006
101481.036
101481.066
101481.099
101481.133
101481.168
101481.205
101481.244
101481.284
101481.326
101481.37
101481.415
101481.463
101481.513
101481.565
101481.62
101481.676
101481.734
101481.797
101481.861
101481.929
101482
101482.075
101482.153
101482.236
101482.323
101482.415
101482.512
101482.616
101482.725
101482.842
101482.966
101483.098
101483.24
101483.39
101483.551
101483.723
101483.905
101484.099
101484.305
101484.521
101484.746
101484.978
101485.213
101485.447
101485.673
101485.883
101486.07
101486.219
101486.319
101486.351
101486.297
101486.134
101485.839
101485.392
101484.777
101483.98
101482.971
101481.772
101481.869
101481.872
101481.878
101481.884
101481.891
101481.899
101481.909
101481.919
101481.931
101481.944
101481.958
101481.973
101481.989
101482.007
101482.025
101482.045
101482.066
101482.089
101482.113
101482.138
101482.165
101482.193
101482.222
101482.254
101482.286
101482.321
101482.357
101482.395
101482.435
101482.476
101482.52
101482.565
101482.613
101482.663
101482.715
101482.77
101482.826
101482.887
101482.95
101483.017
101483.087
101483.161
101483.24
101483.322
101483.41
101483.503
101483.601
101483.706
101483.818
101483.937
101484.065
101484.201
101484.348
101484.505
101484.673
101484.854
101485.048
101485.256
101485.479
101485.718
101485.973
101486.244
101486.53
101486.83
101487.141
101487.459
101487.779
101488.094
101488.396
101488.674
101488.916
101489.106
101489.228
101489.259
101489.175
101488.961
101488.603
101488.073
101487.361
101486.392
101482.929
101482.932
101482.936
101482.941
101482.947
101482.955
101482.963
101482.973
101482.983
101482.995
101483.008
101483.023
101483.038
101483.055
101483.073
101483.093
101483.113
101483.135
101483.159
101483.184
101483.21
101483.238
101483.268
101483.299
101483.332
101483.367
101483.403
101483.441
101483.481
101483.524
101483.568
101483.615
101483.663
101483.715
101483.769
101483.826
101483.887
101483.951
101484.019
101484.09
101484.166
101484.246
101484.331
101484.421
101484.517
101484.619
101484.728
101484.845
101484.971
101485.105
101485.249
101485.405
101485.572
101485.752
101485.947
101486.156
101486.382
101486.625
101486.887
101487.168
101487.469
101487.792
101488.135
101488.499
101488.88
101489.278
101489.687
101490.102
101490.516
101490.919
101491.299
101491.643
101491.934
101492.153
101492.276
101492.284
101492.164
101491.896
101491.455
101490.736
101483.852
101483.853
101483.856
101483.86
101483.864
101483.87
101483.877
101483.886
101483.895
101483.906
101483.918
101483.931
101483.945
101483.961
101483.978
101483.996
101484.015
101484.036
101484.059
101484.083
101484.108
101484.135
101484.163
101484.193
101484.225
101484.26
101484.296
101484.334
101484.375
101484.418
101484.464
101484.512
101484.562
101484.616
101484.673
101484.733
101484.794
101484.859
101484.928
101485.002
101485.081
101485.165
101485.256
101485.352
101485.455
101485.565
101485.684
101485.811
101485.948
101486.095
101486.253
101486.424
101486.609
101486.81
101487.026
101487.261
101487.515
101487.79
101488.086
101488.406
101488.75
101489.118
101489.512
101489.932
101490.377
101490.845
101491.333
101491.838
101492.353
101492.87
101493.38
101493.869
101494.323
101494.724
101495.05
101495.278
101495.393
101495.387
101495.239
101494.872
101484.629
101484.629
101484.629
101484.631
101484.634
101484.638
101484.644
101484.65
101484.658
101484.667
101484.677
101484.688
101484.701
101484.715
101484.731
101484.747
101484.766
101484.786
101484.807
101484.83
101484.855
101484.881
101484.909
101484.939
101484.971
101485.005
101485.04
101485.077
101485.117
101485.159
101485.203
101485.25
101485.299
101485.351
101485.406
101485.466
101485.53
101485.598
101485.67
101485.747
101485.83
101485.918
101486.011
101486.111
101486.218
101486.333
101486.457
101486.589
101486.732
101486.885
101487.05
101487.234
101487.439
101487.659
101487.897
101488.153
101488.429
101488.727
101489.048
101489.397
101489.775
101490.181
101490.617
101491.083
101491.58
101492.105
101492.66
101493.239
101493.839
101494.452
101495.071
101495.685
101496.282
101496.845
101497.355
101497.789
101498.123
101498.338
101498.444
101498.364
101485.266
101485.263
101485.261
101485.261
101485.261
101485.263
101485.266
101485.27
101485.276
101485.282
101485.29
101485.3
101485.31
101485.322
101485.336
101485.35
101485.367
101485.384
101485.403
101485.424
101485.447
101485.471
101485.497
101485.524
101485.554
101485.585
101485.619
101485.655
101485.693
101485.733
101485.775
101485.819
101485.867
101485.92
101485.976
101486.034
101486.096
101486.162
101486.232
101486.308
101486.389
101486.476
101486.569
101486.67
101486.779
101486.898
101487.027
101487.17
101487.327
101487.498
101487.68
101487.869
101488.069
101488.287
101488.526
101488.784
101489.064
101489.368
101489.714
101490.104
101490.519
101490.962
101491.433
101491.933
101492.462
101493.023
101493.621
101494.251
101494.909
101495.592
101496.293
101497.001
101497.707
101498.396
101499.049
101499.645
101500.159
101500.554
101500.801
101500.835
101485.743
101485.738
101485.733
101485.729
101485.727
101485.726
101485.726
101485.728
101485.731
101485.735
101485.74
101485.747
101485.755
101485.764
101485.775
101485.787
101485.801
101485.817
101485.834
101485.852
101485.873
101485.895
101485.919
101485.945
101485.972
101486.001
101486.032
101486.065
101486.1
101486.138
101486.18
101486.225
101486.271
101486.32
101486.373
101486.428
101486.487
101486.551
101486.619
101486.691
101486.769
101486.853
101486.943
101487.04
101487.145
101487.258
101487.381
101487.514
101487.658
101487.817