/*--------------------------------*- C++ -*----------------------------------*\
  =========                 |
  \\      /  F ield         | OpenFOAM: The Open Source CFD Toolbox
   \\    /   O peration     | Website:  https://openfoam.org
    \\  /    A nd           | Version:  8
     \\/     M anipulation  |
\*---------------------------------------------------------------------------*/
FoamFile
{
    version     2.0;
    format      ascii;
    class       volScalarField;
    location    "0.045";
    object      p_rgh;
}
// * * * * * * * * * * * * * * * * * * * * * * * * * * * * * * * * * * * * * //

dimensions      [1 -1 -2 0 0 0 0];

internalField   nonuniform List<scalar> 
42400
(
101484.196
101484.183
101484.169
101484.156
101484.145
101484.134
101484.125
101484.116
101484.108
101484.102
101484.097
101484.092
101484.089
101484.087
101484.086
101484.086
101484.088
101484.09
101484.094
101484.098
101484.104
101484.11
101484.118
101484.126
101484.136
101484.146
101484.157
101484.169
101484.181
101484.194
101484.208
101484.222
101484.237
101484.253
101484.269
101484.285
101484.301
101484.317
101484.343
101484.381
101484.423
101484.448
101484.452
101484.453
101484.455
101484.472
101484.506
101484.543
101484.584
101484.627
101484.672
101484.716
101484.781
101484.866
101484.971
101485.062
101485.133
101485.243
101485.388
101485.557
101485.736
101485.94
101486.175
101486.451
101486.765
101487.117
101487.52
101487.939
101488.512
101489.245
101489.494
101490.149
101491.897
101491.607
101490.914
101491.848
101494.316
101498.842
101499.647
101502.223
101483.266
101483.255
101483.244
101483.234
101483.225
101483.216
101483.209
101483.202
101483.196
101483.191
101483.187
101483.184
101483.182
101483.181
101483.182
101483.183
101483.185
101483.188
101483.192
101483.196
101483.202
101483.209
101483.216
101483.225
101483.234
101483.243
101483.253
101483.264
101483.275
101483.287
101483.299
101483.311
101483.323
101483.335
101483.352
101483.377
101483.405
101483.435
101483.45
101483.446
101483.441
101483.448
101483.469
101483.491
101483.514
101483.539
101483.563
101483.583
101483.619
101483.676
101483.747
101483.798
101483.824
101483.878
101483.963
101484.067
101484.176
101484.299
101484.442
101484.613
101484.818
101485.053
101485.314
101485.608
101485.936
101486.303
101486.745
101487.232
101487.806
101488.791
101489.582
101490.364
101491.928
101492.858
101493.12
101496.691
101500.668
101501.644
101503.163
101505.318
101482.219
101482.211
101482.203
101482.195
101482.188
101482.182
101482.177
101482.172
101482.168
101482.165
101482.163
101482.162
101482.162
101482.163
101482.165
101482.168
101482.172
101482.177
101482.183
101482.189
101482.197
101482.206
101482.216
101482.226
101482.237
101482.25
101482.262
101482.276
101482.289
101482.303
101482.32
101482.34
101482.363
101482.388
101482.41
101482.422
101482.426
101482.43
101482.442
101482.464
101482.487
101482.51
101482.534
101482.557
101482.574
101482.608
101482.669
101482.713
101482.723
101482.747
101482.799
101482.87
101482.94
101483.016
101483.105
101483.214
101483.345
101483.499
101483.679
101483.886
101484.123
101484.398
101484.716
101485.085
101485.49
101485.937
101486.428
101487.05
101487.614
101488.491
101489.16
101489.672
101492.305
101496.087
101497.568
101497.562
101498.606
101501.949
101504.216
101504.385
101481.089
101481.083
101481.076
101481.07
101481.065
101481.061
101481.057
101481.054
101481.053
101481.052
101481.052
101481.053
101481.055
101481.058
101481.063
101481.068
101481.075
101481.083
101481.092
101481.102
101481.114
101481.127
101481.14
101481.155
101481.171
101481.188
101481.206
101481.225
101481.247
101481.272
101481.295
101481.316
101481.333
101481.349
101481.365
101481.388
101481.417
101481.446
101481.475
101481.505
101481.533
101481.556
101481.592
101481.652
101481.691
101481.703
101481.734
101481.786
101481.84
101481.893
101481.952
101482.022
101482.105
101482.202
101482.316
101482.449
101482.609
101482.801
101483.029
101483.3
101483.62
101483.995
101484.424
101484.938
101485.505
101486.148
101486.81
101487.653
101488.385
101489.383
101492.577
101495.627
101495.919
101495.406
101496.927
101499.293
101500.978
101502.561
101504.497
101506.232
101479.874
101479.869
101479.863
101479.858
101479.854
101479.851
101479.849
101479.848
101479.847
101479.848
101479.851
101479.854
101479.859
101479.865
101479.872
101479.881
101479.892
101479.904
101479.917
101479.932
101479.948
101479.966
101479.984
101480.004
101480.026
101480.05
101480.076
101480.102
101480.129
101480.157
101480.185
101480.216
101480.251
101480.287
101480.323
101480.36
101480.398
101480.434
101480.466
101480.508
101480.573
101480.616
101480.635
101480.674
101480.729
101480.78
101480.831
101480.887
101480.949
101481.018
101481.095
101481.183
101481.285
101481.406
101481.553
101481.731
101481.945
101482.204
101482.516
101482.889
101483.338
101483.875
101484.507
101485.261
101486.129
101487.09
101488.222
101489.581
101491.989
101493.549
101493.99
101494.814
101495.97
101497.364
101499.18
101500.908
101502.487
101504.236
101506.178
101507.791
101478.57
101478.565
101478.559
101478.555
101478.551
101478.549
101478.548
101478.548
101478.549
101478.552
101478.556
101478.562
101478.569
101478.578
101478.589
101478.602
101478.617
101478.632
101478.649
101478.668
101478.689
101478.714
101478.742
101478.772
101478.804
101478.837
101478.872
101478.909
101478.948
101478.988
101479.03
101479.073
101479.117
101479.163
101479.209
101479.25
101479.301
101479.372
101479.425
101479.455
101479.506
101479.568
101479.627
101479.685
101479.745
101479.81
101479.877
101479.95
101480.03
101480.121
101480.225
101480.347
101480.491
101480.664
101480.868
101481.111
101481.398
101481.737
101482.147
101482.638
101483.243
101483.946
101484.828
101485.743
101486.569
101487.688
101489.667
101491.111
101491.85
101493.08
101494.44
101495.876
101497.425
101498.83
101500.172
101501.579
101503.302
101504.964
101506.429
101507.879
101477.144
101477.138
101477.133
101477.129
101477.126
101477.125
101477.125
101477.126
101477.129
101477.133
101477.14
101477.149
101477.159
101477.172
101477.186
101477.203
101477.222
101477.245
101477.271
101477.3
101477.33
101477.362
101477.397
101477.434
101477.474
101477.516
101477.56
101477.607
101477.656
101477.708
101477.761
101477.812
101477.862
101477.923
101478.001
101478.062
101478.105
101478.167
101478.239
101478.308
101478.376
101478.446
101478.519
101478.595
101478.675
101478.761
101478.856
101478.96
101479.078
101479.214
101479.373
101479.559
101479.777
101480.03
101480.323
101480.656
101481.042
101481.478
101481.988
101482.526
101483.18
101483.712
101484.624
101486.518
101488.58
101490.006
101490.636
101491.664
101493.251
101494.512
101495.737
101497.067
101498.355
101499.605
101501.071
101503.131
101504.869
101506.018
101507.292
101508.649
101475.566
101475.56
101475.555
101475.552
101475.55
101475.55
101475.552
101475.555
101475.561
101475.568
101475.577
101475.589
101475.603
101475.62
101475.641
101475.664
101475.689
101475.717
101475.748
101475.782
101475.819
101475.859
101475.902
101475.947
101475.996
101476.048
101476.103
101476.16
101476.215
101476.276
101476.352
101476.433
101476.491
101476.546
101476.618
101476.699
101476.777
101476.855
101476.936
101477.02
101477.106
101477.197
101477.293
101477.396
101477.509
101477.633
101477.772
101477.931
101478.114
101478.328
101478.577
101478.866
101479.2
101479.584
101480.024
101480.523
101481.092
101481.727
101482.43
101483.168
101484.307
101486.487
101488.187
101488.857
101489.354
101490.165
101491.357
101492.638
101493.933
101495.821
101497.239
101498.356
101500.067
101501.964
101503.335
101504.198
101505.255
101506.891
101508.708
101510.246
101473.785
101473.781
101473.777
101473.775
101473.775
101473.777
101473.782
101473.788
101473.797
101473.809
101473.824
101473.841
101473.861
101473.883
101473.908
101473.937
101473.969
101474.004
101474.043
101474.084
101474.129
101474.178
101474.229
101474.285
101474.342
101474.4
101474.466
101474.544
101474.617
101474.68
101474.753
101474.836
101474.921
101475.005
101475.091
101475.18
101475.272
101475.368
101475.467
101475.573
101475.684
101475.804
101475.934
101476.078
101476.24
101476.423
101476.633
101476.876
101477.16
101477.487
101477.867
101478.305
101478.806
101479.39
101480.057
101480.807
101481.649
101482.627
101483.527
101484.841
101486.413
101487.228
101487.867
101488.91
101490.216
101491.431
101492.789
101494.295
101495.584
101496.811
101498.403
101499.888
101500.945
101502.139
101503.555
101504.806
101506.315
101508.021
101509.734
101511.803
101471.776
101471.774
101471.773
101471.774
101471.777
101471.783
101471.791
101471.802
101471.816
101471.832
101471.851
101471.874
101471.9
101471.929
101471.961
101471.998
101472.037
101472.08
101472.127
101472.178
101472.233
101472.29
101472.349
101472.416
101472.493
101472.565
101472.632
101472.709
101472.795
101472.882
101472.971
101473.063
101473.159
101473.257
101473.36
101473.467
101473.58
101473.698
101473.824
101473.96
101474.107
101474.27
101474.451
101474.656
101474.888
101475.155
101475.462
101475.815
101476.219
101476.678
101477.201
101477.8
101478.473
101479.251
101480.156
101481.068
101482.051
101483.003
101484.175
101485.618
101486.496
101487.244
101488.355
101489.536
101490.708
101491.823
101493.076
101494.407
101495.784
101497.38
101498.89
101500.342
101501.73
101503.168
101504.985
101506.807
101508.586
101510.44
101512.423
101514.275
101469.493
101469.494
101469.497
101469.502
101469.51
101469.521
101469.534
101469.55
101469.57
101469.593
101469.619
101469.649
101469.683
101469.721
101469.762
101469.807
101469.856
101469.909
101469.966
101470.025
101470.091
101470.166
101470.239
101470.309
101470.389
101470.477
101470.566
101470.657
101470.753
101470.852
101470.956
101471.064
101471.177
101471.295
101471.42
101471.552
101471.694
101471.847
101472.014
101472.198
101472.404
101472.634
101472.893
101473.188
101473.521
101473.9
101474.326
101474.8
101475.322
101475.887
101476.495
101477.151
101477.802
101478.465
101479.598
101481.244
101482.702
101483.915
101485.098
101485.715
101486.494
101487.699
101488.628
101489.676
101491.113
101492.435
101493.629
101494.963
101496.54
101498.571
101500.573
101502.164
101503.694
101505.359
101506.9
101508.591
101510.235
101511.888
101513.674
101515.267
101466.9
101466.906
101466.914
101466.925
101466.939
101466.956
101466.976
101467
101467.028
101467.059
101467.094
101467.133
101467.176
101467.223
101467.274
101467.33
101467.389
101467.454
101467.527
101467.6
101467.672
101467.753
101467.841
101467.931
101468.025
101468.123
101468.225
101468.332
101468.443
101468.56
101468.683
101468.812
101468.949
101469.095
101469.252
101469.423
101469.611
101469.819
101470.052
101470.313
101470.609
101470.944
101471.325
101471.757
101472.247
101472.8
101473.421
101474.119
101474.899
101475.769
101476.727
101477.793
101478.962
101480.281
101481.156
101481.637
101482.341
101483.405
101484.405
101485.523
101487.035
101488.529
101490.028
101491.576
101492.983
101494.313
101495.847
101497.554
101499.207
101500.336
101501.382
101502.768
101504.45
101506.041
101507.757
101509.52
101511.362
101513.149
101514.753
101516.775
101463.953
101463.965
101463.98
101463.999
101464.021
101464.046
101464.075
101464.108
101464.145
101464.186
101464.231
101464.281
101464.334
101464.392
101464.456
101464.527
101464.6
101464.673
101464.754
101464.842
101464.932
101465.027
101465.127
101465.23
101465.339
101465.452
101465.571
101465.696
101465.827
101465.965
101466.112
101466.27
101466.441
101466.626
101466.831
101467.057
101467.311
101467.595
101467.916
101468.279
101468.69
101469.154
101469.677
101470.264
101470.918
101471.641
101472.433
101473.293
101474.222
101475.231
101476.282
101477.374
101478.546
101479.681
101481.104
101482.553
101483.606
101484.552
101485.612
101486.95
101488.612
101490.33
101491.64
101492.868
101494.069
101495.198
101496.437
101497.666
101498.677
101500.13
101502.125
101504.002
101505.722
101507.284
101509.067
101511.315
101513.678
101515.774
101518.081
101519.563
101460.614
101460.634
101460.659
101460.687
101460.718
101460.753
101460.793
101460.837
101460.885
101460.937
101460.994
101461.058
101461.124
101461.194
101461.27
101461.351
101461.438
101461.528
101461.623
101461.723
101461.827
101461.937
101462.051
101462.171
101462.296
101462.427
101462.566
101462.712
101462.868
101463.036
101463.217
101463.415
101463.632
101463.873
101464.141
101464.441
101464.779
101465.159
101465.587
101466.069
101466.608
101467.21
101467.879
101468.616
101469.419
101470.283
101471.226
101472.178
101473.096
101474.239
101475.678
101477.096
101478.527
101480.04
101481.161
101482.189
101483.609
101484.626
101485.583
101486.923
101488.579
101490.289
101491.57
101492.582
101493.774
101495.203
101496.564
101498.156
101500.157
101502.318
101504.345
101506.442
101508.86
101511.721
101513.878
101515.101
101516.229
101517.591
101519.149
101520.64
101456.847
101456.877
101456.913
101456.952
101456.995
101457.042
101457.094
101457.151
101457.212
101457.278
101457.348
101457.424
101457.505
101457.591
101457.681
101457.777
101457.878
101457.984
101458.094
101458.211
101458.332
101458.46
101458.594
101458.736
101458.885
101459.044
101459.214
101459.397
101459.596
101459.814
101460.053
101460.319
101460.616
101460.948
101461.32
101461.738
101462.206
101462.729
101463.311
101463.955
101464.662
101465.434
101466.27
101467.157
101468.075
101469.03
101470.315
101472.164
101474.16
101475.654
101476.893
101478.021
101478.954
101479.874
101480.916
101482.086
101483.198
101484.632
101486.646
101488.301
101489.206
101490.131
101491.855
101494.257
101496.193
101497.804
101499.53
101501.166
101502.768
101504.579
101506.538
101508.119
101509.749
101511.828
101513.895
101516.041
101518.007
101519.964
101522.17
101524.289
101452.631
101452.673
101452.723
101452.776
101452.833
101452.894
101452.96
101453.031
101453.106
101453.187
101453.273
101453.365
101453.461
101453.563
101453.67
101453.782
101453.9
101454.025
101454.155
101454.292
101454.437
101454.589
101454.752
101454.925
101455.111
101455.313
101455.533
101455.774
101456.041
101456.338
101456.669
101457.039
101457.455
101457.922
101458.446
101459.031
101459.684
101460.409
101461.209
101462.089
101463.051
101464.098
101465.233
101466.456
101467.726
101469.261
101470.848
101471.961
101472.851
101473.969
101475.171
101476.514
101478.03
101479.624
101481.162
101482.478
101483.72
101485.095
101486.607
101488.394
101490.545
101492.584
101494.209
101495.659
101497.337
101499.396
101501.122
101502.47
101503.863
101505.432
101507.076
101509.063
101511.44
101513.185
101515.074
101517.368
101519.533
101521.98
101523.756
101525.01
101447.958
101448.014
101448.079
101448.147
101448.219
101448.296
101448.377
101448.463
101448.555
101448.652
101448.754
101448.861
101448.974
101449.093
101449.218
101449.35
101449.488
101449.633
101449.787
101449.95
101450.124
101450.31
101450.51
101450.728
101450.966
101451.227
101451.517
101451.838
101452.196
101452.597
101453.045
101453.547
101454.107
101454.73
101455.421
101456.182
101457.017
101457.926
101458.907
101459.96
101461.076
101462.249
101463.472
101464.734
101466.058
101467.372
101468.806
101470.199
101471.535
101472.948
101474.403
101475.916
101477.476
101479.067
101480.625
101482.229
101484.013
101486.043
101488.052
101489.643
101491.015
101492.71
101494.71
101496.554
101498.163
101499.597
101501.421
101503.698
101505.598
101507.394
101509.202
101510.682
101512.442
101514.849
101516.608
101518.195
101520.762
101522.571
101524.355
101526.06
101442.849
101442.92
101443.002
101443.087
101443.174
101443.267
101443.364
101443.467
101443.574
101443.687
101443.806
101443.931
101444.061
101444.199
101444.344
101444.496
101444.658
101444.83
101445.013
101445.21
101445.423
101445.655
101445.908
101446.187
101446.495
101446.837
101447.219
101447.644
101448.119
101448.648
101449.236
101449.889
101450.608
101451.398
101452.26
101453.195
101454.202
101455.28
101456.428
101457.645
101458.929
101460.266
101461.664
101463.088
101464.749
101466.586
101468.313
101469.967
101471.498
101472.959
101474.415
101475.966
101477.925
101480.024
101481.934
101483.395
101485.233
101487.191
101488.578
101489.866
101491.386
101493.32
101495.2
101496.791
101498.597
101500.699
101502.826
101504.783
101506.802
101508.884
101511.06
101513.405
101515.618
101517.01
101518.544
101520.168
101521.605
101524.169
101526.148
101527.437
101437.367
101437.454
101437.555
101437.656
101437.761
101437.87
101437.984
101438.104
101438.229
101438.361
101438.499
101438.644
101438.797
101438.959
101439.131
101439.314
101439.511
101439.723
101439.954
101440.206
101440.482
101440.788
101441.127
101441.504
101441.925
101442.396
101442.921
101443.508
101444.159
101444.882
101445.678
101446.552
101447.504
101448.533
101449.639
101450.814
101452.055
101453.34
101454.677
101456.029
101457.598
101459.527
101461.477
101463.524
101465.575
101466.803
101467.771
101469.557
101471.829
101474.057
101476.012
101477.68
101479.262
101480.625
101482.011
101483.915
101485.122
101486.357
101488.614
101490.354
101492.517
101494.298
101495.946
101498.435
101500.746
101502.785
101504.805
101507.074
101509.376
101511.492
101513.734
101516.115
101518.058
101519.202
101520.894
101523.66
101525.482
101526.735
101528.226
101530.824
101431.606
101431.708
101431.826
101431.945
101432.066
101432.192
101432.324
101432.462
101432.606
101432.758
101432.918
101433.088
101433.269
101433.463
101433.672
101433.898
101434.145
101434.416
101434.715
101435.046
101435.414
101435.825
101436.285
101436.799
101437.373
101438.014
101438.726
101439.516
101440.385
101441.339
101442.378
101443.503
101444.712
101446.005
101447.377
101448.812
101450.302
101451.909
101453.945
101456.601
101459.153
101460.94
101462.303
101463.529
101464.786
101466.799
101468.911
101470.535
101472.464
101474.127
101475.894
101478.343
101480.628
101482.219
101483.316
101484.564
101486.743
101489.118
101490.983
101493.019
101495.155
101497.513
101499.338
101500.867
101502.585
101504.349
101506.085
101507.821
101509.868
101512.49
101515.437
101517.878
101519.625
101521.367
101523.534
101525.861
101528.325
101530.219
101532.122
101534.734
101468.434
101468.44
101468.447
101468.455
101468.464
101468.475
101468.486
101468.499
101468.513
101468.528
101468.545
101468.563
101468.582
101468.603
101468.625
101468.648
101468.673
101468.7
101468.728
101468.757
101468.789
101468.822
101468.857
101468.893
101468.932
101468.972
101469.015
101469.059
101469.105
101469.154
101469.205
101469.258
101469.313
101469.37
101469.43
101469.492
101469.557
101469.625
101469.695
101469.767
101469.843
101469.921
101470.002
101470.086
101470.173
101470.263
101470.356
101470.452
101470.55
101470.65
101470.753
101470.859
101470.969
101471.078
101471.188
101471.298
101471.409
101471.523
101471.638
101471.756
101471.872
101471.985
101472.092
101472.185
101472.259
101472.307
101472.32
101472.287
101472.177
101471.959
101471.621
101471.152
101470.571
101469.9
101469.102
101468.213
101466.993
101465.59
101464.473
101463.24
101470.537
101470.543
101470.55
101470.559
101470.568
101470.578
101470.59
101470.603
101470.617
101470.632
101470.648
101470.665
101470.684
101470.704
101470.725
101470.747
101470.771
101470.796
101470.823
101470.851
101470.88
101470.911
101470.943
101470.977
101471.013
101471.05
101471.089
101471.13
101471.172
101471.216
101471.262
101471.31
101471.359
101471.41
101471.463
101471.518
101471.575
101471.633
101471.694
101471.756
101471.82
101471.886
101471.954
101472.024
101472.095
101472.168
101472.243
101472.32
101472.397
101472.477
101472.557
101472.639
101472.72
101472.8
101472.879
101472.958
101473.039
101473.123
101473.206
101473.283
101473.352
101473.413
101473.464
101473.501
101473.515
101473.499
101473.436
101473.319
101473.175
101473.024
101472.871
101472.657
101472.155
101471.383
101470.45
101469.341
101468.053
101466.284
101464.334
101462.501
101472.499
101472.505
101472.512
101472.521
101472.53
101472.541
101472.552
101472.565
101472.578
101472.593
101472.609
101472.625
101472.643
101472.662
101472.683
101472.704
101472.727
101472.751
101472.776
101472.802
101472.83
101472.859
101472.889
101472.921
101472.954
101472.989
101473.025
101473.062
101473.101
101473.141
101473.183
101473.226
101473.271
101473.317
101473.365
101473.414
101473.464
101473.516
101473.569
101473.623
101473.679
101473.736
101473.794
101473.854
101473.914
101473.976
101474.039
101474.102
101474.167
101474.232
101474.297
101474.363
101474.43
101474.496
101474.563
101474.629
101474.696
101474.759
101474.816
101474.865
101474.908
101474.942
101474.965
101474.974
101474.964
101474.926
101474.85
101474.711
101474.487
101474.144
101473.649
101473.149
101472.702
101472.168
101471.414
101470.477
101469.42
101468.123
101466.229
101463.692
101474.331
101474.337
101474.344
101474.353
101474.362
101474.372
101474.384
101474.396
101474.409
101474.423
101474.439
101474.455
101474.472
101474.491
101474.51
101474.531
101474.552
101474.575
101474.599
101474.624
101474.651
101474.678
101474.707
101474.737
101474.768
101474.801
101474.835
101474.87
101474.906
101474.944
101474.983
101475.023
101475.064
101475.107
101475.151
101475.196
101475.242
101475.29
101475.338
101475.388
101475.439
101475.491
101475.543
101475.597
101475.652
101475.707
101475.763
101475.82
101475.878
101475.936
101475.995
101476.054
101476.113
101476.173
101476.232
101476.29
101476.348
101476.404
101476.456
101476.506
101476.55
101476.589
101476.618
101476.635
101476.636
101476.613
101476.561
101476.466
101476.301
101476.034
101475.644
101475.048
101474.239
101473.377
101472.496
101471.431
101470.242
101469.114
101468.03
101466.637
101476.038
101476.044
101476.051
101476.06
101476.069
101476.079
101476.09
101476.102
101476.115
101476.129
101476.144
101476.16
101476.176
101476.194
101476.213
101476.233
101476.254
101476.276
101476.3
101476.324
101476.35
101476.377
101476.404
101476.434
101476.464
101476.495
101476.528
101476.562
101476.597
101476.634
101476.671
101476.71
101476.75
101476.792
101476.834
101476.878
101476.923
101476.969
101477.016
101477.065
101477.114
101477.165
101477.217
101477.27
101477.324
101477.38
101477.437
101477.495
101477.554
101477.615
101477.677
101477.74
101477.805
101477.872
101477.94
101478.009
101478.079
101478.15
101478.221
101478.29
101478.357
101478.42
101478.476
101478.521
101478.551
101478.56
101478.537
101478.474
101478.357
101478.173
101477.904
101477.533
101476.991
101476.202
101475.25
101474.184
101472.839
101471.086
101469.161
101467.681
101477.627
101477.632
101477.64
101477.648
101477.656
101477.666
101477.677
101477.689
101477.701
101477.715
101477.73
101477.745
101477.762
101477.779
101477.798
101477.818
101477.838
101477.86
101477.883
101477.907
101477.933
101477.959
101477.987
101478.015
101478.045
101478.077
101478.109
101478.143
101478.178
101478.214
101478.252
101478.291
101478.332
101478.373
101478.416
101478.461
101478.507
101478.554
101478.603
101478.653
101478.705
101478.758
101478.813
101478.87
101478.928
101478.989
101479.052
101479.116
101479.184
101479.254
101479.326
101479.402
101479.481
101479.563
101479.649
101479.739
101479.832
101479.929
101480.03
101480.132
101480.236
101480.339
101480.439
101480.532
101480.614
101480.677
101480.715
101480.72
101480.681
101480.583
101480.411
101480.145
101479.768
101479.264
101478.562
101477.66
101476.555
101475.184
101473.488
101471.57
101479.094
101479.099
101479.106
101479.114
101479.122
101479.131
101479.142
101479.153
101479.166
101479.179
101479.193
101479.209
101479.225
101479.243
101479.261
101479.281
101479.301
101479.323
101479.346
101479.37
101479.396
101479.422
101479.45
101479.479
101479.509
101479.541
101479.574
101479.609
101479.645
101479.682
101479.721
101479.761
101479.802
101479.846
101479.891
101479.937
101479.986
101480.036
101480.088
101480.143
101480.199
101480.257
101480.318
101480.382
101480.448
101480.517
101480.589
101480.665
101480.744
101480.828
101480.916
101481.009
101481.107
101481.211
101481.321
101481.438
101481.561
101481.692
101481.829
101481.974
101482.124
101482.278
101482.435
101482.59
101482.74
101482.881
101483.004
101483.103
101483.164
101483.176
101483.123
101482.986
101482.746
101482.378
101481.86
101481.166
101480.277
101479.199
101477.847
101476.252
101480.441
101480.446
101480.452
101480.459
101480.466
101480.475
101480.485
101480.496
101480.508
101480.521
101480.535
101480.55
101480.567
101480.584
101480.602
101480.622
101480.642
101480.664
101480.687
101480.712
101480.737
101480.764
101480.793
101480.822
101480.853
101480.886
101480.92
101480.955
101480.992
101481.031
101481.071
101481.113
101481.157
101481.202
101481.25
101481.3
101481.352
101481.406
101481.463
101481.522
101481.584
101481.649
101481.717
101481.789
101481.864
101481.944
101482.028
101482.116
101482.21
101482.31
101482.416
101482.529
101482.649
101482.777
101482.914
101483.061
101483.218
101483.385
101483.563
101483.753
101483.953
101484.164
101484.383
101484.608
101484.836
101485.062
101485.28
101485.481
101485.656
101485.794
101485.881
101485.899
101485.829
101485.65
101485.337
101484.87
101484.235
101483.415
101482.382
101481.152
101481.66
101481.664
101481.67
101481.676
101481.683
101481.691
101481.7
101481.711
101481.722
101481.735
101481.748
101481.763
101481.779
101481.796
101481.814
101481.833
101481.854
101481.876
101481.899
101481.923
101481.949
101481.976
101482.005
101482.035
101482.067
101482.1
101482.135
101482.172
101482.21
101482.25
101482.292
101482.336
101482.382
101482.431
101482.481
101482.534
101482.589
101482.647
101482.708
101482.773
101482.841
101482.913
101482.988
101483.069
101483.154
101483.244
101483.34
101483.442
101483.551
101483.667
101483.792
101483.925
101484.068
101484.222
101484.387
101484.564
101484.754
101484.959
101485.178
101485.413
101485.665
101485.931
101486.212
101486.507
101486.811
101487.122
101487.435
101487.741
101488.033
101488.3
101488.529
101488.705
101488.811
101488.825
101488.722
101488.487
101488.105
101487.55
101486.806
101485.801
101482.749
101482.752
101482.756
101482.761
101482.767
101482.774
101482.783
101482.792
101482.803
101482.814
101482.827
101482.841
101482.856
101482.873
101482.89
101482.909
101482.929
101482.951
101482.974
101482.998
101483.024
101483.051
101483.08
101483.11
101483.142
101483.176
101483.211
101483.248
101483.288
101483.328
101483.372
101483.417
101483.464
101483.514
101483.567
101483.623
101483.682
101483.744
101483.81
101483.88
101483.954
101484.032
101484.115
101484.203
101484.296
101484.397
101484.504
101484.618
101484.741
101484.873
101485.015
101485.168
101485.333
101485.51
101485.702
101485.909
101486.131
101486.372
101486.63
101486.908
101487.206
101487.525
101487.864
101488.223
101488.599
101488.991
101489.393
101489.8
101490.205
101490.597
101490.965
101491.296
101491.572
101491.775
101491.879
101491.869
101491.73
101491.442
101490.975
101490.244
101483.703
101483.704
101483.707
101483.711
101483.715
101483.721
101483.728
101483.736
101483.746
101483.756
101483.768
101483.781
101483.795
101483.81
101483.827
101483.844
101483.864
101483.884
101483.906
101483.929
101483.954
101483.98
101484.008
101484.037
101484.069
101484.102
101484.137
101484.175
101484.215
101484.257
101484.301
101484.348
101484.398
101484.45
101484.506
101484.564
101484.625
101484.688
101484.756
101484.828
101484.906
101484.988
101485.077
101485.172
101485.273
101485.382
101485.499
101485.624
101485.759
101485.904
101486.06
101486.229
101486.412
101486.611
101486.825
101487.058
101487.31
101487.582
101487.876
101488.193
101488.534
101488.899
101489.289
101489.705
101490.145
101490.608
101491.09
101491.588
101492.094
101492.601
101493.099
101493.575
101494.015
101494.4
101494.71
101494.92
101495.018
101494.998
101494.837
101494.466
101484.513
101484.513
101484.513
101484.515
101484.518
101484.522
101484.527
101484.534
101484.541
101484.55
101484.56
101484.571
101484.584
101484.598
101484.613
101484.629
101484.647
101484.667
101484.688
101484.71
101484.734
101484.76
101484.788
101484.817
101484.849
101484.882
101484.916
101484.953
101484.992
101485.033
101485.077
101485.123
101485.171
101485.222
101485.276
101485.335
101485.398
101485.465
101485.537
101485.612
101485.693
101485.78
101485.872
101485.971
101486.077
101486.19
101486.312
101486.443
101486.584
101486.736
101486.902
101487.085
101487.288
101487.506
101487.742
101487.996
101488.27
101488.566
101488.886
101489.233
101489.607
101490.011
101490.444
101490.907
101491.399
101491.92
101492.468
101493.04
101493.632
101494.235
101494.842
101495.443
101496.025
101496.571
101497.062
101497.476
101497.79
101497.984
101498.074
101497.975
101485.184
101485.182
101485.18
101485.179
101485.18
101485.182
101485.185
101485.189
101485.194
101485.201
101485.208
101485.218
101485.228
101485.24
101485.253
101485.267
101485.283
101485.301
101485.32
101485.34
101485.362
101485.386
101485.411
101485.439
101485.468
101485.499
101485.532
101485.568
101485.605
101485.645
101485.686
101485.73
101485.777
101485.83
101485.885
101485.942
101486.003
101486.069
101486.138
101486.213
101486.293
101486.38
101486.472
101486.572
101486.681
101486.799
101486.928
101487.071
101487.227
101487.396
101487.575
101487.761
101487.96
101488.178
101488.415
101488.671
101488.952
101489.259
101489.608
101489.994
101490.405
101490.844
101491.311
101491.807
101492.333
101492.891
101493.483
101494.107
101494.757
101495.43
101496.118
101496.813
101497.502
101498.171
101498.802
101499.373
101499.86
101500.226
101500.447
101500.453
101485.696
101485.691
101485.686
101485.683
101485.681
101485.68
101485.68
101485.681
101485.684
101485.688
101485.693
101485.7
101485.707
101485.717
101485.727
101485.74
101485.753
101485.769
101485.786
101485.804
101485.824
101485.846
101485.87
101485.896
101485.922
101485.951
101485.982
101486.015
101486.049
101486.087
101486.129
101486.173
101486.219
101486.267
101486.32
101486.375
101486.434
101486.497
101486.564
101486.636
101486.714
101486.797
101486.887
101486.984
101487.088
101487.202
101487.324
101487.457
101487.601
101487.761
101487.941