/*--------------------------------*- C++ -*----------------------------------*\
  =========                 |
  \\      /  F ield         | OpenFOAM: The Open Source CFD Toolbox
   \\    /   O peration     | Website:  https://openfoam.org
    \\  /    A nd           | Version:  8
     \\/     M anipulation  |
\*---------------------------------------------------------------------------*/
FoamFile
{
    version     2.0;
    format      ascii;
    class       surfaceScalarField;
    location    "0.045";
    object      phi;
}
// * * * * * * * * * * * * * * * * * * * * * * * * * * * * * * * * * * * * * //

dimensions      [1 0 -1 0 0 0 0];

internalField   nonuniform List<scalar> 
84340
(
-6.93897219e-08
3.5595288e-07
-2.86628895e-07
-2.76910585e-07
1.05990926e-06
-8.52494718e-07
-6.26278649e-07
1.78298209e-06
-1.43374552e-06
-1.12137572e-06
2.53170812e-06
-2.03676424e-06
-1.76647526e-06
3.31187027e-06
-2.66694308e-06
-2.5662462e-06
4.12848941e-06
-3.32890852e-06
-3.52577379e-06
4.98561773e-06
-4.02629738e-06
-4.65054263e-06
5.88632365e-06
-4.76177942e-06
-5.94637536e-06
6.83284722e-06
-5.53725712e-06
-7.41933071e-06
7.82679462e-06
-6.35410091e-06
-9.07557161e-06
8.86930749e-06
-7.21334847e-06
-1.09212136e-05
9.96118494e-06
-8.11584646e-06
-1.2962165e-05
1.11029702e-05
-9.06234572e-06
-1.52039644e-05
1.22950129e-05
-1.00535653e-05
-1.7651614e-05
1.35375067e-05
-1.1090236e-05
-2.03094267e-05
1.48305264e-05
-1.21731217e-05
-2.31808611e-05
1.61740418e-05
-1.33030467e-05
-2.6268369e-05
1.75679305e-05
-1.44808959e-05
-2.95732288e-05
1.90119859e-05
-1.57076362e-05
-3.30953733e-05
2.05059126e-05
-1.69843177e-05
-3.68332064e-05
2.20493198e-05
-1.83120795e-05
-4.07834002e-05
2.36417054e-05
-1.96921509e-05
-4.49406674e-05
2.52824242e-05
-2.11258467e-05
-4.92975154e-05
2.69706529e-05
-2.26145494e-05
-5.38439527e-05
2.87053239e-05
-2.41596907e-05
-5.85671619e-05
3.04850499e-05
-2.57627091e-05
-6.34511285e-05
3.23080108e-05
-2.74249827e-05
-6.84761964e-05
3.41718134e-05
-2.91477597e-05
-7.36185387e-05
3.60732838e-05
-3.09320377e-05
-7.88495057e-05
3.80082053e-05
-3.27784234e-05
-8.41349687e-05
3.99711362e-05
-3.46869537e-05
-8.94348975e-05
4.19553897e-05
-3.66568444e-05
-9.47031478e-05
4.39528953e-05
-3.86861391e-05
-9.98869068e-05
4.59533918e-05
-4.0771244e-05
-0.000104924072
4.794221e-05
-4.2906779e-05
-0.000109741758
4.99019297e-05
-4.50861152e-05
-0.000114261628
5.18196152e-05
-4.73017688e-05
-0.000118390225
5.36703531e-05
-4.95439341e-05
-0.000122041219
5.54440916e-05
-5.1795387e-05
-0.000125115551
5.7092929e-05
-5.40210115e-05
-0.000127456504
5.85586177e-05
-5.62202773e-05
-0.000128815177
5.97492946e-05
-5.83934544e-05
-0.000128910904
6.05884269e-05
-6.04957195e-05
-0.000127463645
6.10015198e-05
-6.24519973e-05
-0.000124150566
6.08766266e-05
-6.41931553e-05
-0.00011863145
6.00868437e-05
-6.56096707e-05
-0.000110479867
5.84820943e-05
-6.66376276e-05
-9.91974808e-05
5.58805255e-05
-6.71671323e-05
-8.4174688e-05
5.2016954e-05
-6.70442355e-05
-6.48757935e-05
4.67973347e-05
-6.61010315e-05
-4.06191315e-05
3.98759106e-05
-6.41376849e-05
-1.10264556e-05
3.13433222e-05
-6.09415016e-05
2.49783319e-05
2.01677377e-05
-5.61784404e-05
6.85070378e-05
6.1410851e-06
-4.96760903e-05
0.000120674591
-1.12757352e-05
-4.08984466e-05
0.000182771192
-3.20719611e-05
-3.00319301e-05
0.000256268462
-5.77721185e-05
-1.57331409e-05
0.000342698663
-8.87210473e-05
2.28210106e-06
0.000443490077
-0.000125435463
2.46346139e-05
0.000561002313
-0.000168787095
5.12645173e-05
0.000696694255
-0.000219754848
8.40516834e-05
0.000852562492
-0.000279221553
0.000123341011
0.00103077374
-0.000348097114
0.000169872745
0.00123373015
-0.000427721755
0.000224751273
0.00146308991
-0.000518396553
0.000289022926
0.00172064378
-0.000621870267
0.00036430371
0.00200890879
-0.000739883482
0.000451607555
0.00232498325
-0.000866935837
0.000550852053
0.00267216653
-0.00102162221
0.000674431564
0.0030748297
-0.00120170776
0.000799038739
0.00349018291
-0.00132075635
0.000905398832
0.00385768469
-0.00150511813
0.001137613
0.00434737469
-0.00183622184
0.0013465291
0.00500831137
-0.00195705765
0.00129611816
0.00548301574
-0.00197894666
0.00150423889
0.00575615696
-0.0023089808
0.00203583361
0.00614628713
-0.00267291882
0.0022827824
0.00679520411
-0.00281294279
0.0021640201
0.00733830692
-0.00284636293
0.00230325917
-0.00296145804
0.00267873908
0.00762103176
-5.59483389e-08
4.11865589e-07
-2.23167608e-07
1.22707912e-06
-5.04557865e-07
2.06431631e-06
-9.03236862e-07
2.93032469e-06
-1.4224914e-06
3.83105604e-06
-2.06593582e-06
4.77185844e-06
-2.83744759e-06
5.75704695e-06
-3.74114191e-06
6.78992752e-06
-4.78130538e-06
7.87291139e-06
-5.96229264e-06
9.00767266e-06
-7.28839168e-06
1.01952861e-05
-8.76366822e-06
1.14363285e-05
-1.03917948e-05
1.27309498e-05
-1.21758688e-05
1.40789243e-05
-1.4118233e-05
1.54796908e-05
-1.62202757e-05
1.69323699e-05
-1.84822389e-05
1.84357844e-05
-2.090301e-05
1.99884576e-05
-2.34798977e-05
2.15886041e-05
-2.62083957e-05
2.32341129e-05
-2.90819201e-05
2.49225162e-05
-3.20915125e-05
2.66509369e-05
-3.5225518e-05
2.84160329e-05
-3.84692033e-05
3.02139032e-05
-4.18043202e-05
3.20399647e-05
-4.52085964e-05
3.38888061e-05
-4.86551444e-05
3.57539924e-05
-5.21118577e-05
3.76279111e-05
-5.55407901e-05
3.95015487e-05
-5.88974386e-05
4.13641325e-05
-6.2129183e-05
4.32021036e-05
-6.51755999e-05
4.50009689e-05
-6.79704852e-05
4.67468792e-05
-7.04368771e-05
4.84188302e-05
-7.2495309e-05
4.99996384e-05
-7.40752541e-05
5.14808001e-05
-7.50573981e-05
5.28006132e-05
-7.52865383e-05
5.38982804e-05
-7.45424181e-05
5.46986931e-05
-7.25853941e-05
5.51345539e-05
-6.91577828e-05
5.51295729e-05
-6.39950467e-05
5.45850301e-05
-5.67945854e-05
5.33863516e-05
-4.71950651e-05
5.14002813e-05
-3.47984089e-05
4.84781478e-05
-1.91074903e-05
4.43939711e-05
3.52594973e-07
3.9019929e-05
2.38601253e-05
3.23707452e-05
5.21051526e-05
2.37694995e-05
8.60196873e-05
1.28801719e-05
0.000126514986
-6.2219714e-07
0.000174637474
-1.67823177e-05
0.000231581832
-3.67801192e-05
0.000298670222
-6.09512356e-05
0.000377158495
-8.97683609e-05
0.000468955328
-0.000123873732
0.000575278852
-0.000164101139
0.00069777973
-0.000211228196
0.00083838685
-0.000266049551
0.000999101885
-0.000329509974
0.00118184429
-0.000402505797
0.00138864319
-0.000486029885
0.00162133887
-0.000580802141
0.00188162363
-0.000688015384
0.00217013465
-0.000806915486
0.00248574996
-0.000937492761
0.00283025359
-0.00108439315
0.00320318189
-0.00123986934
0.00358486552
-0.00140330984
0.00399998696
-0.00161683251
0.0044791908
-0.00179996265
0.00490581179
-0.0019317414
0.00525112773
-0.00218153997
0.00575038824
-0.00245632079
0.00631843867
-0.00254700037
0.00663627006
-0.00262681654
0.00677007957
-0.00280673442
0.00693320496
-0.00297607841
0.00720048023
-0.00311364911
-0.00322701239
0.00746602909
-4.32482323e-08
4.54999565e-07
-1.72283142e-07
1.35595131e-06
-3.89008114e-07
2.2808535e-06
-6.95435496e-07
3.23654141e-06
-1.09369739e-06
4.22908606e-06
-1.58592455e-06
5.26383348e-06
-2.17435724e-06
6.34520748e-06
-2.86134174e-06
7.47661957e-06
-3.64918959e-06
8.66044586e-06
-4.54006646e-06
9.89821443e-06
-5.5358513e-06
1.11907131e-05
-6.63797123e-06
1.25380667e-05
-7.84722054e-06
1.39397922e-05
-9.16356433e-06
1.53948346e-05
-1.05859296e-05
1.69015947e-05
-1.21119889e-05
1.84579381e-05
-1.37379204e-05
2.00611936e-05
-1.54581611e-05
2.17081427e-05
-1.72651286e-05
2.33949806e-05
-1.91489173e-05
2.51172732e-05
-2.10969592e-05
2.68698893e-05
-2.3093619e-05
2.86468851e-05
-2.51197125e-05
3.04413687e-05
-2.71519288e-05
3.22453126e-05
-2.91622333e-05
3.40494091e-05
-3.11171828e-05
3.5842839e-05
-3.29770374e-05
3.76128695e-05
-3.46968598e-05
3.93466887e-05
-3.62254992e-05
4.10290705e-05
-3.75062065e-05
4.26436549e-05
-3.847821e-05
4.41728509e-05
-3.90800647e-05
4.56014767e-05
-3.92179954e-05
4.68833697e-05
-3.87779461e-05
4.79772533e-05
-3.76151992e-05
4.88352615e-05
-3.55429874e-05
4.94068429e-05
-3.23590088e-05
4.96147775e-05
-2.78448905e-05
4.93821733e-05
-2.17639683e-05
4.86156452e-05
-1.38559378e-05
4.72242595e-05
-3.81878607e-06
4.50900184e-05
8.68374996e-06
4.20799418e-05
2.40691168e-05
3.7998288e-05
4.2765007e-05
3.27015285e-05
6.49761407e-05
2.62639887e-05
9.146235e-05
1.79046046e-05
0.000122955382
7.52363737e-06
0.000160302279
-4.97962339e-06
0.00020444714
-2.03790618e-05
0.000256498168
-3.91748086e-05
0.000317533852
-6.16620627e-05
0.000389088309
-8.83412566e-05
0.000472190069
-0.000119886639
0.000568200952
-0.000156967267
0.000678720471
-0.000200293401
0.000805470523
-0.000250629802
0.00095013411
-0.000308771123
0.00111446502
-0.000375566039
0.00130037138
-0.000451963279
0.00150967937
-0.000538825786
0.00174402665
-0.000636860568
0.00200461607
-0.000746626322
0.00229195581
-0.000868148079
0.00260614718
-0.00100221239
0.00294664905
-0.00114742207
0.0033088606
-0.00129970841
0.00368732485
-0.00146286055
0.00408878908
-0.00164133615
0.00449464289
-0.00180916548
0.00488338597
-0.0020055772
0.0053036369
-0.00222021489
0.00574197521
-0.00237008123
0.00605864703
-0.00249821368
0.00627250581
-0.00267018324
0.00652664289
-0.00280114384
0.00680720219
-0.002907384
0.00699873719
-0.00299827824
0.00711146182
-0.00308881341
0.00719416677
-0.00319636305
-0.00331791318
0.00728505894
-3.46864841e-08
4.89672371e-07
-1.37379355e-07
1.45862722e-06
-3.08687568e-07
2.45214382e-06
-5.49226679e-07
3.47706113e-06
-8.59699856e-07
4.53953768e-06
-1.24071088e-06
5.64482003e-06
-1.69267683e-06
6.79714516e-06
-2.21566109e-06
7.99957083e-06
-2.80961622e-06
9.25436218e-06
-3.47407464e-06
1.0562627e-05
-4.20798991e-06
1.19245742e-05
-5.00956337e-06
1.33395763e-05
-5.87604139e-06
1.48061951e-05
-6.80350248e-06
1.63222077e-05
-7.78662354e-06
1.78846129e-05
-8.81841999e-06
1.94896152e-05
-9.88997245e-06
2.1132608e-05
-1.0990097e-05
2.28081087e-05
-1.2104957e-05
2.45096591e-05
-1.32175925e-05
2.62297021e-05
-1.43074313e-05
2.79594944e-05
-1.53498353e-05
2.9689026e-05
-1.63164673e-05
3.14077056e-05
-1.7174688e-05
3.31032039e-05
-1.78873761e-05
3.47617312e-05
-1.84128673e-05
3.63679269e-05
-1.87055515e-05
3.79051109e-05
-1.87052667e-05
3.93459199e-05
-1.83405686e-05
4.06638462e-05
-1.75266154e-05
4.18291334e-05
-1.61596535e-05
4.28052745e-05
-1.41092722e-05
4.35504321e-05
-1.1233453e-05
4.40068413e-05
-7.36997854e-06
4.41130233e-05
-2.32939761e-06
4.37938747e-05
4.11491644e-06
4.29616715e-05
1.21904068e-05
4.15383821e-05
2.2156194e-05
3.94154325e-05
3.42999597e-05
3.64708788e-05
4.89886153e-05
3.25345544e-05
6.661484e-05
2.74626974e-05
8.737952e-05
2.13141109e-05
0.000111990359
1.33862658e-05
0.00014109878
3.59188677e-06
0.00017545245
-8.09096735e-06
0.000215885556
-2.25298777e-05
0.000263357997
-3.99502516e-05
0.000319118873
-6.07420565e-05
0.000384127394
-8.53892415e-05
0.000459400765
-0.000114449993
0.000546257921
-0.000148521181
0.000646162284
-0.00018824781
0.00076057163
-0.000234298381
0.000891005829
-0.000287404147
0.00103903073
-0.000348321216
0.00120620571
-0.000417808052
0.00139419301
-0.000496761957
0.0016045738
-0.000585950656
0.00183862738
-0.000686020551
0.00209711235
-0.000797314315
0.00238003475
-0.00091978614
0.00268656479
-0.00105315927
0.00301488415
-0.00119646983
0.00336196876
-0.00134929904
0.00372519717
-0.0015106519
0.00410037604
-0.00167488836
0.00447522998
-0.00183771499
0.0048448834
-0.00201098986
0.00521719978
-0.00218148179
0.00554348302
-0.00233186044
0.00579951222
-0.00247624418
0.00603268371
-0.00260325365
0.00625088066
-0.00271641271
0.00640851948
-0.00282782548
0.00653540571
-0.00292803399
0.00665671183
-0.00302869705
0.00678585634
-0.00312742933
0.0069156644
-0.00321862846
0.00702361412
-0.00330431985
-0.00340245545
0.00710815051
-3.11486065e-08
5.2070024e-07
-1.22138656e-07
1.54944909e-06
-2.72200136e-07
2.60201406e-06
-4.80408498e-07
3.68505719e-06
-7.45647647e-07
4.804545e-06
-1.06665252e-06
5.96557445e-06
-1.4417668e-06
7.1719906e-06
-1.86883962e-06
8.42635639e-06
-2.34477624e-06
9.72999283e-06
-2.86589231e-06
1.1083418e-05
-3.42756727e-06
1.24859042e-05
-4.02401054e-06
1.39356541e-05
-4.64803106e-06
1.54298288e-05
-5.29077829e-06
1.69645458e-05
-5.94144796e-06
1.85348502e-05
-6.58695188e-06
2.01346624e-05
-7.21155791e-06
2.17567318e-05
-7.7965888e-06
2.33926305e-05
-8.32048122e-06
2.50330136e-05
-8.75838739e-06
2.66670398e-05
-9.08189747e-06
2.82824045e-05
-9.25633058e-06
2.98628259e-05
-9.24100915e-06
3.13917139e-05
-8.98874197e-06
3.28502269e-05
-8.4441951e-06
3.42164324e-05
-7.54202237e-06
3.5464957e-05
-6.20381414e-06
3.65660553e-05
-4.34209735e-06
3.74833016e-05
-1.85334226e-06
3.81741323e-05
1.38600038e-06
3.85887698e-05
5.52202299e-06
3.86681587e-05
1.07286678e-05
3.8342616e-05
1.71866177e-05
3.754764e-05
2.51029288e-05
3.61953736e-05
3.47094636e-05
3.41859085e-05
4.62620139e-05
3.1407591e-05
6.00904764e-05
2.77082867e-05
7.65580466e-05
2.29461151e-05
9.5866135e-05
1.71609211e-05
0.000118656787
9.74193933e-06
0.000145515124
6.02307059e-07
0.000177097457
-1.02704309e-05
0.000214149832
-2.36684855e-05
0.000257512332
-3.97731501e-05
0.00030835262
-5.89339538e-05
0.000367426752
-8.16068907e-05
0.000435759457
-0.000108286018
0.000514526917
-0.000139512792
0.000604995161
-0.000175860973
0.000708489767
-0.000217948329
0.000826391514
-0.000266426852
0.000960099495
-0.000321959942
0.00111102278
-0.000385225988
0.00128050189
-0.000456887813
0.00146983226
-0.000537656318
0.00168015065
-0.000628131239
0.00191218924
-0.000728804945
0.00216611373
-0.000839879114
0.00244138771
-0.000961297918
0.00273649584
-0.00109242537
0.00304914834
-0.00123244092
0.00337567759
-0.00137969033
0.00371211087
-0.00153290426
0.00405166451
-0.00168885336
0.00438709657
-0.00184608399
0.00471589247
-0.00200368391
0.00503163048
-0.00215345214
0.0053097362
-0.00228909456
0.00554629497
-0.0024180393
0.00573537338
-0.00252093769
0.00588022674
-0.00262109632
0.00600221943
-0.00272524572
0.00611550411
-0.00282969743
0.00621919415
-0.00293151663
0.00631921737
-0.00302805934
0.00641056278
-0.0031200459
0.00649642078
-0.00321329125
0.00658992867
-0.00331214152
0.00669552127
-0.00340991729
-0.00351021132
0.00680327369
-3.15100632e-08
5.5223022e-07
-1.22160711e-07
1.64012955e-06
-2.69553693e-07
2.74944217e-06
-4.70995648e-07
3.8865384e-06
-7.2335294e-07
5.05694449e-06
-1.02290039e-06
6.26516596e-06
-1.36529145e-06
7.51442659e-06
-1.74547814e-06
8.80658792e-06
-2.15724866e-06
1.01418071e-05
-2.5928395e-06
1.15190504e-05
-3.04309225e-06
1.29361951e-05
-3.49718837e-06
1.43897838e-05
-3.94227797e-06
1.58749458e-05
-4.36316776e-06
1.73854557e-05
-4.74200889e-06
1.89137023e-05
-5.0582376e-06
2.04508914e-05
-5.28736689e-06
2.19858489e-05
-5.40073665e-06
2.35059739e-05
-5.36540304e-06
2.49976374e-05
-5.14320993e-06
2.64447861e-05
-4.68985086e-06
2.78289648e-05
-3.95515224e-06
2.91280252e-05
-2.88062434e-06
3.031706e-05
-1.39712594e-06
3.13665772e-05
5.77148642e-07
3.22419791e-05
3.13887605e-06
3.29030216e-05
6.40236038e-06
3.33023313e-05
1.04921634e-05
3.3393227e-05
1.55510374e-05
3.31149526e-05
2.17426394e-05
3.23968273e-05
2.92527341e-05
3.11576868e-05
3.8290544e-05
2.93043922e-05
4.91014943e-05
2.67362373e-05
6.19794897e-05
2.33168877e-05
7.72496823e-05
1.89151855e-05
9.51246765e-05
1.35320246e-05
0.00011617534
6.65701788e-06
0.000140921648
-1.80083046e-06
0.000169940454
-1.18585712e-05
0.000203892632
-2.42109806e-05
0.0002435167
-3.90225543e-05
0.000289852241
-5.66068257e-05
0.000343569182
-7.73863457e-05
0.000405595268
-0.000101800238
0.000476993805
-0.000130333582
0.000558898064
-0.000163512359
0.000652505534
-0.000201894821
0.000759062728
-0.00024607147
0.000879846848
-0.000296646728
0.00101611651
-0.000354219818
0.00116906585
-0.000419378197
0.00133978621
-0.00049268253
0.0015292297
-0.000574671889
0.00173811762
-0.000665778301
0.0019666917
-0.000766232861
0.00221456863
-0.000876010483
0.00248055596
-0.000994794285
0.00276243881
-0.00112176373
0.00305734307
-0.00125620352
0.00336132654
-0.00139640984
0.00367052477
-0.00154163963
0.00397815869
-0.00168732434
0.00428142903
-0.0018361741
0.00457066393
-0.00197808738
0.00483756349
-0.00211298226
0.00507156277
-0.00223768173
0.00527065722
-0.0023525444
0.00543378958
-0.00245222474
0.00556147374
-0.00254572147
0.00567248721
-0.00263194889
0.00576973207
-0.00271833874
0.00585365315
-0.00280916522
0.00592698065
-0.00290302367
0.00599290034
-0.00299743587
0.00605854735
-0.00309370641
0.00613138642
-0.00319288598
0.0062124303
-0.00329433664
0.00629630899
-0.00339602275
0.00638661734
-0.00350022615
-0.0036056511
0.00648205734
-3.35243347e-08
5.85660962e-07
-1.28290929e-07
1.73476745e-06
-2.79949397e-07
2.90095557e-06
-4.83576177e-07
4.09000513e-06
-7.33488634e-07
5.30668302e-06
-1.02303145e-06
6.5545217e-06
-1.34437438e-06
7.83556965e-06
-1.68830592e-06
9.1503068e-06
-2.04438675e-06
1.04976622e-05
-2.40019706e-06
1.18746217e-05
-2.74104522e-06
1.32767907e-05
-3.04969089e-06
1.46981629e-05
-3.30594959e-06
1.61309234e-05
-3.48634271e-06
1.75655531e-05
-3.56352643e-06
1.89905745e-05
-3.50611168e-06
2.03931483e-05
-3.27802364e-06
2.17574154e-05
-2.83776187e-06
2.30653489e-05
-2.13705892e-06
2.42965515e-05
-1.11929509e-06
2.54266178e-05
2.81742592e-07
2.64274987e-05
2.14143071e-06
2.72678835e-05
4.54613761e-06
2.79118719e-05
7.59460677e-06
2.83175964e-05
1.13998412e-05
2.84361987e-05
1.60908615e-05
2.82114181e-05
2.18143622e-05
2.75782056e-05
2.87441263e-05
2.64627925e-05
3.70781303e-05
2.47802273e-05
4.70472232e-05
2.2426958e-05
5.89275009e-05
1.92765721e-05
7.29424882e-05
1.52884984e-05
8.93770096e-05
1.03007304e-05
0.000108730897
3.96194575e-06
0.000131439061
-3.79410867e-06
0.000158010824
-1.30409747e-05
0.000189030988
-2.43645045e-05
0.000225147584
-3.79189098e-05
0.000267274004
-5.39866107e-05
0.000316008556
-7.29473044e-05
0.000372183126
-9.51990608e-05
0.00043675262
-0.000121178443
0.000510723679
-0.000151359734
0.000595169953
-0.000186249068
0.000691212886
-0.000226379295
0.000799991146
-0.000272293643
0.000922627809
-0.000324534751
0.00106018472
-0.000383631911
0.00121361568
-0.00045008148
0.00138372806
-0.000524336279
0.00157112445
-0.000606778945
0.00177618062
-0.000697743246
0.00199879597
-0.000797291624
0.00223825022
-0.000905236626
0.00249299299
-0.00102097928
0.00276055297
-0.00114357373
0.00303761563
-0.00127185968
0.00331988653
-0.00140403692
0.00360252067
-0.00153883935
0.00388048126
-0.00167437161
0.0041510937
-0.0018122526
0.00440777471
-0.00194400534
0.00463749389
-0.00206589266
0.00483609198
-0.00217668442
0.00500285865
-0.00227974718
0.00513867411
-0.00237349527
0.00525055012
-0.00246441858
0.00534963157
-0.00255130407
0.00543856635
-0.00263465388
0.00552031651
-0.00271369695
0.00559455613
-0.00279257639
0.00565783083
-0.0028724384
0.00571601485
-0.00296120615
0.00577511264
-0.00305653289
0.00583605186
-0.0031546451
0.00589579293
-0.00325262715
0.0059591943
-0.00335773818
0.00603026508
-0.00346709386
0.00611174664
-0.00358170667
-0.00369140074
0.00619749798
-3.39873694e-08
6.19693735e-07
-1.27842205e-07
1.82868703e-06
-2.74663343e-07
3.04785108e-06
-4.66738411e-07
4.2821627e-06
-6.95207067e-07
5.53524094e-06
-9.4977532e-07
6.80918486e-06
-1.2184331e-06
8.10432702e-06
-1.48714648e-06
9.41912362e-06
-1.73954864e-06
1.07501709e-05
-1.95683856e-06
1.20920204e-05
-2.11695577e-06
1.34370182e-05
-2.19424043e-06
1.47755584e-05
-2.15889997e-06
1.60956933e-05
-1.97650353e-06
1.73832652e-05
-1.60747903e-06
1.86216557e-05
-1.0058475e-06
1.97916185e-05
-1.18870816e-07
2.08705349e-05
1.11393478e-06
2.18326326e-05
2.76210878e-06
2.26484584e-05
4.90517083e-06
2.32836269e-05
7.63380319e-06
2.3698926e-05
1.10525039e-05
2.38492295e-05
1.52818069e-05
2.36826009e-05
2.04601412e-05
2.31392782e-05
2.67455405e-05
2.21507976e-05
3.43184035e-05
2.06385341e-05
4.33880488e-05
1.85085183e-05
5.41849425e-05
1.56658346e-05
6.6913345e-05
1.20517362e-05
8.19132246e-05
7.42696513e-06
9.95506333e-05
1.63902546e-06
0.000120213388
-5.3744216e-06
0.000144368312
-1.3854392e-05
0.000172526856
-2.41968312e-05
0.000205261154
-3.65286759e-05
0.000243356191
-5.11363232e-05
0.000287351192
-6.83598632e-05
0.000337985814
-8.85539424e-05
0.000396108312
-0.000112109583
0.000462612874
-0.000139452415
0.000538448874
-0.000171035695
0.000624607543
-0.000207337849
0.000722096682
-0.000248849723
0.000831910185
-0.000296063563
0.000954990476
-0.000349460732
0.00109218841
-0.000409492909
0.00124421332
-0.000476561189
0.00141157375
-0.000550994116
0.00159451114
-0.000633020894
0.00179299931
-0.000722826739
0.00200657035
-0.000820352376
0.00223418132
-0.000925356614
0.00247410164
-0.00103721425
0.00272384102
-0.0011549782
0.0029801019
-0.00127724212
0.00323879046
-0.00140226403
0.00349500784
-0.00152807844
0.00374383233
-0.00165286243
0.00397918079
-0.00177418831
0.0041982186
-0.00189340948
0.00438962944
-0.00200366295
0.00455115851
-0.00210553347
0.00468171033
-0.00219644283
0.00479175162
-0.00228672342
0.00488806294
-0.00237605538
0.0049767642
-0.00246219348
0.00505916381
-0.00254681519
0.00513844388
-0.002630581
0.00521708129
-0.00271328847
0.00529172728
-0.00278834008
0.00536177805
-0.0028626244
0.005429921
-0.00294057943
0.00549267119
-0.00302395468
0.00554944112
-0.0031133015
0.00560780814
-0.00321301033
0.00567142004
-0.00331623784
0.0057356185
-0.00342193568
0.0058056236
-0.00353709802
0.0058850558
-0.00366113712
-0.0037788186
0.00597247552
-3.01153892e-08
6.4975194e-07
-1.09832331e-07
1.90832657e-06
-2.29134913e-07
3.16706734e-06
-3.76710707e-07
4.42964397e-06
-5.39594084e-07
5.69802218e-06
-7.02752407e-07
6.9722339e-06
-8.48702869e-07
8.2501613e-06
-9.57057315e-07
9.52735506e-06
-1.00407135e-06
1.07970551e-05
-9.62070236e-07
1.20498827e-05
-7.99205457e-07
1.32740097e-05
-4.78654712e-07
1.44548568e-05
4.20205278e-08
1.55748599e-05
8.11525296e-07
1.66135947e-05
1.88578156e-06
1.75472256e-05
3.3290728e-06
1.83481449e-05
5.21443574e-06
1.89849804e-05
7.62600854e-06
1.94208584e-05
1.065999e-05
1.96142643e-05
1.44263524e-05
1.95170396e-05
1.90508272e-05
1.90742123e-05
2.46768397e-05
1.82229626e-05
3.14677092e-05
1.68914593e-05
3.96114649e-05
1.49952303e-05
4.93178489e-05
1.24440979e-05
6.07721201e-05
9.18392052e-06
7.42887124e-05
4.99155602e-06
9.01838836e-05
-2.29736086e-07
0.000108808903
-6.57372257e-06
0.000130563746
-1.43283621e-05
0.000155882434
-2.36801985e-05
0.000185338832
-3.48314133e-05
0.00021953007
-4.80462914e-05
0.000258948879
-6.36163766e-05
0.000304275937
-8.18565564e-05
0.000356254897
-0.000103116204
0.000415669224
-0.000127775223
0.000483352473
-0.000156238349
0.000560175411
-0.000188933816
0.000647025311
-0.000226303761
0.000744782182
-0.000268794176
0.000854287008
-0.00031684447
0.00097630637
-0.000370871076
0.00111148839
-0.000431247799
0.00126030811
-0.000498282891
0.00142300681
-0.000572194303
0.00159953043
-0.000653087789
0.00178948018
-0.000740947179
0.0019920517
-0.00083559588
0.00220585823
-0.000936636724
0.00242886615
-0.00104336362
0.00265836439
-0.00115485806
0.0028911638
-0.00127001665
0.00312374669
-0.00138756388
0.00335195281
-0.00150545072
0.00357093748
-0.00162125089
0.0037756279
-0.00173277061
0.00396286689
-0.00184010281
0.00412777222
-0.00193909446
0.00426591613
-0.00203155366
0.00437612759
-0.00211387398
0.00446618588
-0.0021955907
0.00454840153
-0.00227865688
0.00462227976
-0.00236059981
0.00468782057
-0.00244159357
0.0047481665
-0.00252253669
0.00480574408
-0.00260439043
0.00486242049
-0.0026872546
0.00492103584
-0.00277190048
0.00498556313
-0.00285286468
0.00505220403
-0.00292926252
0.0051224383
-0.00301081062
0.00519711795
-0.00309863163
0.00527226833
-0.00318845012
0.00534408975
-0.00328482975
0.005415294
-0.00338744046
0.005490361
-0.00349700104
0.00557223076
-0.00361896603
0.00566010751
-0.00374901142
-0.0038699653
0.00575125659
-2.10557848e-08
6.70871233e-07
-7.0297757e-08
1.95765899e-06
-1.3332138e-07
3.23019492e-06
-1.93859539e-07
4.49029786e-06
-2.33274477e-07
5.7375631e-06
-2.30029241e-07
6.96912371e-06
-1.59168203e-07
8.17944353e-06
8.21264953e-09
9.36012516e-06
3.05603226e-07
1.04998226e-05
7.71579263e-07
1.15840714e-05
1.45049009e-06
1.25952698e-05
2.39322203e-06
1.35123014e-05
3.65796754e-06
1.43102959e-05
5.31132986e-06
1.49604182e-05
7.42910038e-06
1.54296444e-05
1.00984963e-05
1.56789409e-05
1.34189009e-05
1.566477e-05
1.75037066e-05
1.53362481e-05
2.24822075e-05
1.46359589e-05
2.85011298e-05
1.34983121e-05
3.57283894e-05
1.18471455e-05
4.43536476e-05
9.59789486e-06
5.45520124e-05
6.69328149e-06
6.65974882e-05
2.949936e-06
8.07672406e-05
-1.72547993e-06
9.73715178e-05
-7.42018764e-06
0.000116761675
-1.43984386e-05
0.000139335295
-2.28032015e-05
0.000165591159
-3.28294408e-05
0.000195973442
-4.47105096e-05
0.000230995125
-5.87017573e-05
0.00027124891
-7.50850867e-05
0.000317373724
-9.4171008e-05
0.000370054177
-0.000116296748
0.000430020311
-0.000141822629
0.00049803515
-0.000171131005
0.000574879169
-0.000204619232
0.000661331549
-0.000242690753
0.000758144418
-0.000285746748
0.000866013149
-0.000334172608
0.000985540257
-0.000388321457
0.00111719009
-0.000448494557
0.00126123715
-0.000514918474
0.00141770896
-0.000587720063
0.001586327
-0.000666901507
0.00176645311
-0.000752321161
0.00195706664
-0.000843702219
0.00215666071
-0.00094054229
0.00236316409
-0.00104210038
0.00257383825
-0.00114731207
0.00278537293
-0.00125489948
0.00299406629
-0.00136355262
0.00319617111
-0.00147212257
0.0033885852
-0.00157997899
0.00356901018
-0.00168587645
0.00373211975
-0.00178436098
0.0038753179
-0.00187596879
0.00399721093
-0.00196199553
0.00409948012
-0.00204136291
0.00418116551
-0.00211323776
0.00424962754
-0.00218233382
0.00431039218
-0.00225635274
0.00436510106
-0.0023333629
0.00441513962
-0.00241063572
0.00446100042
-0.00248745164
0.00450389465
-0.00256542779
0.00454610918
-0.00264660097
0.00458858123
-0.00272972319
0.00463275711
-0.00281607335
0.00468256082
-0.00290266535
0.0047425936
-0.00298929236
0.00481045524
-0.00307866968
0.00488273349
-0.003170907
0.00496241996
-0.00326813418
0.00504326449
-0.00336567202
0.00512155769
-0.0034657313
0.00519956501
-0.00357500584
0.00528127825
-0.00370067684
0.00536205514
-0.00382978506
-0.00394743512
0.0054395282
-5.86279737e-09
6.7671375e-07
-5.34112009e-09
1.95711192e-06
2.17045047e-08
3.20312249e-06
9.80841782e-08
4.41388997e-06
2.49883519e-07
5.5857342e-06
5.07066798e-07
6.71190966e-06
9.04104502e-07
7.78237399e-06
1.48061243e-06
8.78358451e-06
2.28206038e-06
9.69834126e-06
3.36052474e-06
1.05055731e-05
4.77569063e-06
1.11800696e-05
6.59564606e-06
1.16923115e-05
8.89826351e-06
1.20076439e-05
1.17724137e-05
1.20862334e-05
1.53193794e-05
1.18826439e-05
1.96543155e-05
1.13439698e-05
2.49082871e-05
1.04107627e-05
3.12301064e-05
9.01439226e-06
3.87890806e-05
7.07694658e-06
4.77485957e-05
4.53875666e-06
5.83454639e-05
1.25023415e-06
7.08222573e-05
-2.87894567e-06
8.54517803e-05
-7.93629444e-06
0.000102541777
-1.41401212e-05
0.000122437563
-2.16213351e-05
0.000145574211
-3.0556917e-05
0.000172328318
-4.11526406e-05
0.00020315917
-5.36341662e-05
0.000238580432
-6.82508361e-05
0.000279146836
-8.52770709e-05
0.000325456231
-0.000105011338
0.000378144324
-0.000127773398
0.000437876514
-0.000153903453
0.000505336703
-0.000183757235
0.00058121215
-0.000217698418
0.000666172795
-0.000256092044
0.000760846777
-0.000299293663
0.000865791353
-0.000347635839
0.000981456071
-0.000401412042
0.00110814051
-0.000460857695
0.00124594729
-0.00052612897
0.00139473176
-0.000597279854
0.0015540511
-0.000674238725
0.00172311683
-0.000756786839
0.00190076339
-0.00084454923
0.0020854623
-0.00093702134
0.00227523793
-0.00103347916
0.00246765387
-0.00113295955
0.00265985834
-0.00123430615
0.00284876713
-0.00133622216
0.00303111404
-0.00143724763
0.00320354031
-0.00153598009
0.00336322816
-0.0016318115
0.00350722014
-0.00172397187
0.0036319598
-0.0018106167
0.00373926168
-0.00189166326
0.00383095043
-0.00196765765
0.00390894503
-0.0020399899
0.00397722589
-0.00210964296
0.00403687417
-0.0021728846
0.00408799263
-0.00223345025
0.00413096276
-0.00229932063
0.00416905568
-0.00237145348
0.00420399363
-0.00244557101
0.00423740736
-0.00252086196
0.00427043539
-0.00259845235
0.00430430211
-0.00268046415
0.00433941619
-0.00276483349
0.0043761732
-0.00285282713
0.00441701891
-0.00294350793
0.0044617422
-0.00303401239
0.0045114577
-0.00312838212
0.00456797414
-0.00322741997
0.00463379204
-0.00333394869
0.00471095938
-0.00344283572
0.00479305494
-0.00354782324
0.00487064986
-0.00365259703
0.00494676597
-0.00377678918
0.00502585707
-0.00390887083
-0.0040283094
0.00510673632
1.61364775e-08
6.60663752e-07
8.76740816e-08
1.88569805e-06
2.42024873e-07
3.04891453e-06
5.1020408e-07
4.14587043e-06
9.27532361e-07
5.16858059e-06
1.53437018e-06
6.10526026e-06
2.37691226e-06
6.9400333e-06
3.50801745e-06
7.65269324e-06
4.98812254e-06
8.21846239e-06
6.88608616e-06
8.6078477e-06
9.28060711e-06
8.78579872e-06
1.2261331e-05
8.71184962e-06
1.59299017e-05
8.33934701e-06
2.04018219e-05
7.6145987e-06
2.5808184e-05
6.47657846e-06
3.22977423e-05
4.85471947e-06
4.00212694e-05
2.6875549e-06
4.91826371e-05
-1.46646817e-07
5.99935591e-05
-3.73363833e-06
7.26921986e-05
-8.15953488e-06
8.754592e-05
-1.36031282e-05
0.000104852558
-2.01852149e-05
0.000124982034
-2.80653922e-05
0.000148267002
-3.74247012e-05
0.000175108204
-4.84621392e-05
0.000205949219
-6.1397523e-05
0.000241269508
-7.64725102e-05
0.000281586189
-9.39504148e-05
0.000327449705
-0.000114113906
0.000379437546
-0.000137264452
0.000438145824
-0.000163719139
0.000504177103
-0.000193804184
0.000578124152
-0.000227849988
0.000660549847
-0.000266182393
0.00075196382
-0.000309111827
0.000852792445
-0.000356920076
0.000963344054
-0.000409844644
0.00108376986
-0.000468060988
0.00121402136
-0.000531662832
0.00135380626
-0.000600641857
0.00150254523
-0.000674867164
0.00165933301
-0.000754066826
0.0018229086
-0.000837813466
0.00199164221
-0.000925519559
0.00216358701
-0.00101649314
0.00233645381
-0.00110988729
0.00250762131
-0.00120464582
0.00267429182
-0.00129962927
0.00283368228
-0.0013936958
0.00298324097
-0.00148578006
0.00312072722
-0.00157473304
0.00324431133
-0.00165956333
0.00335174012
-0.00173923933
0.00344143956
-0.00181367015
0.00351447704
-0.00188365253
0.00358059104
-0.00195777529
0.00364377699