/*--------------------------------*- C++ -*----------------------------------*\
  =========                 |
  \\      /  F ield         | OpenFOAM: The Open Source CFD Toolbox
   \\    /   O peration     | Website:  https://openfoam.org
    \\  /    A nd           | Version:  8
     \\/     M anipulation  |
\*---------------------------------------------------------------------------*/
FoamFile
{
    version     2.0;
    format      ascii;
    class       volScalarField;
    location    "0.045";
    object      T;
}
// * * * * * * * * * * * * * * * * * * * * * * * * * * * * * * * * * * * * * //

dimensions      [0 0 0 1 0 0 0];

internalField   nonuniform List<scalar> 
42400
(
472.203087
470.591677
468.938018
467.241222
465.500456
463.71496
461.88406
460.007189
458.083909
456.113935
454.09716
452.033688
449.923866
447.768314
445.567971
443.324123
441.038454
438.713079
436.350586
433.95408
431.527215
429.07423
426.599978
424.109947
421.610274
419.107752
416.609818
414.124536
411.66056
409.227084
406.833778
404.490701
402.208208
399.996836
397.867184
395.829779
393.894941
392.072645
390.372393
388.803112
387.373016
386.089496
384.958946
383.986601
383.176409
382.530903
382.051135
381.736632
381.589108
381.59483
381.753292
382.054596
382.487942
383.038075
383.685663
384.404983
385.162347
385.924634
386.669789
387.40148
387.824501
387.875561
387.580076
386.805136
385.762761
384.362503
382.506319
380.022364
376.798556
372.902605
368.486955
362.982333
357.056248
351.798315
345.379264
337.742487
330.738054
325.653722
319.343682
314.405459
472.237275
470.695019
469.112396
467.488608
465.822926
464.114694
462.363353
460.56846
458.729709
456.846954
454.920243
452.949842
450.936268
448.88033
446.783158
444.646246
442.471492
440.261235
438.0183
435.746031
433.448329
431.129687
428.795214
426.450657
424.102415
421.757537
419.423717
417.109267
414.823081
412.574581
410.373641
408.230502
406.155662
404.159763
402.25345
400.447244
398.751435
397.1759
395.729916
394.421945
393.259413
392.2485
391.393877
390.698505
390.163448
389.787654
389.567567
389.497009
389.5669
389.765656
390.076825
390.479001
390.945529
391.44814
391.961942
392.482891
392.790666
392.827282
392.592861
391.859226
390.905358
389.651752
388.026174
385.896985
383.176066
379.807393
375.754372
371.045722
365.644546
359.632467
353.507221
346.921273
339.799428
333.321378
327.436947
321.156915
315.29324
310.127072
306.123162
302.541594
472.281355
470.828259
469.337215
467.807545
466.238641
464.629983
462.981155
461.291868
459.561978
457.791514
455.980709
454.130022
452.240179
450.312201
448.347444
446.347631
444.314895
442.251816
440.161455
438.047391
435.913754
433.765254
431.607199
429.445519
427.286761
425.138096
423.007293
420.902689
418.833146
416.80798
414.836889
412.929858
411.097066
409.348739
407.694985
406.145615
404.709952
403.396554
402.212932
401.165247
400.258046
399.493975
398.873485
398.394421
398.051763
397.838013
397.741388
397.7446
397.827372
397.967081
398.140938
398.333736
398.397505
398.28721
397.9001
397.157995
396.217642
395.025498
393.51573
391.601158
389.164529
386.161142
382.559878
378.333071
373.507556
368.129948
362.243286
355.95402
349.387807
342.527729
335.831969
329.506308
323.280838
317.429557
312.480064
308.333849
304.861681
301.899472
300.294512
299.928676
472.332106
470.981663
469.59605
468.174716
466.717195
465.223115
463.692222
462.124396
460.519676
458.878286
457.200661
455.487476
453.739681
451.958527
450.145606
448.302879
446.432716
444.537929
442.621797
440.688104
438.741159
436.785814
434.827483
432.87214
430.926318
428.99709
427.092041
425.219231
423.387121
421.6045
419.880371
418.223833
416.643924
415.149412
413.748568
412.448899
411.25686
410.177534
409.214304
408.368493
407.638946
407.021635
406.509727
406.091952
405.753479
405.47769
405.245394
405.038878
404.756215
404.34792
403.755586
402.9078
401.885873
400.655455
399.158107
397.32962
395.066574
392.314202
389.036004
385.205638
380.817543
375.87052
370.409929
364.501846
358.247222
351.770883
345.170463
338.544733
332.099357
325.899062
320.107053
314.945208
310.518773
306.73534
303.846311
301.500662
300.217478
299.949794
299.889519
299.876738
472.385865
471.144152
469.870203
468.563599
467.224015
465.851232
464.445156
463.005841
461.533507
460.02857
458.491663
456.923669
455.325743
453.699347
452.046278
450.368696
448.669152
446.950617
445.216499
443.470668
441.717464
439.96171
438.2087
436.464197
434.734397
433.025897
431.345636
429.700815
428.098797
426.546975
425.052619
423.622676
422.26355
420.980839
419.779049
418.661273
417.628843
416.680963
415.814332
415.023178
414.298574
413.628789
413.000759
412.370974
411.703955
410.959963
410.093889
409.055557
407.885074
406.538924
404.970661
403.126289
400.927064
398.320405
395.269637
391.745534
387.730939
383.220711
378.226085
372.760432
366.880133
360.66649
354.219669
347.651192
341.085278
334.664835
328.515737
322.739264
317.455815
312.792813
308.800367
305.549113
303.074829
301.317541
300.17122
299.931672
299.8766
299.863538
299.861765
299.865943
472.438512
471.303278
470.138674
468.944405
467.720274
466.466199
465.182231
463.868571
462.525592
461.153862
459.754169
458.327539
456.875268
455.398939
453.900448
452.382025
450.84625
449.296069
447.7348
446.16614
444.594155
443.023266
441.458223
439.90406
438.366039
436.84957
435.360108
433.903028
432.483465
431.106138
429.775126
428.493627
427.263673
426.085829
424.958872
423.879457
422.84198
421.838024
420.854459
419.870389
418.860733
417.79685
416.647499
415.410065
414.057093
412.555869
410.868842
408.949852
406.738166
404.195947
401.288331
397.985311
394.264837
390.11472
385.533783
380.532496
375.13448
369.365614
363.280653
356.960899
350.500788
344.01315
337.611546
331.422657
325.557822
320.138205
315.266382
311.040627
307.51035
304.70879
302.61607
301.184445
300.261994
299.966198
299.895351
299.87026
299.865533
299.861076
299.85435
299.844654
472.485385
471.444943
470.377674
469.283381
468.161966
467.013444
465.837961
464.635809
463.407441
462.153495
460.874804
459.572421
458.247631
456.901967
455.537224
454.155462
452.759013
451.350478
449.932714
448.508817
447.082085
445.655979
444.234056
442.819891
441.41698
440.028616
438.657742
437.306777
435.977422
434.670433
433.385366
432.120295
430.871567
429.633491
428.398002
427.153268
425.884383
424.574679
423.205969
421.760073
420.215134
418.545181
416.718716
414.695011
412.440179
409.921511
407.106908
403.967613
400.479727
396.625627
392.395467
387.78849
382.81428
377.493445
371.857297
365.943597
359.805707
353.521377
347.176149
340.869463
334.703567
328.801743
323.27126
318.216079
313.716512
309.849163
306.663335
304.178434
302.366672
301.143448
300.399347
300.025519
299.926025
299.891692
299.87576
299.864651
299.853504
299.839278
299.832885
299.831018
472.521485
471.554045
470.561721
469.544368
468.501934
467.434467
466.342126
465.225197
464.0841
462.919404
461.731832
460.522275
459.291794
458.041623
456.773167
455.487996
454.187825
452.874495
451.549938
450.216128
448.875025
447.528496
446.178225
444.825597
443.471568
442.116511
440.760035
439.400796
438.036292
436.662682
435.274557
433.864776
432.424056
430.940967
429.401681
427.791016
426.091575
424.281758
422.337399
420.233878
417.945198
415.444573
412.705202
409.701146
406.409245
402.810045
398.888893
394.637135
390.053214
385.143573
379.923725
374.418616
368.662976
362.701454
356.583937
350.386465
344.195404
338.104164
332.206582
326.599736
321.384769
316.65823
312.495572
308.95899
306.079951
303.857483
302.24836
301.166299
300.506285
300.154427
299.993361
299.937495
299.905635
299.883106
299.86187
299.843638
299.833611
299.830444
299.830582
299.83089
472.54207
471.616242
470.666607
469.693011
468.69537
467.673675
466.627992
465.558474
464.465359
463.348973
462.209728
461.048121
459.864718
458.66015
457.435115
456.190341
454.926556
453.644447
452.344609
451.027483
449.693275
448.341858
446.972656
445.584504
444.175492
442.742777
441.282315
439.788509
438.253839
436.670416
435.028702
433.317317
431.523176
429.631226
427.624644
425.485009
423.192518
420.726319
418.065011
415.187213
412.072155
408.700922
405.057302
401.128604
396.906621
392.388585
387.578063
382.485786
377.130424
371.539135
365.748227
359.802492
353.752687
347.664467
341.623196
335.721948
330.057134
324.720656
319.804106
315.381994
311.523057
308.268218
305.638792
303.619508
302.158816
301.172496
300.558948
300.209614
300.033049
299.948269
299.90418
299.875635
299.855225
299.841162
299.835141
299.833097
299.831145
299.829309
299.828023
299.827988
472.543584
471.620778
470.67415
469.70346
468.708507
467.689132
466.645214
465.57667
464.48345
463.365526
462.222887
461.055516
459.863375
458.646381
457.404352
456.136994
454.843845
453.524213
452.177094
450.801081
449.394244
447.953981
446.476842
444.95733
443.38926
441.766764
440.082942
438.330067
436.499686
434.58079
432.561022
430.426718
428.162997
425.75393
423.182775
420.432299
417.485166
414.324377
410.934075
407.300298
403.411567
399.259665
394.840458
390.154729
385.209014
380.016411
374.597348
368.980394
363.202929
357.311625
351.36179
345.412486
339.537906
333.824424
328.367652
323.262429
318.593651
314.429875
310.831476
307.823228
305.40312
303.539511
302.176413
301.236569
300.629073
300.260819
300.05128
299.933512
299.873347
299.848887
299.843693
299.840315
299.837938
299.836423
299.835551
299.833931
299.83039
299.827815
299.826811
299.825667
472.526334
471.568624
470.586112
469.578456
468.545315
467.486348
466.401203
465.289507
464.150858
462.984812
461.79087
460.568462
459.316348
458.03256
456.715243
455.362649
453.972662
452.542742
451.069855
449.550414
447.980224
446.354465
444.667686
442.914785
441.089614
439.183825
437.188067
435.092021
432.884395
430.552961
428.084653
425.465722
422.681948
419.718908
416.56229
413.198392
409.614767
405.800651
401.747593
397.450145
392.906607
388.119832
383.098058
377.855768
372.414528
366.803772
361.061586
355.235357
349.381992
343.567459
337.862134
332.346278
327.102456
322.214164
317.762434
313.81328
310.411364
307.578234
305.30899
303.564496
302.275503
301.363233
300.748471
300.35514
300.114286
299.971902
299.888709
299.857189
299.845832
299.841974
299.839874
299.838326
299.83654
299.835432
299.83538
299.834168
299.831228
299.828642
299.828106
299.827958
472.489415
471.457013
470.397736
469.311066
468.196437
467.05322
465.880712
464.677875
463.443076
462.174935
460.871831
459.531857
458.153344
456.734839
455.274183
453.768411
452.214122
450.607426
448.943899
447.218527
445.425629
443.558855
441.611133
439.5746
437.440605
435.199686
432.841609
430.355422
427.729562
424.951986
422.010356
418.892263
415.585533
412.078756
408.36161
404.425367
400.263471
395.872197
391.251369
386.405166
381.342973
376.080276
370.639548
365.051062
359.353508
353.594499
347.830816
342.12786
336.558423
331.199478
326.131156
321.431503
317.168067
313.394072
310.142827
307.432441
305.254403
303.573172
302.328324
301.442503
300.83359
300.429668
300.172051
300.015136
299.924415
299.87768
299.86011
299.851599
299.84487
299.840125
299.836721
299.834341
299.831938
299.831576
299.832591
299.833696
299.832916
299.83014
299.828839
299.829085
472.434165
471.289991
470.115835
468.910933
467.674406
466.405241
465.101741
463.762566
462.386598
460.972023
459.51676
458.018432
456.474329
454.88137
453.236056
451.534422
449.771993
447.943733
446.044036
444.06668
442.004773
439.850767
437.596448
435.232945
432.750767
430.13986
427.389689
424.489367
421.427808
418.19393
414.777041
411.167119
407.355216
403.333932
399.097983
394.644843
389.975472
385.095117
380.01418
374.74911
369.323283
363.767793
358.122055
352.434066
346.760156
341.164577
335.717927
330.494595
325.569214
321.011898
316.885031
313.238791
310.103696
307.485655
305.363186
303.697264
302.438703
301.526305
300.89378
300.47299
300.204027
300.039403
299.944573
299.893738
299.869933
299.858661
299.850033
299.84234
299.836578
299.832789
299.830888
299.83015
299.829084
299.827552
299.827957
299.827675
299.827693
299.825794
299.823892
299.825334
472.365007
471.080948
469.763104
468.410476
467.021897
465.595856
464.131004
462.625561
461.077483
459.484423
457.8437
456.152262
454.406647
452.602948
450.736782
448.80325
446.796914
444.711753
442.541164
440.277946
437.914301
435.441856
432.851689
430.134392
427.280153
424.278872
421.12031
417.794331
414.291181
410.601789
406.718169
402.633889
398.344631
393.848835
389.148419
384.249584
379.163664
373.907993
368.506737
362.991611
357.402384
351.787038
346.201435
340.708311
335.375464
330.273832
325.473199
321.038689
317.024592
313.472007
310.402139
307.821489
305.71545
304.04895
302.769763
301.815254
301.124189
300.643408
300.322024
300.116316
299.992758
299.921685
299.882659
299.861245
299.848165
299.840693
299.835262
299.831555
299.828945
299.826923
299.825394
299.824145
299.822498
299.81967
299.814915
299.812447
299.811902
299.810625
299.812235
299.819996
472.285216
470.839781
469.356229
467.833339
466.269668
464.663551
463.013206
461.316454
459.570787
457.773339
455.920849
454.009627
452.035521
449.993881
447.879537
445.686777
443.40933
441.040358
438.572464
435.997709
433.30765
430.493395
427.545688
424.455024
421.211806
417.806583
414.23029
410.474572
406.532171
402.397402
398.066698
393.539244
388.817688
383.90892
378.824888
373.583417
368.208974
362.733295
357.195775
351.643508
346.130824
340.718221
335.470555
330.454418
325.734708
321.371699
317.415812
313.9021
310.849807
308.260529
306.12114
304.401774
303.059855
302.04486
301.303171
300.778928
300.416018
300.172854
300.011557
299.918989
299.874998
299.854644
299.843804
299.838392
299.836111
299.834308
299.833354
299.830908
299.826892
299.822322
299.817781
299.814009
299.811866
299.811934
299.811701
299.810278
299.809918
299.809689
299.811341
299.818077
472.196843
470.572692
468.905656
467.194299
465.43692
463.631667
461.77635
459.868389
457.904825
455.882285
453.796946
451.644508
449.420161
447.11857
444.733855
442.259588
439.688794
437.013977
434.22715
431.319901
428.283469
425.108868
421.787048
418.309105
414.666533
410.85154
406.857434
402.67908
398.313437
393.760173
389.022346
384.107148
379.026677
373.798695
368.447327
363.003599
357.505748
351.999165
346.535874
341.173417
335.973096
330.99753
326.307601
321.959015
317.998451
314.460911
311.365603
308.718509
306.510643
304.715163
303.29505
302.205055
301.395433
300.815961
300.420138
300.164027
300.00481
299.916185
299.880652
299.867414
299.855403
299.846987
299.841438
299.838922
299.836819
299.834868
299.833553
299.831107
299.827598
299.823314
299.818788
299.814635
299.812295
299.811996
299.812166
299.811853
299.810886
299.81
299.810993
299.813025
472.101207
470.283654
468.418085
466.502902
464.536224
462.515831
460.439142
458.303177
456.104526
453.839314
451.503174
449.091221
446.598038
444.017667
441.343613
438.568864
435.685925
432.686877
429.56346
426.307189
422.909517
419.362029
415.656697
411.786185
407.744223
403.526052
399.128937
394.552756
389.800654
384.87974
379.801818
374.584089
369.24979
363.828678
358.357288
352.878842
347.442735
342.103481
336.919084
331.948816
327.250524
322.877596
318.875868
315.281068
312.116037
309.389072
307.093474
305.207901
303.701338
302.531596
301.651481
301.012155
300.566039
300.268589
300.080387
299.968952
299.918018
299.889426
299.873976
299.862746
299.854291
299.846721
299.840143
299.836741
299.835411
299.834228
299.832508
299.8311
299.828168
299.824482
299.82131
299.818741
299.815742
299.812453
299.810952
299.811803
299.812835
299.815893
299.81369
299.812255
471.999432
469.976067
467.899242
465.767153
463.577654
461.328222
459.015924
456.637382
454.188739
451.665638
449.0632
446.37601
443.598126
440.723084
437.74394
434.653319
431.443494
428.106504
424.634298
421.018932
417.252807
413.32897
409.241464
404.985762
400.55925
395.961794
391.196354
386.269648
381.192837
375.982187
370.659665
365.253395
359.797894
354.334002
348.908415
343.572743
338.38205
333.392902
328.660917
324.238062
320.169828
316.492489
313.231104
310.398142
307.992299
305.997074
304.382679
303.10823
302.130989
301.404543
300.881645
300.517392
300.271782
300.11176
300.010483
299.947752
299.906294
299.879263
299.860632
299.847906
299.840313
299.836549
299.834034
299.832604
299.832204
299.831737
299.82987
299.827967
299.826046
299.823467
299.820974
299.819726
299.818207
299.815553
299.810382
299.808311
299.809787
299.81456
299.819644
299.81653
471.892448
469.652734
467.35383
464.993718
462.569996
460.07984
457.519974
454.886634
452.175553
449.381938
446.500473
443.525322
440.450159
437.268219
433.972363
430.555188
427.009166
423.326823
419.50097
415.524982
411.393137
407.101018
402.645981
398.027679
393.248652
388.314946
383.236767
378.0291
372.712286
367.312459
361.861796
356.398494
350.966388
345.614145
340.393988
335.359954
330.565732
326.062228
321.894782
318.100887
314.707765
311.729792
309.169052
307.014844
305.243546
303.822499
302.712444
301.866689
301.237972
300.783042
300.462499
300.242114
300.093199
299.993406
299.926949
299.881695
299.856381
299.84391
299.837376
299.832749
299.8296
299.827411
299.826823
299.825746
299.823943
299.821553
299.820363
299.81926
299.818061
299.816599
299.815309
299.814712
299.81519
299.817025
299.812872
299.804693
299.802749
299.804956
299.81656
299.820965
471.781331
469.316912
466.78735
464.190416
461.523459
458.783366
455.966542
453.068885
450.085774
447.012074
443.842155
440.569926
437.188902
433.692294
430.073135
426.324448
422.439452
418.411829
414.236039
409.907691
405.42398
400.784187
395.990218
391.047199
385.964083
380.75425
375.43606
370.033292
364.575434
359.097722
353.64087
348.250432
342.975729
337.868335
332.98014
328.361059
324.05659
320.105434
316.536839
313.368741
310.607464
308.248791
306.275937
304.662319
303.372967
302.367149
301.602582
301.037151
300.629878
300.344224
300.149575
300.021023
299.939185
299.889128
299.860269
299.848845
299.842602
299.83778
299.834382
299.832112
299.828721
299.824613
299.820826
299.817531
299.815044
299.81442
299.813408
299.812374
299.811118
299.810872
299.810905
299.811713
299.81239
299.815861
299.816827
299.807871
299.802056
299.798192
299.806544
299.828145
472.594577
471.774765
470.933451
470.070135
469.184295
468.275389
467.342848
466.386079
465.404456
464.397322
463.36398
462.303697
461.215689
460.099129
458.953131
457.776756
456.569
455.328795
454.055006
452.746427
451.401783
450.019729
448.598854
447.137686
445.634699
444.088323
442.496961
440.859003
439.172864
437.43702
435.650056
433.80993
431.914094
429.961096
427.949566
425.878236
423.746606
421.556185
419.308061
417.002374
414.639847
412.221749
409.749854
407.226387
404.653942
402.035358
399.373577
396.67148
393.931694
391.156492
388.348003
385.509327
382.644254
379.731127
376.764689
373.737224
370.634847
367.503837
364.359397
361.228492
358.113795
355.027548
351.967814
348.986445
346.110573
343.356947
340.727752
338.210421
335.784167
333.429792
331.142094
328.941446
326.873913
324.991662
323.320243
321.876149
320.708454
319.896491
319.457668
319.433712
472.591475
471.765357
470.917505
470.047361
469.154348
468.237857
467.297253
466.331865
465.340987
464.323875
463.279741
462.207748
461.107011
459.976588
458.815479
457.622617
456.396873
455.137042
453.841852
452.509954
451.139928
449.730284
448.279466
446.785858
445.2478
443.663604
442.031538
440.349446
438.615192
436.826896
434.982678
433.081438
431.12279
429.105573
427.028915
424.892289
422.695588
420.439172
418.123851
415.750894
413.322089
410.839763
408.306802
405.726632
403.10318
400.440806
397.744198
395.018233
392.267804
389.49761
386.711936
383.914396
381.107427
378.29125
375.465009
372.628237
369.784723
366.901939
363.981917
361.031945
358.115245
355.247232
352.464728
349.744372
347.063294
344.473226
341.985819
339.594566
337.284762
335.036777
332.833758
330.674303
328.577108
326.580457
324.726326
323.058179
321.631368
320.518593
319.783055
319.471174
472.585625
471.747648
470.887564
470.004767
469.098621
468.16846
467.213584
466.233256
465.226698
464.193087
463.131555
462.04118
460.920986
459.769939
458.58694
457.370825
456.120357
454.834228
453.511057
452.149386
450.747684
449.304351
447.817709
446.285912
444.70704
443.079205
441.400517
439.669495
437.884671
436.044401
434.147177
432.191674
430.176793
428.101683
425.965798
423.768951
421.511371
419.193756
416.817317
414.383828
411.895657
409.355792
406.767859
404.136112
401.46541
398.761162
396.029248
393.275896
390.507528
387.730556
384.951131
382.17485
379.406388
376.649112
373.90477
371.173308
368.452792
365.738232
363.027473
360.338278
357.655607
355.001804
352.404703
349.899491
347.511959
345.18658
342.865913
340.651437
338.51572
336.434545
334.387039
332.361479
330.360003
328.397385
326.502522
324.717831
323.099854
321.71741
320.642263
319.953399
472.576909
471.721284
470.84304
469.941525
469.016059
468.065924
467.090368
466.088598
465.059777
464.003024
462.917408
461.801945
460.655594
459.477257
458.26577
457.019906
455.738366
454.419782
453.06271
451.665635
450.226971
448.745067
447.218225
445.644811
444.023181
442.351599
440.628349
438.85176
437.020232
435.132264
433.186495
431.181742
429.117052
426.991747
424.805477
422.558276
420.250611
417.883444
415.458275
412.977194
410.442919
407.85883
405.228982
402.558118
399.851645
397.115604
394.356597
391.581695
388.798298
386.013956
383.236135
380.471942
377.727787
375.009008
372.319475
369.661186
367.033923
364.435017
361.859216
359.313985
356.809893
354.35995
351.981156
349.673897
347.471749
345.371249
343.390582
341.399579
339.466569
337.588045
335.749285
333.924068
332.093842
330.256342
328.428219
326.636699
324.928439
323.366618
322.023874
320.977671
472.565164
471.685769
470.7831
469.856468
468.905155
467.928406
466.925432
465.895402
464.837443
463.750638
462.634022
461.486583
460.307259
459.094934
457.84844
456.566552
455.247989
453.891414
452.495436
451.058612
449.579452
448.056424
446.48796
444.87247
443.208351
441.494007
439.727866
437.908403
436.034173
434.103836
432.116199
430.070253
427.965213
425.800574
423.57615
421.292137
418.949156
416.548314
414.09125
411.58019
409.017982
406.408141
403.754868
401.063068
398.338345
395.586981
392.815888
390.032528
387.244808
384.460918
381.689134
378.937559
376.213809
373.524647
370.875569
368.270362
365.710668
363.195666
360.721933
358.288074
355.906231
353.588577
351.347478
349.194269
347.143385
345.208913
343.448063
341.766475
340.123233
338.443485
336.774652
335.129573
333.493487
331.851755
330.195787
328.530433
326.880249
325.286586
323.809851
322.512942
472.550174
471.640461
470.706667
469.74808
468.763959
467.753532
466.715994
465.650502
464.556177
463.432103
462.277322
461.090839
459.871619
458.618583
457.330615
456.006556
454.645203
453.245319
451.805622
450.324798
448.801502
447.234359
445.621978
443.96296
442.255904
440.499432
438.692196
436.832906
434.920351
432.953426
430.931166
428.852778
426.717679
424.525542
422.276336
419.970376
417.608374
415.191485
412.721364
410.200209
407.630813
405.016598
402.361655
399.670765
396.949411
394.203769
391.440686
388.667624
385.892577
383.123948
380.370385
377.640561
374.942904
372.285266
369.674541
367.116252
364.614115
362.169673
359.782075
357.448009
355.172744
352.970675
350.857251
348.850965
346.978424
345.190905
343.459309
341.7538
340.172663
338.706944
337.295106
335.907215
334.520205
333.116154
331.683963
330.221877
328.737529
327.250612
325.795742
324.419757
472.531678
471.584571
470.612417
469.614494
468.59006
467.538341
466.458539
465.349824
464.211338
463.042193
461.841474
460.608237
459.341512
458.040304
456.703594
455.33034
453.919478
452.469924
450.980577
449.450322
447.878033
446.262581
444.602835
442.897675
441.145999
439.346737
437.49886
435.601401
433.65347
431.654276
429.603154
427.499588
425.343246
423.134014
420.87203
418.557729
416.191885
413.775651
411.310607
408.798816
406.242861
403.645899
401.011696
398.344663
395.649883
392.933119
390.200816
387.460068
384.718569
381.984525
379.266531
376.573395
373.913922
371.296637
368.729467
366.219372
363.771966
361.391144
359.078831
356.834904
354.657261
352.553614
350.537822
348.622913
346.794562
345.041361
343.412062
341.924206
340.488243
339.114962
337.808819
336.557443
335.339155
334.130009
332.909425
331.663547
330.386339
329.081588
327.765584
326.473307
472.509398
471.517254
470.498918
469.453674
468.380786
467.279498
466.149036
464.988601
463.797379
462.574534
461.319219
460.030573
458.707726
457.349801
455.955919
454.525197
453.056759
451.549731
450.003248
448.416459
446.788528
445.118638
443.406
441.649856
439.849485
438.004212
436.113419
434.176551
432.193133
430.162779
428.085208
425.960269
423.787957
421.568437
419.302077
416.989469
414.631478
412.229267
409.784336
407.298572
404.774278
402.214225
399.621703
397.00056
394.355243
391.690825
389.013024
386.328207
383.643365
380.966073
378.304397
375.66678
373.06187
370.49831
367.984468
365.52812
363.136054
360.813584
358.564057
356.388649
354.286514
352.255031
350.313853
348.448009
346.681028
345.029722
343.474446
342.018562
340.664181
339.395436
338.200983
337.069624
335.986845
334.93475
333.894333
332.848022
331.782474
330.690337
329.56887
328.444391
472.483078
471.437735
470.364857
469.263738
468.133662
466.973898
465.783704
464.562329
463.309013
462.022994
460.703508
459.349798
457.961116
456.536731
455.075929
453.578024
452.042358
450.468308
448.85529
447.202761
445.510228
443.777247
442.003429
440.188446
438.332031
436.433985
434.494181
432.512567
430.489176
428.424125
426.317626
424.169997
421.981665
419.753187
417.48526
415.178738
412.834663
410.454285
408.039086
405.590831
403.111577
400.603731
398.070068
395.513793
392.938583
390.348628
387.74867
385.144027
382.540603
379.944884
377.363903
374.805183
372.276633
369.786412
367.342704
364.953411
362.625733
360.366053
358.181627
356.072998
354.05608
352.127403
350.276996
348.495834
346.79804
345.19297
343.683771
342.272367
340.959632
339.740696
338.607393
337.549754
336.555961
335.612177
334.703003
333.81228
332.925172
332.029311
331.097122
330.169342
472.452619
471.345713
470.209718
469.043939
467.847678
466.620233
465.3609
464.068978
462.743769
461.384586
459.99076
458.561645
457.096628
455.595131
454.056624
452.480629
450.866728
449.214568
447.52387
445.79443
444.026127
442.218927
440.372887
438.488155
436.564973
434.603681
432.604713
430.5686
428.495968
426.387534
424.244109
422.066589
419.855963
417.613308
415.339791
413.036676
410.705326
408.34722
405.96396
403.557308
401.129194
398.68177
396.217412
393.738767
391.248787
388.750782
386.248469
383.746006
381.248027
378.759659
376.286522
373.834709
371.410734
369.021459
366.673992
364.375565
362.133425
359.954845
357.850341
355.830907
353.896819
352.052425
350.294048
348.606457
346.993367
345.45714
344.005388
342.642749
341.371386
340.190448
339.096205
338.082571
337.141491
336.26318
335.436365
334.648423
333.886346
333.137067
332.365784
331.606872
472.418186
471.241684
470.034324
468.795419
467.524286
466.220244
464.882624
463.510767
462.104035
460.661814
459.183525
457.66863
456.116646
454.527151
452.899795
451.234309
449.530517
447.78834
446.007809
444.189069
442.332388
440.438159
438.506905
436.539281
434.536078
432.498214
430.426739
428.322823
426.187756
424.022933
421.829845
419.610072
417.365266
415.097142
412.80747
410.498062
408.170762
405.827448
403.470028
401.100439
398.720663
396.332753
393.938852
391.541223
389.142269
386.744583
384.350996
381.964624
379.588908
377.227659
374.885089
372.565828
370.274909
368.017732
365.8
363.627631
361.506605
359.44258
357.438469
355.49793
353.646748
351.883289
350.208337
348.619295
347.115936
345.682383
344.323267
343.038913
341.832077
340.705296
339.658328
338.688649
337.791856
336.961964
336.191592
335.472051
334.793523
334.144989
333.510829
332.882214
472.380349
471.127362
469.84156
468.522249
467.168749
465.780391
464.356526
462.89653
461.39981
459.865813
458.294039
456.684046
455.03547
453.348031
451.621548
449.855951
448.051292
446.207761
444.325689
442.405565
440.44804
438.453932
436.424238
434.360128
432.26295
430.134226
427.975645
425.789056
423.576455
421.339967
419.081833
416.804387
414.510032
412.201218
409.880415
407.550088
405.212679
402.870586
400.526154
398.18166
395.839312
393.501261
391.169592
388.846361
386.533617
384.23344
381.947985
379.67953
377.430521
375.203617
373.001719
370.828013
368.685997
366.579505
364.512674
362.489906
360.515836
358.595335
356.733535
354.935805
353.196042
351.523789
349.924024
348.418063
347.00178
345.670375
344.420599
343.250147
342.14622
341.112566
340.150214
339.25782
338.432334
337.669431
336.965707
336.316364
335.715339
335.15524
334.627323
334.119159
472.340173
471.005962
469.636836
468.232081
466.791002
465.312925
463.797206
462.243237
460.650453
459.018344
457.34647
455.634468
453.882073
452.089127
450.255599
448.3816
446.467394
444.513418
442.52029
440.488825
438.420048
436.315196
434.175729
432.003331
429.799913
427.567605
425.308753
423.025903
420.721784
418.399286
416.061434
413.711352
411.352238
408.987328
406.619862
404.253041
401.889994
399.533739
397.187152
394.852944
392.533638
390.23159
387.948951
385.687689
383.449612
381.236403
379.049665
376.890977
374.761956
372.664327
370.599982
368.571014
366.579717
364.628626
362.720524
360.85842
359.04547
357.284902
355.579949
353.933936
352.350165
350.832596
349.385044
347.99926
346.683232
345.441613
344.289251
343.218004
342.215315
341.282119
340.418803
339.624947
338.899666
338.241991
337.651191
337.126733
336.668236
336.273749
335.932494
335.59533
472.299303
470.882461
469.428546
467.936807
466.406518
464.836984
463.227548
461.577597
459.886578
458.154006
456.379478
454.562693
452.703462
450.801733
448.857606
446.871348
444.843421
442.774489
440.665444
438.517414
436.331784
434.110201
431.854584
429.567129
427.250307
424.906858
422.539784
420.152328
417.747957
415.330331
412.903276
410.470737
408.03674
405.605342
403.18059
400.766457
398.366795
395.985288
393.625399
391.290335
388.983012
386.706054
384.461764
382.252127
380.078825
377.943265
375.846625
373.789896
371.773953
369.799621
367.867755
365.979339