/*--------------------------------*- C++ -*----------------------------------*\
  =========                 |
  \\      /  F ield         | OpenFOAM: The Open Source CFD Toolbox
   \\    /   O peration     | Website:  https://openfoam.org
    \\  /    A nd           | Version:  8
     \\/     M anipulation  |
\*---------------------------------------------------------------------------*/
FoamFile
{
    version     2.0;
    format      ascii;
    class       volScalarField;
    location    "0.026";
    object      p_rgh;
}
// * * * * * * * * * * * * * * * * * * * * * * * * * * * * * * * * * * * * * //

dimensions      [1 -1 -2 0 0 0 0];

internalField   nonuniform List<scalar> 
42400
(
101359.995
101359.983
101359.971
101359.961
101359.952
101359.944
101359.937
101359.932
101359.928
101359.926
101359.925
101359.926
101359.928
101359.932
101359.937
101359.944
101359.952
101359.963
101359.975
101359.988
101360.003
101360.02
101360.039
101360.06
101360.082
101360.106
101360.132
101360.16
101360.189
101360.221
101360.254
101360.29
101360.328
101360.367
101360.409
101360.453
101360.5
101360.556
101360.624
101360.699
101360.763
101360.817
101360.871
101360.931
101361.004
101361.094
101361.191
101361.296
101361.407
101361.528
101361.658
101361.81
101361.986
101362.17
101362.35
101362.555
101362.8
101363.074
101363.373
101363.701
101364.062
101364.459
101364.9
101365.387
101365.91
101366.455
101367.044
101367.717
101368.211
101368.84
101370.093
101370.74
101369.362
101371.606
101374.58
101374.817
101373.247
101370.051
101370.61
101372.928
101359.534
101359.525
101359.515
101359.507
101359.5
101359.494
101359.489
101359.485
101359.482
101359.481
101359.481
101359.482
101359.484
101359.488
101359.494
101359.5
101359.509
101359.518
101359.529
101359.542
101359.556
101359.572
101359.589
101359.607
101359.627
101359.649
101359.672
101359.697
101359.723
101359.75
101359.78
101359.81
101359.842
101359.876
101359.917
101359.966
101360.019
101360.062
101360.094
101360.127
101360.171
101360.226
101360.286
101360.349
101360.417
101360.488
101360.56
101360.647
101360.751
101360.871
101360.982
101361.086
101361.223
101361.388
101361.57
101361.767
101361.989
101362.238
101362.524
101362.852
101363.226
101363.643
101364.104
101364.62
101365.206
101365.852
101366.547
101367.425
101368.228
101368.842
101370.251
101371.558
101371.634
101372.551
101372.414
101373.897
101378.11
101381.247
101384.607
101385.722
101358.916
101358.909
101358.901
101358.895
101358.89
101358.885
101358.882
101358.88
101358.878
101358.878
101358.879
101358.882
101358.885
101358.89
101358.896
101358.903
101358.912
101358.922
101358.933
101358.946
101358.96
101358.976
101358.993
101359.011
101359.031
101359.052
101359.075
101359.098
101359.123
101359.149
101359.178
101359.212
101359.25
101359.29
101359.324
101359.349
101359.375
101359.409
101359.453
101359.498
101359.545
101359.596
101359.647
101359.698
101359.762
101359.848
101359.922
101359.982
101360.06
101360.159
101360.274
101360.394
101360.526
101360.674
101360.845
101361.043
101361.275
101361.54
101361.842
101362.189
101362.588
101363.05
101363.579
101364.18
101364.864
101365.632
101366.445
101367.416
101368.516
101369.417
101370.62
101372.152
101373.438
101375.61
101378.774
101381.334
101382.585
101385.417
101387.168
101388.831
101358.175
101358.169
101358.163
101358.159
101358.155
101358.152
101358.15
101358.149
101358.149
101358.15
101358.153
101358.156
101358.161
101358.167
101358.174
101358.183
101358.193
101358.205
101358.218
101358.232
101358.248
101358.265
101358.284
101358.304
101358.326
101358.349
101358.374
101358.401
101358.431
101358.463
101358.494
101358.522
101358.549
101358.578
101358.612
101358.653
101358.694
101358.737
101358.782
101358.827
101358.869
101358.923
101358.996
101359.056
101359.099
101359.163
101359.243
101359.325
101359.412
101359.509
101359.619
101359.745
101359.891
101360.058
101360.249
101360.47
101360.728
101361.032
101361.388
101361.804
101362.291
101362.855
101363.505
101364.25
101365.101
101366.07
101367.129
101368.365
101369.74
101370.927
101372.63
101375.453
101377.506
101379.179
101381.008
101383.474
101385.827
101387.315
101388.824
101390.714
101357.325
101357.32
101357.315
101357.311
101357.308
101357.306
101357.305
101357.305
101357.306
101357.309
101357.312
101357.317
101357.324
101357.332
101357.341
101357.352
101357.364
101357.378
101357.394
101357.411
101357.43
101357.449
101357.471
101357.494
101357.52
101357.548
101357.577
101357.607
101357.639
101357.671
101357.707
101357.746
101357.786
101357.827
101357.87
101357.914
101357.959
101358.001
101358.053
101358.123
101358.179
101358.219
101358.278
101358.35
101358.422
101358.497
101358.58
101358.673
101358.777
101358.894
101359.027
101359.177
101359.352
101359.557
101359.799
101360.083
101360.415
101360.805
101361.259
101361.785
101362.404
101363.115
101363.936
101364.859
101365.894
101366.96
101367.787
101369.039
101371.512
101374.489
101376.268
101377.183
101379.139
101381.377
101383.031
101384.679
101386.832
101388.886
101390.803
101392.455
101356.368
101356.363
101356.358
101356.355
101356.352
101356.351
101356.351
101356.352
101356.353
101356.357
101356.362
101356.368
101356.376
101356.386
101356.397
101356.411
101356.426
101356.442
101356.46
101356.48
101356.504
101356.53
101356.558
101356.588
101356.62
101356.654
101356.69
101356.728
101356.767
101356.809
101356.851
101356.896
101356.943
101356.991
101357.036
101357.09
101357.161
101357.218
101357.261
101357.321
101357.393
101357.463
101357.536
101357.616
101357.702
101357.797
101357.901
101358.018
101358.15
101358.304
101358.481
101358.689
101358.933
101359.22
101359.554
101359.945
101360.399
101360.923
101361.532
101362.217
101363.022
101363.917
101364.954
101365.942
101367.192
101369.245
101372.172
101374.494
101375.216
101375.642
101376.97
101379.203
101381.663
101383.897
101386.074
101388.18
101389.746
101391.204
101392.96
101395.28
101355.29
101355.285
101355.281
101355.277
101355.275
101355.275
101355.275
101355.277
101355.28
101355.285
101355.291
101355.299
101355.308
101355.32
101355.335
101355.351
101355.37
101355.391
101355.416
101355.443
101355.471
101355.501
101355.534
101355.569
101355.607
101355.647
101355.689
101355.733
101355.78
101355.83
101355.88
101355.929
101355.986
101356.058
101356.118
101356.167
101356.23
101356.304
101356.376
101356.451
101356.53
101356.615
101356.707
101356.806
101356.917
101357.041
101357.182
101357.344
101357.531
101357.75
101358.007
101358.309
101358.662
101359.074
101359.553
101360.105
101360.737
101361.451
101362.275
101363.148
101364.127
101365.13
101366.691
101369.472
101371.501
101372.559
101373.632
101375.079
101376.932
101378.827
101380.489
101382.063
101383.846
101385.656
101387.265
101388.869
101390.828
101393.062
101395.241
101397.231
101354.064
101354.059
101354.055
101354.052
101354.051
101354.051
101354.053
101354.056
101354.061
101354.068
101354.077
101354.089
101354.103
101354.119
101354.137
101354.157
101354.18
101354.205
101354.233
101354.264
101354.298
101354.334
101354.373
101354.415
101354.459
101354.506
101354.556
101354.608
101354.66
101354.718
101354.79
101354.852
101354.905
101354.972
101355.047
101355.122
101355.199
101355.28
101355.365
101355.457
101355.555
101355.663
101355.781
101355.913
101356.063
101356.235
101356.433
101356.664
101356.935
101357.254
101357.627
101358.062
101358.568
101359.152
101359.823
101360.588
101361.447
101362.406
101363.505
101364.733
101366.051
101367.905
101369.565
101370.511
101371.731
101373.76
101375.293
101376.501
101377.707
101379.318
101381.369
101382.997
101384.822
101386.85
101388.934
101391.011
101392.778
101394.815
101396.848
101398.386
101352.665
101352.661
101352.658
101352.657
101352.657
101352.659
101352.663
101352.669
101352.677
101352.688
101352.7
101352.715
101352.732
101352.752
101352.775
101352.8
101352.828
101352.859
101352.893
101352.93
101352.97
101353.013
101353.059
101353.108
101353.16
101353.211
101353.27
101353.34
101353.404
101353.46
101353.529
101353.605
101353.682
101353.761
101353.843
101353.931
101354.023
101354.122
101354.228
101354.344
101354.471
101354.612
101354.772
101354.954
101355.164
101355.408
101355.692
101356.025
101356.415
101356.869
101357.395
101358.003
101358.702
101359.502
101360.405
101361.422
101362.535
101363.754
101365.024
101366.464
101367.856
101369.127
101370.602
101371.834
101372.973
101374.413
101376.266
101378.187
101379.882
101381.665
101383.465
101385.184
101387.277
101389.486
101391.49
101393.013
101394.508
101396.41
101398.224
101400.09
101351.067
101351.065
101351.065
101351.066
101351.069
101351.075
101351.082
101351.092
101351.104
101351.118
101351.135
101351.155
101351.177
101351.203
101351.232
101351.263
101351.298
101351.336
101351.377
101351.422
101351.47
101351.519
101351.572
101351.632
101351.701
101351.763
101351.821
101351.892
101351.969
101352.047
101352.128
101352.213
101352.302
101352.396
101352.497
101352.604
101352.719
101352.844
101352.982
101353.135
101353.307
101353.502
101353.726
101353.983
101354.281
101354.626
101355.027
101355.491
101356.021
101356.625
101357.306
101358.077
101358.944
101359.917
101361.001
101362.173
101363.453
101364.771
101366.209
101367.687
101369.283
101370.714
101371.828
101373.519
101375.791
101377.167
101378.355
101379.806
101381.629
101383.683
101385.58
101387.687
101389.212
101390.527
101392.586
101395.045
101396.697
101398.2
101400.36
101402.949
101349.238
101349.24
101349.243
101349.248
101349.256
101349.265
101349.278
101349.293
101349.31
101349.33
101349.354
101349.38
101349.41
101349.443
101349.479
101349.519
101349.562
101349.609
101349.658
101349.712
101349.774
101349.837
101349.897
101349.963
101350.036
101350.114
101350.194
101350.277
101350.364
101350.456
101350.553
101350.656
101350.766
101350.883
101351.009
101351.147
101351.298
101351.467
101351.655
101351.869
101352.113
101352.392
101352.712
101353.081
101353.506
101353.993
101354.548
101355.173
101355.873
101356.65
101357.496
101358.404
101359.389
101360.363
101361.549
101363.137
101364.867
101366.56
101368.043
101369.55
101371.322
101373.051
101374.593
101375.884
101376.837
101378.286
101380.311
101382.203
101383.792
101385.263
101387.259
101389.276
101390.909
101392.661
101394.395
101396.19
101397.974
101399.668
101401.723
101403.75
101347.15
101347.157
101347.165
101347.176
101347.189
101347.206
101347.224
101347.246
101347.271
101347.3
101347.331
101347.366
101347.405
101347.447
101347.494
101347.543
101347.597
101347.658
101347.719
101347.781
101347.85
101347.925
101348.003
101348.085
101348.17
101348.26
101348.355
101348.455
101348.561
101348.673
101348.792
101348.92
101349.059
101349.211
101349.378
101349.564
101349.773
101350.008
101350.276
101350.582
101350.932
101351.333
101351.79
101352.311
101352.902
101353.565
101354.304
101355.12
101356.018
101357.005
101358.046
101359.146
101360.718
101362.942
101364.636
101365.851
101367.057
101368.545
101370.043
101371.364
101372.659
101374.024
101375.407
101376.706
101378.287
101379.985
101381.331
101382.879
101385.079
101387.207
101388.574
101390.26
101392.206
101393.666
101395.29
101397.571
101399.829
101401.659
101403.402
101404.95
101344.765
101344.777
101344.793
101344.811
101344.832
101344.856
101344.884
101344.915
101344.949
101344.987
101345.029
101345.075
101345.124
101345.178
101345.238
101345.3
101345.364
101345.434
101345.51
101345.589
101345.672
101345.759
101345.852
101345.948
101346.05
101346.158
101346.272
101346.393
101346.522
101346.661
101346.811
101346.976
101347.157
101347.359
101347.585
101347.841
101348.132
101348.464
101348.842
101349.275
101349.769
101350.331
101350.967
101351.683
101352.485
101353.378
101354.365
101355.445
101356.624
101357.915
101359.236
101360.663
101362.208
101363.331
101364.265
101365.549
101367.039
101368.476
101370.002
101371.632
101373.368
101375.119
101376.881
101378.662
101380.26
101381.774
101383.385
101384.97
101386.421
101388.059
101390.023
101391.609
101393.561
101396.182
101398.548
101400.32
101402.114
101404.363
101407.168
101408.402
101342.043
101342.063
101342.088
101342.116
101342.146
101342.18
101342.218
101342.26
101342.305
101342.355
101342.409
101342.469
101342.531
101342.596
101342.668
101342.744
101342.824
101342.909
101342.998
101343.092
101343.191
101343.295
101343.404
101343.519
101343.641
101343.771
101343.909
101344.058
101344.219
101344.394
101344.588
101344.803
101345.044
101345.315
101345.622
101345.97
101346.366
101346.816
101347.327
101347.904
101348.554
101349.281
101350.089
101350.981
101351.953
101353.003
101354.129
101355.321
101356.568
101357.863
101359.248
101360.626
101361.777
101363.115
101364.692
101366.176
101367.86
101369.467
101371.099
101372.738
101374.377
101375.903
101377.61
101379.431
101381.165
101383.183
101385.17
101386.959
101388.677
101390.502
101392.495
101394.677
101396.686
101398.386
101400.627
101403.1
101404.886
101406.77
101408.903
101410.885
101338.95
101338.98
101339.016
101339.055
101339.097
101339.143
101339.193
101339.248
101339.307
101339.37
101339.437
101339.51
101339.587
101339.669
101339.756
101339.847
101339.943
101340.044
101340.151
101340.263
101340.38
101340.504
101340.636
101340.775
101340.924
101341.084
101341.257
101341.446
101341.654
101341.884
101342.141
101342.429
101342.753
101343.12
101343.535
101344.004
101344.534
101345.129
101345.797
101346.54
101347.364
101348.27
101349.261
101350.335
101351.489
101352.721
101354.036
101355.437
101356.901
101358.391
101359.886
101361.359
101362.656
101364.001
101365.639
101367.562
101369.294
101370.802
101372.401
101374.032
101375.71
101377.263
101378.8
101380.564
101382.292
101384.118
101386.065
101388.167
101390.319
101392.565
101394.865
101396.667
101398.663
101400.87
101402.8
101405.335
101407.641
101409.471
101411.353
101413.828
101335.457
101335.499
101335.549
101335.601
101335.657
101335.717
101335.782
101335.851
101335.925
101336.004
101336.088
101336.177
101336.271
101336.37
101336.474
101336.584
101336.7
101336.822
101336.95
101337.086
101337.229
101337.382
101337.546
101337.722
101337.913
101338.122
101338.351
101338.604
101338.887
101339.203
101339.558
101339.957
101340.406
101340.912
101341.479
101342.114
101342.819
101343.6
101344.458
101345.395
101346.408
101347.497
101348.653
101349.877
101351.127
101352.348
101353.791
101355.598
101357.423
101359.186
101360.947
101362.888
101364.951
101366.717
101367.949
101368.852
101370.375
101372.611
101374.299
101375.676
101377.154
101378.616
101379.984
101381.548
101383.312
101384.819
101386.863
101389.821
101392.731
101394.92
101396.493
101398.19
101400.026
101402.399
101405.057
101406.791
101409.064
101412.054
101413.708
101415.87
101331.55
101331.605
101331.67
101331.738
101331.809
101331.885
101331.966
101332.052
101332.143
101332.24
101332.341
101332.449
101332.562
101332.681
101332.807
101332.94
101333.08
101333.228
101333.386
101333.555
101333.736
101333.931
101334.143
101334.375
101334.63
101334.912
101335.226
101335.577
101335.97
101336.411
101336.906
101337.46
101338.079
101338.767
101339.53
101340.369
101341.286
101342.282
101343.355
101344.501
101345.704
101346.959
101348.324
101350.026
101352.215
101354.68
101356.871
101358.475
101359.816
101361.036
101362.223
101363.471
101364.739
101366.067
101368.124
101370.389
101371.536
101372.347
101373.671
101375.648
101377.986
101380.081
101381.97
101383.848
101385.855
101388.572
101391.044
101392.18
101392.908
101394.608
101397.811
101400.495
101403.395
101405.623
101407.556
101410.464
101412.399
101413.881
101415.697
101417.591
101327.223
101327.293
101327.375
101327.459
101327.547
101327.639
101327.737
101327.84
101327.949
101328.064
101328.184
101328.311
101328.445
101328.587
101328.737
101328.896
101329.065
101329.246
101329.441
101329.652
101329.882
101330.134
101330.412
101330.72
101331.062
101331.446
101331.875
101332.356
101332.896
101333.5
101334.176
101334.928
101335.761
101336.68
101337.689
101338.789
101339.983
101341.271
101342.654
101344.129
101345.681
101347.34
101349.417
101351.626
101353.073
101354.224
101355.359
101356.576
101358.087
101359.81
101361.659
101363.622
101365.697
101367.496
101369.004
101370.569
101372.304
101374.531
101376.905
101378.37
101379.731
101381.962
101384.768
101387.281
101389.919
101391.652
101392.844
101394.912
101398.22
101400.501
101402.121
101404.191
101406.358
101408.521
101410.066
101411.312
101413.445
101416.138
101417.889
101418.751
101322.507
101322.592
101322.692
101322.793
101322.896
101323.005
101323.119
101323.238
101323.364
101323.495
101323.634
101323.78
101323.935
101324.1
101324.275
101324.464
101324.667
101324.888
101325.129
101325.394
101325.687
101326.012
101326.375
101326.782
101327.237
101327.749
101328.323
101328.965
101329.682
101330.479
101331.361
101332.332
101333.393
101334.546
101335.789
101337.12
101338.533
101340.021
101341.572
101343.175
101344.823
101346.493
101348.223
101349.618
101351.057
101352.902
101354.799
101356.708
101358.616
101360.452
101362.184
101364.094
101366.33
101368.582
101370.375
101372.042
101373.804
101375.895
101378.672
101381.119
101383.001
101385.133
101387.497
101389.713
101391.684
101393.486
101395.486
101397.844
101399.799
101401.421
101403.546
101406.219
101408.163
101409.841
101412.352
101415.222
101417.087
101418.711
101420.401
101422.341
101317.501
101317.602
101317.719
101317.835
101317.954
101318.078
101318.206
101318.341
101318.482
101318.63
101318.786
101318.952
101319.128
101319.318
101319.522
101319.744
101319.986
101320.253
101320.548
101320.875
101321.241
101321.651
101322.11
101322.625
101323.202
101323.848
101324.568
101325.366
101326.249
101327.219
101328.277
101329.426
101330.663
101331.988
101333.398
101334.888
101336.455
101338.094
101339.777
101341.526
101343.373
101345.713
101348.158
101350.191
101352.104
101354.005
101355.929
101357.841
101359.74
101361.575
101363.438
101365.667
101368.091
101369.965
101371.804
101373.992
101376.271
101378.658
101380.314
101381.957
101384.381
101386.69
101389.013
101391.283
101393.492
101395.842
101397.809
101399.537
101401.645
101404.642
101407.039
101408.769
101410.891
101413.574
101415.526
101417.316
101419.514
101421.503
101423.347
101425.134
101342.991
101342.997
101343.002
101343.004
101343.005
101343.004
101343.001
101342.996
101342.989
101342.979
101342.968
101342.954
101342.937
101342.919
101342.897
101342.873
101342.847
101342.817
101342.784
101342.749
101342.71
101342.667
101342.621
101342.571
101342.517
101342.459
101342.397
101342.33
101342.258
101342.181
101342.099
101342.011
101341.917
101341.817
101341.71
101341.597
101341.476
101341.347
101341.21
101341.065
101340.911
101340.748
101340.574
101340.391
101340.196
101339.99
101339.774
101339.543
101339.3
101339.043
101338.77
101338.48
101338.171
101337.843
101337.492
101337.118
101336.718
101336.288
101335.826
101335.326
101334.784
101334.194
101333.55
101332.842
101332.063
101331.206
101330.266
101329.239
101328.123
101326.949
101325.681
101324.321
101322.837
101321.148
101319.203
101316.889
101314.558
101312.273
101309.821
101307.062
101342.996
101343.002
101343.008
101343.011
101343.012
101343.012
101343.009
101343.004
101342.997
101342.988
101342.977
101342.963
101342.946
101342.927
101342.906
101342.882
101342.855
101342.825
101342.791
101342.755
101342.715
101342.672
101342.624
101342.573
101342.518
101342.459
101342.395
101342.326
101342.252
101342.173
101342.089
101341.998
101341.902
101341.798
101341.689
101341.572
101341.447
101341.315
101341.174
101341.025
101340.867
101340.699
101340.521
101340.333
101340.135
101339.925
101339.703
101339.468
101339.214
101338.948
101338.672
101338.379
101338.066
101337.733
101337.378
101336.998
101336.59
101336.151
101335.676
101335.16
101334.596
101333.977
101333.293
101332.532
101331.681
101330.724
101329.648
101328.441
101327.247
101326.039
101324.586
101322.833
101321.127
101319.42
101317.109
101314.538
101312.162
101309.289
101306.284
101303.457
101343.284
101343.291
101343.297
101343.301
101343.303
101343.303
101343.301
101343.297
101343.291
101343.283
101343.272
101343.26
101343.244
101343.227
101343.206
101343.183
101343.157
101343.129
101343.097
101343.062
101343.024
101342.982
101342.936
101342.887
101342.834
101342.776
101342.714
101342.648
101342.576
101342.5
101342.418
101342.33
101342.236
101342.136
101342.029
101341.916
101341.795
101341.666
101341.529
101341.384
101341.229
101341.065
101340.892
101340.708
101340.513
101340.307
101340.089
101339.859
101339.616
101339.358
101339.083
101338.791
101338.481
101338.151
101337.8
101337.426
101337.026
101336.597
101336.136
101335.636
101335.092
101334.498
101333.843
101333.109
101332.283
101331.36
101330.336
101329.173
101327.729
101325.882
101324.278
101322.932
101321.151
101318.718
101316.5
101314.295
101311.02
101308.026
101305.35
101301.781
101343.837
101343.844
101343.85
101343.855
101343.858
101343.859
101343.858
101343.855
101343.851
101343.844
101343.835
101343.824
101343.81
101343.795
101343.776
101343.756
101343.732
101343.706
101343.677
101343.645
101343.61
101343.572
101343.53
101343.484
101343.435
101343.382
101343.325
101343.263
101343.197
101343.126
101343.05
101342.969
101342.882
101342.789
101342.69
101342.585
101342.472
101342.353
101342.227
101342.093
101341.951
101341.8
101341.641
101341.472
101341.294
101341.107
101340.909
101340.7
101340.48
101340.247
101340
101339.735
101339.451
101339.144
101338.816
101338.466
101338.084
101337.666
101337.208
101336.702
101336.141
101335.534
101334.893
101334.189
101333.378
101332.43
101331.401
101330.373
101329.264
101327.907
101325.972
101323.73
101321.919
101320.089
101317.381
101314.403
101311.841
101308.57
101304.833
101301.836
101344.65
101344.657
101344.665
101344.67
101344.674
101344.676
101344.676
101344.675
101344.672
101344.667
101344.661
101344.652
101344.641
101344.629
101344.614
101344.597
101344.577
101344.555
101344.531
101344.504
101344.474
101344.441
101344.405
101344.366
101344.324
101344.278
101344.228
101344.175
101344.117
101344.055
101343.989
101343.918
101343.842
101343.761
101343.674
101343.582
101343.483
101343.379
101343.267
101343.149
101343.024
101342.891
101342.75
101342.601
101342.444
101342.277
101342.102
101341.917
101341.722
101341.517
101341.3
101341.069
101340.823
101340.559
101340.277
101339.979
101339.658
101339.311
101338.931
101338.512
101338.048
101337.506
101336.86
101336.148
101335.37
101334.51
101333.489
101332.21
101330.776
101329.472
101328.307
101326.925
101324.796
101322.121
101319.749
101316.995
101313.097
101309.704
101306.201
101302.76
101345.68
101345.688
101345.695
101345.701
101345.706
101345.709
101345.711
101345.712
101345.711
101345.708
101345.704
101345.699
101345.691
101345.682
101345.671
101345.658
101345.643
101345.626
101345.607
101345.586
101345.562
101345.536
101345.508
101345.476
101345.442
101345.406
101345.366
101345.322
101345.276
101345.226
101345.172
101345.115
101345.053
101344.987
101344.917
101344.842
101344.763
101344.679
101344.589
101344.495
101344.394
101344.289
101344.177
101344.059
101343.935
101343.805
101343.668
101343.525
101343.374
101343.215
101343.047
101342.869
101342.679
101342.475
101342.253
101342.012
101341.75
101341.462
101341.146
101340.797
101340.406
101339.964
101339.453
101338.857
101338.174
101337.396
101336.512
101335.48
101334.261
101332.744
101330.854
101328.842
101327.187
101325.681
101323.64
101321.05
101318.184
101314.817
101310.851
101306.899
101346.904
101346.911
101346.919
101346.926
101346.931
101346.936
101346.939
101346.942
101346.943
101346.943
101346.942
101346.939
101346.935
101346.93
101346.923
101346.915
101346.906
101346.895
101346.882
101346.867
101346.851
101346.833
101346.812
101346.79
101346.766
101346.739
101346.71
101346.679
101346.645
101346.608
101346.569
101346.527
101346.481
101346.433
101346.381
101346.325
101346.267
101346.204
101346.138
101346.068
101345.995
101345.917
101345.835
101345.75
101345.66
101345.566
101345.468
101345.366
101345.26
101345.15
101345.035
101344.914
101344.786
101344.65
101344.505
101344.347
101344.175
101343.984
101343.767
101343.52
101343.235
101342.902
101342.511
101342.052
101341.51
101340.874
101340.131
101339.265
101338.261
101337.104
101335.716
101334.042
101331.966
101329.568
101327.23
101324.799
101321.91
101319.234
101316.218
101312.016
101348.265
101348.272
101348.28
101348.287
101348.293
101348.299
101348.304
101348.308
101348.311
101348.314
101348.315
101348.316
101348.316
101348.315
101348.312
101348.309
101348.305
101348.3
101348.293
101348.286
101348.277
101348.267
101348.255
101348.242
101348.228
101348.212
101348.195
101348.176
101348.155
101348.133
101348.108
101348.082
101348.054
101348.024
101347.992
101347.958
101347.921
101347.883
101347.843
101347.801
101347.756
101347.71
101347.662
101347.612
101347.561
101347.508
101347.455
101347.4
101347.344
101347.288
101347.23
101347.172
101347.111
101347.047
101346.979
101346.904
101346.822
101346.728
101346.618
101346.488
101346.33
101346.135
101345.894
101345.595
101345.225
101344.77
101344.214
101343.539
101342.728
101341.765
101340.632
101339.298
101337.716
101335.719
101333.392
101330.822
101327.932
101324.842
101321.734
101318.136
101349.728
101349.734
101349.742
101349.749
101349.755
101349.762
101349.768
101349.773
101349.778
101349.783
101349.787
101349.791
101349.794
101349.797
101349.799
101349.8
101349.801
101349.802
101349.802
101349.801
101349.799
101349.797
101349.795
101349.791
101349.787
101349.782
101349.776
101349.769
101349.762
101349.753
101349.744
101349.734
101349.724
101349.712
101349.7
101349.687
101349.674
101349.66
101349.645
101349.631
101349.616
101349.602
101349.588
101349.575
101349.563
101349.553
101349.545
101349.539
101349.536
101349.536
101349.54
101349.548
101349.56
101349.574
101349.591
101349.608
101349.624
101349.637
101349.643
101349.638
101349.616
101349.57
101349.49
101349.364
101349.181
101348.924
101348.578
101348.122
101347.536
101346.795
101345.875
101344.748
101343.374
101341.742
101339.796
101337.567
101335.144
101331.945
101328.135
101324.763
101351.236
101351.242
101351.249
101351.256
101351.262
101351.269
101351.275
101351.282
101351.289
101351.295
101351.301
101351.308
101351.314
101351.32
101351.326
101351.332
101351.338
101351.343
101351.349
101351.354
101351.36
101351.365
101351.371
101351.376
101351.381
101351.386
101351.391
101351.395
101351.4
101351.405
101351.411
101351.416
101351.422
101351.428
101351.434
101351.442
101351.45
101351.459
101351.47
101351.482
101351.496
101351.512
101351.531
101351.554
101351.58
101351.611
101351.647
101351.688
101351.737
101351.792
101351.856
101351.928
101352.01
101352.101
101352.2
101352.308
101352.423
101352.544
101352.668
101352.792
101352.911
101353.019
101353.107
101353.165
101353.181
101353.142
101353.029
101352.823
101352.503
101352.042
101351.412
101350.577
101349.522
101348.237
101346.682
101344.828
101342.603
101340.036
101336.61
101333.109
101352.751
101352.755
101352.761
101352.767
101352.773
101352.779
101352.786
101352.793
101352.801
101352.808
101352.816
101352.824
101352.833
101352.841
101352.851
101352.86
101352.87
101352.88
101352.89
101352.901
101352.912
101352.924
101352.936
101352.949
101352.962
101352.976
101352.99
101353.005
101353.022
101353.039
101353.057
101353.076
101353.096
101353.119
101353.142
101353.168
101353.196
101353.227
101353.26
101353.296
101353.337
101353.381
101353.43
101353.485
101353.547
101353.615
101353.692
101353.778
101353.873
101353.98
101354.099
101354.231
101354.377
101354.538
101354.715
101354.907
101355.115
101355.337
101355.571
101355.816
101356.068
101356.322
101356.572
101356.809
101357.022
101357.199
101357.323
101357.378
101357.341
101357.188
101356.887
101356.416
101355.766
101354.916
101353.816
101352.444
101350.702
101348.575
101345.989
101342.781
101354.222
101354.225
101354.228
101354.233
101354.238
101354.243
101354.25
101354.256
101354.264
101354.272
101354.28
101354.289
101354.299
101354.31
101354.321
101354.333
101354.345
101354.359
101354.373
101354.388
101354.404
101354.422
101354.44
101354.459
101354.479
101354.501
101354.524
101354.548
101354.575
101354.602
101354.632
101354.663
101354.697
101354.733
101354.772
101354.813
101354.858
101354.907
101354.96
101355.018
101355.081
101355.15
101355.226
101355.309
101355.401
101355.502
101355.614
101355.737
101355.874
101356.026
101356.193
101356.378
101356.581
101356.805
101357.049
101357.315
101357.603
101357.913
101358.244
101358.596
101358.965
101359.348
101359.74
101360.136
101360.525
101360.898
101361.242
101361.542
101361.778
101361.931
101361.971
101361.879
101361.651
101361.271
101360.702
101359.918
101358.857
101357.506
101355.704
101353.552
101355.614
101355.615
101355.616
101355.619
101355.622
101355.626
101355.631
101355.637
101355.644
101355.651
101355.66
101355.669
101355.68
101355.691
101355.704
101355.718
101355.732
101355.748
101355.765
101355.783
101355.803
101355.824
101355.847
101355.871
101355.897
101355.925
101355.954
101355.985
101356.018
101356.054
101356.092
101356.133
101356.178
101356.226
101356.277
101356.332
101356.392
101356.456
101356.525
101356.599
101356.68
101356.768
101356.862
101356.965
101357.082
101357.212
101357.356
101357.512
101357.684
101357.872
101358.078
101358.305
101358.554
101358.827
101359.125
101359.45
101359.802
101360.183
101360.591
101361.027
101361.489
101361.975
101362.48
101363
101363.528
101364.056
101364.574
101365.068
101365.525
101365.927
101366.252
101366.476
101366.586
101366.585
101366.459
101366.176
101365.738
101365.033
101364.192
101362.761
101356.885
101356.883
101356.881
101356.881
101356.882
101356.884
101356.887
101356.891
101356.897
101356.903
101356.911
101356.92
101356.93
101356.942
101356.954
101356.969
101356.984
101357.001
101357.02
101357.041
101357.063
101357.087
101357.112
101357.139
101357.169
101357.2
101357.234
101357.272
101357.312
101357.354
101357.399
101357.447
101357.499
101357.555
101357.615
101357.68
101357.75
101357.826
101357.908
101357.998
101358.097
101358.205
101358.325
101358.454
101358.589
101358.731
101358.887
101359.057
101359.243
101359.446
101359.68
101359.946
101360.235