/*--------------------------------*- C++ -*----------------------------------*\
  =========                 |
  \\      /  F ield         | OpenFOAM: The Open Source CFD Toolbox
   \\    /   O peration     | Website:  https://openfoam.org
    \\  /    A nd           | Version:  8
     \\/     M anipulation  |
\*---------------------------------------------------------------------------*/
FoamFile
{
    version     2.0;
    format      ascii;
    class       volScalarField;
    location    "0.026";
    object      T;
}
// * * * * * * * * * * * * * * * * * * * * * * * * * * * * * * * * * * * * * //

dimensions      [0 0 0 1 0 0 0];

internalField   nonuniform List<scalar> 
42400
(
472.22792
470.666496
469.063667
467.41823
465.729018
463.994909
462.214842
460.387842
458.513042
456.589704
454.617256
452.595322
450.523758
448.402696
446.232582
444.014229
441.748859
439.438161
437.084338
434.69016
432.259016
429.794962
427.302766
424.787942
422.256783
419.716374
417.174603
414.640142
412.122422
409.631585
407.178406
404.774206
402.430736
400.160043
397.974312
395.885708
393.906181
392.047301
390.320093
388.734865
387.301011
386.0268
384.919217
383.983796
383.224507
382.643582
382.241433
382.016518
381.966291
382.082423
382.356813
382.777744
383.329437
383.991925
384.741551
385.547077
386.368972
387.178846
387.973122
388.530143
388.730184
388.568109
387.820919
386.85343
385.575361
383.914662
381.727977
378.948647
375.620192
371.506668
366.702067
362.080182
356.449103
349.402029
343.066795
338.069517
331.651084
324.81832
317.516403
313.097725
472.260914
470.766265
469.232099
467.657357
466.041024
464.382139
462.679818
460.933273
459.141834
457.304977
455.422359
453.493841
451.519538
449.499845
447.435493
445.327584
443.177642
440.987666
438.760173
436.49825
434.205604
431.886603
429.54632
427.190563
424.825901
422.45968
420.100017
417.755793
415.436608
413.152738
410.915051
408.734911
406.624058
404.594469
402.658207
400.827265
399.113357
397.527695
396.080741
394.781944
393.639454
392.659824
391.847769
391.205919
390.734557
390.431258
390.290664
390.304634
390.461085
390.743644
391.130923
391.597217
392.107751
392.629038
393.136778
393.572768
393.725046
393.574112
392.953946
392.054596
390.890061
389.385063
387.441599
384.937989
381.839319
378.132132
373.810747
368.890773
363.591351
357.780476
351.276189
345.104073
339.14387
332.411556
325.695448
320.047836
315.251656
310.500144
306.241107
302.54939
472.30344
470.894846
469.449145
467.965445
466.442908
464.880763
463.27833
461.635037
459.950446
458.224282
456.45646
454.647121
452.796666
450.905799
448.975561
447.007381
445.003112
442.965086
440.89615
438.799716
436.679802
434.54107
432.388855
430.229197
428.068849
425.915288
423.776694
421.661931
419.580494
417.54245
415.558352
413.639138
411.795988
410.040155
408.382774
406.834631
405.405879
404.105733
402.94214
401.921459
401.048121
400.324281
399.749394
399.319878
399.029259
398.866628
398.816327
398.855844
398.963412
399.110685
399.273624
399.408419
399.36417
399.08346
398.487863
397.55866
396.416257
394.99095
393.208616
390.952783
388.160068
384.798373
380.852225
376.328355
371.26066
365.718562
359.782642
353.483657
347.068462
340.705185
334.137961
327.772506
322.120705
316.96521
312.034415
307.825384
304.224893
301.559596
300.241252
300.046799
472.352266
471.042467
469.698309
468.319079
466.90413
465.452896
463.964915
462.439848
460.877508
459.277881
457.641162
455.967783
454.258453
452.514189
450.736355
448.926706
447.087422
445.221151
443.331046
441.420801
439.494681
437.557554
435.614904
433.672844
431.738119
429.818086
427.920696
426.054436
424.22826
422.4515
420.733738
419.084655
417.513834
416.030523
414.643378
413.360148
412.187356
411.129949
410.190905
409.370798
408.667375
408.075496
407.585808
407.185152
406.858138
406.586549
406.352748
406.072558
405.686625
405.143149
404.382098
403.368782
402.178815
400.752696
399.02781
396.918533
394.347643
391.279097
387.686801
383.560647
378.907997
373.754106
368.15043
362.171106
355.906025
349.464549
342.981488
336.528674
330.234168
324.341244
318.897851
313.899492
309.592672
306.074826
303.24942
301.045241
300.107662
299.913824
299.865532
299.848906
472.403693
471.197943
469.960716
468.691478
467.389772
466.055237
464.687627
463.286835
461.852913
460.386105
458.88687
457.355915
455.794227
454.203102
452.584185
450.939494
449.271461
447.582954
445.877309
444.158352
442.430414
440.698344
438.967503
437.243755
435.533441
433.843332
432.180566
430.552559
428.966884
427.431129
425.952713
424.538663
423.195371
421.928307
420.741697
419.638172
418.618381
417.680595
416.820619
416.031198
415.302195
414.621641
413.955732
413.264898
412.511733
411.652758
410.638323
409.490502
408.189746
406.690186
404.940867
402.87481
400.424978
397.554663
394.233571
390.442111
386.174405
381.438897
376.259449
370.673133
364.736972
358.530697
352.146245
345.694993
339.291803
333.049209
327.090663
321.527672
316.43457
311.916977
308.11438
305.036373
302.757709
300.929893
300.121227
299.941543
299.897027
299.875999
299.866369
299.862581
472.453618
471.348874
470.215441
469.052951
467.861119
466.639769
465.388847
464.108442
462.798813
461.460408
460.093892
458.700172
457.280425
455.83612
454.369046
452.881333
451.375472
449.854333
448.321169
446.779627
445.233736
443.687891
442.146828
440.615569
439.099363
437.603596
436.133676
434.694893
433.292253
431.930274
430.612752
429.342497
428.121049
426.948342
425.82237
424.739013
423.691564
422.668658
421.651952
420.618922
419.543196
418.395084
417.162657
415.831211
414.369385
412.741766
410.906621
408.808887
406.402432
403.651905
400.52573
396.998933
393.055777
388.691158
383.912118
378.738914
373.205615
367.358673
361.260006
354.985942
348.619317
342.264386
336.025104
330.026105
324.380258
319.183186
314.517826
310.457752
307.064422
304.3707
302.378671
301.030348
300.159182
299.95411
299.899844
299.886463
299.876355
299.864819
299.850031
299.832236
472.497503
471.481538
470.439326
469.370629
468.2753
467.153297
466.004702
464.829733
463.628769
462.402365
461.151271
459.876454
458.57911
457.260683
455.922877
454.567661
453.197275
451.814225
450.421272
449.021406
447.617813
446.213825
444.812856
443.418309
442.033477
440.661406
439.30474
437.965542
436.645083
435.343603
434.060046
432.791771
431.534319
430.281029
429.021798
427.743358
426.430339
425.067223
423.637236
422.120191
420.492162
418.724544
416.781657
414.626322
412.226603
409.55088
406.569374
403.256019
399.590159
395.557986
391.153985
386.382211
381.257399
375.805849
370.066068
364.088348
357.935635
351.68305
345.41374
339.220004
333.193535
327.44383
322.075269
317.189936
312.868924
309.179152
306.156192
303.808311
302.095878
300.967547
300.293849
299.976056
299.910842
299.897202
299.886905
299.871278
299.847969
299.830166
299.81664
299.815343
472.530591
471.581556
470.608099
469.610062
468.587369
467.54004
466.468198
465.372086
464.252074
463.108674
461.942549
460.75452
459.545571
458.316853
457.069679
455.805512
454.525951
453.232706
451.927554
450.612297
449.288695
447.958383
446.622777
445.282954
443.939512
442.592413
441.240806
439.882831
438.515429
437.134138
435.732953
434.303851
432.836845
431.319668
429.738626
428.078086
426.318774
424.437666
422.411615
420.215871
417.824585
415.211501
412.350882
409.218613
405.793357
402.057705
397.999352
393.612246
388.897649
383.865073
378.533245
372.930711
367.096391
361.080086
354.943175
348.75933
342.610948
336.587598
330.782628
325.289493
320.202149
315.608632
311.584186
308.189335
305.454647
303.368501
301.880492
300.90384
300.333021
300.036083
299.921327
299.899171
299.876205
299.852645
299.833243
299.81916
299.817121
299.816006
299.815206
299.814768
472.548466
471.635576
470.69922
469.739245
468.755561
467.748146
466.717048
465.662391
464.584379
463.483296
462.359508
461.213454
460.045642
458.856637
457.647037
456.417457
455.168486
453.900649
452.614351
451.309807
449.986959
448.645371
447.284104
445.901581
444.495416
443.062183
441.59712
440.09371
438.544897
436.942204
435.275424
433.532768
431.700538
429.763251
427.703769
425.503465
423.142487
420.60017
417.855569
414.888076
411.678128
408.20802
404.462807
400.431235
396.106678
391.488064
386.580755
381.397371
375.95857
370.293753
364.441817
358.451366
352.380402
346.29833
340.286401
334.433194
328.831282
323.573263
318.748705
314.433373
310.693226
307.564451
305.061959
303.164145
301.816055
300.929498
300.395795
300.109629
299.971224
299.907801
299.871489
299.835787
299.82531
299.821341
299.818581
299.817233
299.816664
299.81601
299.815415
299.814876
472.548059
471.634316
470.697009
469.735913
468.750836
467.741622
466.708148
465.650319
464.568061
463.461311
462.330007
461.174061
459.993341
458.787644
457.55667
456.299977
455.016923
453.706601
452.367758
450.998689
449.597115
448.160027
446.682682
445.159511
443.585167
441.953421
440.257158
438.488623
436.637937
434.693722
432.6433
430.472757
428.167053
425.71022
423.08562
420.276293
417.265389
414.036676
410.575085
406.867414
402.903054
398.674753
394.179424
389.418968
384.401118
379.140268
373.65827
367.985201
362.160028
356.231238
350.256929
344.303412
338.447938
332.775757
327.376532
322.340021
317.749947
313.677287
310.176085
307.272393
304.963259
303.209736
301.946624
301.088528
300.544306
300.222883
300.042557
299.942277
299.885443
299.847729
299.827983
299.823495
299.822352
299.820562
299.818244
299.81733
299.817842
299.818745
299.818864
299.81864
472.529606
471.578521
470.602824
469.602182
468.576263
467.524725
466.447209
465.343325
464.212643
463.054674
461.868858
460.654406
459.409611
458.132582
456.82172
455.475098
454.090402
452.664873
451.195248
449.677702
448.107821
446.480575
444.791141
443.033894
441.201236
439.28456
437.274268
435.159807
432.929677
430.571491
428.072102
425.417773
422.59441
419.587853
416.384236
412.970359
409.33421
405.465539
401.35648
397.002238
392.401838
387.558926
382.482621
377.1884
371.698989
366.045198
360.266628
354.412149
348.54
342.717516
337.018843
331.525399
326.322787
321.495012
317.117044
313.249432
309.934515
307.189285
305.002413
303.333992
302.117725
301.270468
300.707173
300.346574
300.122398
299.985031
299.898827
299.847507
299.827139
299.823692
299.823338
299.822275
299.820982
299.820045
299.819563
299.819792
299.821538
299.824974
299.827281
299.82749
472.491934
471.464626
470.410573
469.329256
468.220103
467.082476
465.915645
464.718463
463.489432
462.227134
460.929897
459.595879
458.223688
456.811569
455.356829
453.856367
452.306621
450.703523
449.042446
447.318139
445.524704
443.655553
441.703343
439.659959
437.516492
435.263253
432.889814
430.385087
427.737428
424.934797
421.96495
418.815692
415.475153
411.932142
408.176613
404.200173
399.99666
395.562799
390.898936
386.009851
380.905627
375.602568
370.124121
364.501728
358.775529
352.994814
347.218023
341.512057
335.950762
330.612645
325.577468
320.921501
316.712912
313.003644
309.825028
307.187607
305.074045
303.443629
302.233352
301.370473
300.779466
300.389012
300.14179
299.980704
299.893115
299.849481
299.831131
299.827379
299.823462
299.820893
299.818874
299.817897
299.816296
299.816716
299.818197
299.820447
299.823032
299.826928
299.828457
299.83094
472.436598
471.297339
470.128221
468.928479
467.697233
466.433467
465.135558
463.802254
462.432259
461.023726
459.574525
458.082213
456.543992
454.956668
453.316604
451.619678
449.861231
448.036049
446.138318
444.161582
442.098739
439.942025
437.683019
435.312662
432.821301
430.198754
427.43441
424.517365
421.436593
418.181165
414.740471
411.104601
407.26476
403.213743
398.946506
394.460807
389.757951
384.843598
379.728653
374.430176
368.972283
363.386958
357.714661
352.004598
346.314515
340.70995
335.262557
330.047467
325.13969
320.61005
316.520244
312.915359
309.819854
307.238684
305.156711
303.535057
302.314864
301.42948
300.811022
300.396134
300.127574
299.964016
299.876112
299.853574
299.841945
299.83231
299.828406
299.826363
299.824229
299.821084
299.817314
299.815009
299.815797
299.817136
299.81828
299.820047
299.822639
299.826829
299.828706
299.829197
472.367798
471.089371
469.777292
468.430563
467.048015
465.628169
464.16965
462.670663
461.129137
459.542686
457.908567
456.22365
454.484375
452.686716
450.826152
448.897634
446.895544
444.813688
442.645276
440.382919
438.018637
435.543882
432.949581
430.226201
427.363841
424.352358
421.181539
417.841249
414.321731
410.613934
406.709917
402.603322
398.289931
393.768317
389.040579
384.113148
378.997659
373.711836
368.280338
362.735489
357.117792
351.476069
345.867112
340.354598
335.007239
329.896218
325.09167
320.658516
316.652209
313.114124
310.068199
307.516937
305.440402
303.798251
302.541503
301.614503
300.954276
300.501455
300.204512
300.02031
299.920241
299.881524
299.861648
299.845381
299.835872
299.830103
299.825418
299.822732
299.821337
299.82076
299.818383
299.815591
299.815141
299.818294
299.821387
299.822785
299.824332
299.826148
299.830532
299.830592
472.288567
470.849892
469.373245
467.8574
466.300908
464.702112
463.059207
461.369989
459.631917
457.842075
455.997133
454.093315
452.126363
450.091505
447.983433
445.796283
443.523623
441.158452
438.693206
436.119787
433.429602
430.613632
427.662516
424.566685
421.316497
417.902425
414.315343
410.546851
406.589668
402.438103
398.08861
393.540428
388.796303
383.863278
378.753523
373.485176
368.08312
362.579619
357.014725
351.436301
345.899567
340.465983
335.201457
330.173507
325.447819
321.084337
317.133222
313.630999
310.598326
308.037886
305.934108
304.25503
302.953647
301.973207
301.254683
300.74675
300.401727
300.175737
300.033087
299.949345
299.90218
299.873945
299.852529
299.837506
299.828187
299.823864
299.822503
299.821565
299.820984
299.820266
299.820334
299.819966
299.819984
299.821648
299.82512
299.826359
299.825359
299.824283
299.826714
299.832893
472.200823
470.584688
468.925824
467.222787
465.473893
463.677246
461.830612
459.931378
457.976539
455.962661
453.885843
451.741691
449.525285
447.231166
444.853317
442.385164
439.819585
437.148932
434.365076
431.459473
428.423251
425.247335
421.922576
418.439966
414.790908
410.967538
406.963108
402.772454
398.392537
393.823066
389.067194
384.132274
379.030646
373.780417
368.406167
362.939512
357.419414
351.892133
346.410689
341.033736
335.823765
330.844574
326.158352
321.821453
317.881106
314.371502
311.311862
308.703911
306.53443
304.775754
303.387361
302.322613
301.531416
300.96188
300.563371
300.292114
300.110082
299.994269
299.920297
299.875557
299.852197
299.83871
299.833356
299.829322
299.826132
299.823381
299.82221
299.82202
299.822071
299.822178
299.822454
299.82348
299.82472
299.825469
299.827055
299.829374
299.827181
299.822207
299.822234
299.827074
472.105825
470.297563
468.441459
466.53588
464.5789
462.568266
460.501359
458.375151
456.186173
453.930477
451.603608
449.200582
446.715865
444.143376
441.476487
438.708048
435.830429
432.83558
429.715127
426.46048
423.062969
419.514068
415.805647
411.930288
407.88166
403.654969
399.247484
394.659128
389.893146
384.956819
379.862198
374.626831
369.274412
363.835278
358.346673
352.852665
347.403614
342.055083
336.866142
331.897049
327.206366
322.847673
318.866781
315.29743
312.1591
309.456924
307.181197
305.310075
303.80995
302.639104
301.751046
301.098723
300.637117
300.323318
300.118142
299.989606
299.908443
299.865868
299.850707
299.848988
299.84395
299.839817
299.836307
299.832544
299.828064
299.824468
299.821921
299.821411
299.82125
299.822752
299.824223
299.824832
299.824758
299.824153
299.825564
299.829015
299.830009
299.829724
299.826044
299.822154
472.00456
469.991501
467.925142
465.803622
463.624743
461.385932
459.0842
456.716106
454.27772
451.764603
449.171777
446.493723
443.724379
440.857162
437.884998
434.80039
431.595495
428.262235
424.792435
421.178031
417.41132
413.485254
409.393804
405.132391
400.69838
396.091648
391.315206
386.375871
381.284956
376.058947
370.720097
365.296896
359.824311
354.343713
348.902398
343.552618
338.350066
333.351808
328.613735
324.187702
320.118599
316.441357
313.178749
310.340841
307.925211
305.916974
304.287614
303.000899
302.013993
301.280441
300.753202
300.388395
300.148236
300.000093
299.915203
299.8731
299.866029
299.860073
299.854332
299.850733
299.845798
299.840908
299.837311
299.835192
299.832953
299.830778
299.827892
299.825039
299.823347
299.822823
299.823245
299.82426
299.824178
299.822536
299.822702
299.824339
299.828087
299.832129
299.835999
299.838269
471.897871
469.669044
467.381165
465.032143
462.619503
460.140353
457.591342
454.968632
452.267867
449.484164
446.612101
443.645734
440.578623
437.403886
434.114272
430.702264
427.160208
423.48051
419.655866
415.679545
411.545728
407.249914
402.789387
398.163744
393.375482
388.430628
383.339387
378.116771
372.783176
367.364829
361.89404
356.409181
350.954303
345.578323
340.333734
335.274848
330.455598
325.927054
321.734804
317.9165
314.499992
311.5011
308.922208
306.754597
304.976244
303.554083
302.447375
301.611721
301.00153
300.572277
300.282105
300.093934
299.978652
299.914123
299.884476
299.869786
299.86106
299.856851
299.85126
299.847283
299.845075
299.842414
299.83929
299.836476
299.833812
299.831448
299.829939
299.828877
299.827207
299.825268
299.824084
299.824229
299.824675
299.824706
299.823191
299.820265
299.822994
299.825636
299.830178
299.838953
471.786794
469.333324
466.814822
464.228965
461.573011
458.843765
456.037544
453.150157
450.176891
447.112513
443.951289
440.687025
437.313131
433.822711
430.208681
426.463943
422.581602
418.555223
414.379152
410.048887
405.561518
400.916219
396.114799
391.162289
386.067562
380.84393
375.509707
370.088661
364.610301
359.109932
353.628394
348.211422
342.908588
337.771805
332.853429
328.204064
323.870171
319.891683
316.299743
313.114907
310.34607
307.98976
306.027188
304.429687
303.161977
302.182997
301.448485
300.914263
300.538542
300.283669
300.116946
300.011748
299.946705
299.906472
299.880106
299.863955
299.854294
299.848994
299.845918
299.843102
299.840826
299.838454
299.83576
299.833158
299.830672
299.828427
299.8265
299.82556
299.825238
299.824167
299.822975
299.823096
299.823319
299.824835
299.827469
299.827848
299.822774
299.820198
299.822714
299.829361
472.595702
471.778212
470.93938
470.078777
469.195963
468.290485
467.361877
466.409656
465.433317
464.432335
463.406156
462.354196
461.275831
460.170397
459.037176
457.875395
456.684211
455.462711
454.209898
452.924684
451.60588
450.252186
448.862181
447.43431
445.966877
444.458031
442.905753
441.307854
439.661999
437.965723
436.216176
434.408076
432.537024
430.59865
428.587897
426.502962
424.341044
422.097114
419.766184
417.343449
414.824307
412.204208
409.478849
406.644371
403.697573
400.63613
397.45884
394.165919
390.759341
387.243187
383.623942
379.910773
376.115707
372.253629
368.345592
364.424808
360.531654
356.713639
353.024577
349.522644
346.26706
343.313389
340.707894
338.481735
336.645992
335.188391
334.07265
333.241248
332.621812
332.136058
331.709937
331.281072
330.803433
330.253084
329.623402
328.906807
328.093523
327.180034
326.198104
325.255192
472.593841
471.772535
470.929676
470.064752
469.177233
468.26657
467.332194
466.373512
465.389906
464.380731
463.345304
462.282908
461.192778
460.074102
458.926009
457.747564
456.537763
455.295519
454.019658
452.708912
451.361905
449.977145
448.553018
447.087779
445.579556
444.026352
442.425626
440.773836
439.067886
437.304446
435.480029
433.592973
431.6401
429.617507
427.521186
425.347099
423.091127
420.749052
418.316641
415.789728
413.164323
410.436715
407.603624
404.662365
401.611054
398.448839
395.17615
391.794973
388.309131
384.724584
381.049661
377.295283
373.475022
369.60498
365.712545
361.834155
358.012766
354.297358
350.741581
347.401301
344.330878
341.578232
339.179267
337.152796
335.497376
334.1908
333.191973
332.444819
331.884365
331.44256
331.053641
330.660308
330.216156
329.688007
329.065265
328.362382
327.602893
326.81567
326.049076
325.38525
472.589051
471.758006
470.905044
470.029565
469.130947
468.208542
467.261675
466.289645
465.291718
464.267128
463.215069
462.134692
461.025101
459.885345
458.714412
457.511224
456.274625
455.003382
453.696168
452.351559
450.96803
449.543948
448.077379
446.565876
445.007077
443.39848
441.737745
440.023093
438.251841
436.421026
434.527559
432.568242
430.539737
428.438568
426.26115
424.003824
421.662896
419.234685
416.715587
414.102155
411.391194
408.57988
405.665904
402.647632
399.524304
396.296256
392.965164
389.534316
386.008877
382.396186
378.705949
374.950411
371.144411
367.305266
363.464841
359.661415
355.938947
352.346098
348.93439
345.755442
342.857254
340.279716
338.049739
336.177006
334.651213
333.442829
332.507383
331.791804
331.238972
330.79435
330.40711
330.029089
329.619826
329.147219
328.591993
327.962802
327.309228
326.692384
326.117727
325.735126
472.581311
471.734563
470.86538
469.973076
469.056936
468.116213
467.150132
466.157881
465.138617
464.091458
463.01548
461.909715
460.773145
459.604693
458.403225
457.167535
455.896344
454.588294
453.241938
451.85555
450.427227
448.955091
447.437298
445.87222
444.257827
442.591875
440.872015
439.095795
437.260643
435.363874
433.402694
431.374218
429.275474
427.103428
424.855005
422.527116
420.116696
417.620754
415.036424
412.361045
409.592243
406.728039
403.766979
400.708286
397.552034
394.299361
390.952688
387.515985
383.995019
380.397621
376.733907
373.016462
369.260453
365.483757
361.719514
358.006431
354.388311
350.912731
347.628866
344.584498
341.822385
339.376336
337.2673
335.499797
334.060486
332.918609
332.029052
331.335091
330.782559
330.323416
329.916999
329.53129
329.13814
328.713624
328.250952
327.760352
327.253557
326.73724
326.367934
326.17234
472.570571
471.702058
470.810439
469.894944
468.954767
467.989068
466.996973
465.977569
464.929908
463.853002
462.745822
461.607293
460.436288
459.231631
457.992083
456.716345
455.402994
454.050458
452.657167
451.221646
449.742392
448.21766
446.645631
445.024411
443.352032
441.626447
439.845537
438.007114
436.108927
434.148668
432.12398
430.032469
427.871712
425.639274
423.332727
420.949673
418.48777
415.94477
413.318565
410.607243
407.809158
404.923021
401.948008
398.883891
395.731201
392.491413
389.167167
385.76251
382.283167
378.736814
375.133335
371.485037
367.806797
364.115897
360.444097
356.829663
353.315337
349.947195
346.771637
343.832797
341.168948
338.808714
336.768082
335.04854
333.636765
332.50412
331.612197
330.92838
330.388646
329.936641
329.539122
329.171464
328.814505
328.466805
328.104567
327.71206
327.330691
327.032733
326.876031
326.889633
472.556713
471.660132
470.73962
469.794325
468.823358
467.82579
466.800658
465.746957
464.663648
463.549651
462.403848
461.225077
460.012134
458.763766
457.478647
456.155386
454.792626
453.389029
451.943122
450.453384
448.918249
447.33611
445.705321
444.024199
442.291037
440.504098
438.661633
436.761878
434.803065
432.78343
430.701215
428.554677
426.342097
424.061788
421.712101
419.291444
416.798291
414.23121
411.588886
408.870159
406.074076
403.199949
400.247445
397.216684
394.108371
390.923961
387.665847
384.337593
380.944186
377.492327
373.990701
370.45024
366.884318
363.308643
359.749256
356.242829
352.83305
349.539596
346.434454
343.556905
340.944068
338.624842
336.617174
334.928129
333.558027
332.512085
331.608243
330.810506
330.210682
329.78336
329.395017
329.010224
328.689118
328.415457
328.094541
327.81406
327.595864
327.490142
327.527329
327.704453
472.539529
471.60816
470.65187
469.669733
468.660783
467.624012
466.558378
465.462798
464.336157
463.177302
461.985049
460.758177
459.495435
458.195548
456.85724
455.479224
454.060158
452.598683
451.093423
449.54299
447.945996
446.301052
444.60678
442.861821
441.064841
439.214541
437.309665
435.349003
433.3314
431.255761
429.12105
426.926292
424.670575
422.353046
419.972913
417.529438
415.021944
412.449816
409.812509
407.109569
404.340657
401.505592
398.604408
395.63743
392.605378
389.509495
386.351693
383.134725
379.86236
376.539549
373.172534
369.768928
366.33787
362.910407
359.504641
356.131915
352.826867
349.651937
346.627293
343.797952
341.203823
338.877302
336.840295
335.101691
333.654979
332.472141
331.532964
330.771714
330.179521
329.756127
329.374391
328.989685
328.669248
328.392378
328.15546
327.975176
327.877371
327.879457
327.956512
328.14786
472.518762
471.545367
470.545887
469.519327
468.464652
467.380786
466.266619
465.121006
463.942773
462.730725
461.483646
460.200309
458.879474
457.51989
456.1203
454.679446
453.196082
451.66897
450.096902
448.478696
446.813219
445.099388
443.336187
441.522675
439.658
437.741405
435.772238
433.749955
431.674127
429.544436
427.360671
425.122724
422.830576
420.484281
418.083954
415.629748
413.12184
410.560409
407.945629
405.27766
402.556653
399.782766
396.956197
394.077242
391.146372
388.164346
385.13235
382.052163
378.926329
375.758263
372.55217
369.312522
366.071729
362.833886
359.608681
356.40314
353.250263
350.186274
347.247435
344.471339
341.894282
339.548342
337.458288
335.638641
334.091321
332.804876
331.757472
330.918171
330.253404
329.735845
329.375991
329.009962
328.702373
328.445186
328.240258
328.103021
328.046597
328.067898
328.14372
328.319176
472.494159
471.470988
470.420376
469.341268
468.23257
467.093152
465.921854
464.717488
463.478849
462.204714
460.893855
459.54504
458.157045
456.728659
455.258693
453.745988
452.189432
450.587962
448.940586
447.24639
445.504559
443.714386
441.87529
439.986829
438.048713
436.060813
434.02317
431.935999
429.799686
427.614783
425.381996
423.102166
420.776249
418.405279
415.990338
413.53252
411.032891
408.49245
405.91209
403.292576
400.634518
397.938371
395.204442
392.432932
389.623987
386.77779
383.89467
380.975236
378.020554
375.032459
372.014399
368.982002
365.949354
362.929302
359.909933
356.903738
353.928765
351.014885
348.193951
345.498902
342.96233
340.614558
338.481371
336.581657
334.925339
333.512123
332.331719
331.365037
330.586279
329.967084
329.470799
329.094716
328.786473
328.536454
328.341727
328.206995
328.144912
328.152837
328.237473
328.414619
472.465599
471.38466
470.274732
469.134705
467.963436
466.75975
465.522444
464.250298
462.942078
461.59655
460.212486
458.788673
457.323926
455.817102
454.267105
452.672908
451.033564
449.348222
447.616146
445.836733
444.00953
442.134256
440.210818
438.239328
436.220117
434.153747
432.041016
429.882961
427.680851
425.436175
423.150624
420.826058
418.464473
416.067954
413.638619
411.178565
408.689801
406.174197
403.633418
401.068871
398.48167
395.872602
393.242129
390.590404
387.917325
385.222628
382.506026
379.767396
377.007058
374.226098
371.426574
368.606305
365.792575
362.996051
360.213398
357.43938
354.686466
351.969418
349.313566
346.747027
344.298069
341.993905
339.859183
337.914308
336.173819
334.64511
333.327796
332.213844
331.288476
330.532021
329.921318
329.435905
329.051096
328.748487
328.516134
328.345068
328.239876
328.219458
328.271165
328.443213
472.433199
471.286733
470.109536
468.900449
467.658282
466.381819
465.069823
463.721046
462.334239
460.908165
459.441607
457.933384
456.382368
454.787494
453.147781
451.462347
449.730433
447.95142
446.124851
444.250457
442.328177
440.358184
438.340901
436.277027
434.167551
432.01376
429.81725
427.579921
425.30397
422.991868
420.646338
418.270304
415.866857
413.439177
410.990479
408.523922
406.042531
403.549108
401.046159
398.535812
396.019758
393.499206
390.974857
388.446917
385.915138
383.378902
380.837349
378.289551
375.734717
373.172428
370.602891
368.027331
365.434532
362.862802
360.319801
357.801875
355.299368
352.823544
350.387929
348.008147
345.708292
343.511929
341.441148
339.515471
337.750732
336.158073
334.743215
333.506157
332.441375
331.538542
330.783542
330.159755
329.649656
329.237321
328.904613
328.639051
328.445281
328.33752
328.335848
328.372747
472.397451
471.17869
469.927286
468.642031
467.321691
465.965012
464.570727
463.137566
461.66427
460.149604
458.59237
456.991428
455.34571
453.654239
451.916155
450.130732
448.297404
446.415791
444.485725
442.507278
440.480787
438.406884
436.286521
434.120989
431.911939
429.661393
427.371751
425.045786
422.68663
420.297753
417.882921
415.446147
412.99163
410.523676
408.046616
405.564708
403.082035
400.602388
398.129172
395.665303
393.213122
390.774336
388.349967
385.940357
383.545189
381.163573
378.794161
376.435306
374.085264
371.742412
369.405453
367.07366
364.747403
362.411163
360.093113
357.814013
355.571227
353.360769
351.179179
349.039252
346.954488
344.937841
343.007273
341.180561
339.472934
337.896501
336.459692
335.166913
334.018484
333.010852
332.136943
331.386221
330.746271
330.204834
329.741891
329.337583
329.000772
328.732951
328.530561
328.48451
472.35934
471.063513
469.733008
468.366569
466.96292
465.520769
464.038823
462.515791
460.950407
459.341442
457.687719
455.98814
454.241698
452.447509
450.604831
448.713094
446.771924
444.78118
442.740978
440.651728
438.514159
436.32936
434.098796
431.824343
429.508301
427.15341
424.762852
422.340247
419.889634
417.415444
414.922452
412.415718
409.900514
407.382232
404.866284
402.357985
399.862444
397.384431
394.928256
392.497654
390.095681
387.724626
385.385954
383.080271
380.807338
378.566125
376.354921
374.171502
372.013324
369.877762
367.762397
365.665348
363.585681
361.523624
359.468072
357.416438
355.400401
353.434261
351.513567
349.634828
347.797287
346.012714
344.292897
342.649027
341.091054
339.627063
338.266054
337.01475
335.876716
334.852513
333.939844
333.133422
332.425421
331.806903
331.267274
330.777149
330.322158
329.918292
329.572999
329.323386
472.320421
470.945895
469.534616
468.085281
466.596572
465.067164
463.495734
461.880977
460.221622
458.516445
456.764295
454.964113
453.11496
451.216037
449.266721
447.266592
445.215466
443.113429
440.960873
438.758533
436.507519
434.209351
431.865995
429.479881
427.053931
424.591568
422.096722
419.573817
417.027754
414.463868
411.887876
409.305809
406.72392
404.14859
401.586198
399.043005
396.525013
394.037833
391.586548
389.175586
386.808611
384.488432
382.216939
379.995076
377.822835
375.699307
373.622741
371.590688
369.600187