/*--------------------------------*- C++ -*----------------------------------*\
  =========                 |
  \\      /  F ield         | OpenFOAM: The Open Source CFD Toolbox
   \\    /   O peration     | Website:  https://openfoam.org
    \\  /    A nd           | Version:  8
     \\/     M anipulation  |
\*---------------------------------------------------------------------------*/
FoamFile
{
    version     2.0;
    format      ascii;
    class       volScalarField;
    location    "0.028";
    object      p;
}
// * * * * * * * * * * * * * * * * * * * * * * * * * * * * * * * * * * * * * //

dimensions      [1 -1 -2 0 0 0 0];

internalField   nonuniform List<scalar> 
42400
(
101402.534
101402.521
101402.507
101402.495
101402.484
101402.473
101402.463
101402.454
101402.447
101402.44
101402.434
101402.429
101402.425
101402.422
101402.42
101402.419
101402.42
101402.421
101402.423
101402.426
101402.43
101402.435
101402.441
101402.448
101402.455
101402.463
101402.472
101402.481
101402.491
101402.501
101402.511
101402.522
101402.534
101402.545
101402.557
101402.569
101402.58
101402.59
101402.61
101402.644
101402.681
101402.698
101402.691
101402.68
101402.67
101402.677
101402.7
101402.726
101402.754
101402.781
101402.807
101402.83
101402.876
101402.946
101403.034
101403.097
101403.126
101403.19
101403.294
101403.422
101403.553
101403.699
101403.872
101404.079
101404.316
101404.588
101404.886
101405.165
101405.701
101406.232
101406.057
101406.747
101408.63
101407.711
101406.659
101406.06
101409.424
101417.211
101416.658
101418.573
101401.592
101401.582
101401.571
101401.561
101401.552
101401.543
101401.536
101401.529
101401.523
101401.518
101401.514
101401.511
101401.509
101401.508
101401.507
101401.508
101401.51
101401.512
101401.516
101401.521
101401.526
101401.532
101401.539
101401.547
101401.556
101401.565
101401.575
101401.585
101401.596
101401.607
101401.618
101401.63
101401.641
101401.652
101401.668
101401.691
101401.718
101401.749
101401.762
101401.754
101401.745
101401.748
101401.766
101401.784
101401.803
101401.822
101401.84
101401.852
101401.874
101401.923
101401.99
101402.029
101402.031
101402.056
101402.112
101402.19
101402.266
101402.347
101402.441
101402.556
101402.697
101402.861
101403.046
101403.256
101403.499
101403.788
101404.143
101404.444
101404.901
101405.826
101406.012
101406.361
101407.916
101408.17
101408.466
101412.399
101415.842
101416.631
101419.106
101421.428
101400.534
101400.526
101400.518
101400.51
101400.503
101400.497
101400.492
101400.488
101400.484
101400.481
101400.479
101400.478
101400.478
101400.48
101400.482
101400.485
101400.489
101400.494
101400.501
101400.508
101400.516
101400.526
101400.536
101400.547
101400.56
101400.573
101400.587
101400.601
101400.616
101400.632
101400.65
101400.672
101400.696
101400.723
101400.746
101400.758
101400.764
101400.77
101400.784
101400.808
101400.832
101400.856
101400.881
101400.902
101400.916
101400.948
101401.013
101401.081
101401.084
101401.072
101401.108
101401.167
101401.223
101401.278
101401.339
101401.411
101401.498
101401.6
101401.72
101401.856
101402.012
101402.195
101402.413
101402.67
101402.978
101403.338
101403.805
101404.317
101404.84
101405.893
101406.53
101406.627
101408.902
101411.371
101412.991
101414.206
101415.351
101418.351
101420.225
101420.76
101399.38
101399.374
101399.367
101399.361
101399.356
101399.352
101399.348
101399.346
101399.344
101399.343
101399.344
101399.345
101399.348
101399.352
101399.357
101399.364
101399.371
101399.38
101399.391
101399.402
101399.415
101399.43
101399.445
101399.462
101399.48
101399.499
101399.52
101399.542
101399.567
101399.594
101399.621
101399.644
101399.665
101399.686
101399.708
101399.736
101399.77
101399.803
101399.836
101399.87
101399.902
101399.927
101399.968
101400.035
101400.078
101400.088
101400.115
101400.165
101400.223
101400.27
101400.319
101400.374
101400.437
101400.51
101400.593
101400.688
101400.799
101400.929
101401.082
101401.264
101401.482
101401.731
101402.029
101402.373
101402.812
101403.316
101403.948
101404.552
101404.823
101405.896
101409.363
101411.939
101411.129
101411.348
101414.892
101415.822
101416.883
101418.354
101419.964
101421.089
101398.125
101398.12
101398.114
101398.109
101398.105
101398.102
101398.1
101398.099
101398.099
101398.101
101398.104
101398.108
101398.113
101398.12
101398.129
101398.139
101398.151
101398.165
101398.18
101398.197
101398.216
101398.235
101398.256
101398.278
101398.304
101398.331
101398.361
101398.391
101398.423
101398.455
101398.489
101398.526
101398.566
101398.607
101398.649
101398.691
101398.735
101398.778
101398.814
101398.864
101398.937
101398.988
101399.01
101399.051
101399.109
101399.164
101399.217
101399.272
101399.331
101399.394
101399.462
101399.535
101399.618
101399.715
101399.829
101399.965
101400.124
101400.314
101400.541
101400.804
101401.121
101401.487
101401.936
101402.424
101403.048
101403.624
101404.534
101406.403
101409.097
101410.57
101410.544
101410.854
101411.6
101413.323
101414.698
101415.727
101417.253
101418.825
101420.272
101421.374
101396.756
101396.751
101396.745
101396.741
101396.738
101396.736
101396.735
101396.735
101396.737
101396.74
101396.745
101396.752
101396.761
101396.771
101396.783
101396.798
101396.814
101396.832
101396.85
101396.871
101396.896
101396.924
101396.955
101396.989
101397.024
101397.061
101397.101
101397.142
101397.186
101397.232
101397.279
101397.328
101397.379
101397.431
101397.484
101397.532
101397.59
101397.67
101397.729
101397.765
101397.819
101397.888
101397.952
101398.014
101398.078
101398.143
101398.21
101398.28
101398.354
101398.435
101398.526
101398.63
101398.752
101398.896
101399.065
101399.267
101399.507
101399.79
101400.129
101400.528
101400.987
101401.496
101402.083
101402.677
101403.504
101405.602
101407.585
101408.558
101408.986
101409.784
101410.815
101411.798
101412.938
101414.118
101415.27
101416.847
101418.581
101420.159
101421.666
101423.031
101395.241
101395.235
101395.23
101395.225
101395.223
101395.222
101395.222
101395.224
101395.228
101395.233
101395.24
101395.25
101395.262
101395.276
101395.292
101395.311
101395.332
101395.357
101395.386
101395.417
101395.451
101395.486
101395.524
101395.565
101395.608
101395.654
101395.703
101395.754
101395.808
101395.864
101395.923
101395.983
101396.04
101396.106
101396.191
101396.259
101396.308
101396.376
101396.455
101396.529
101396.602
101396.675
101396.751
101396.828
101396.907
101396.99
101397.079
101397.174
101397.28
101397.398
101397.534
101397.693
101397.877
101398.093
101398.345
101398.643
101398.999
101399.434
101399.979
101400.67
101401.43
101402.21
101403.017
101404.286
101405.741
101406.759
101407.585
101408.233
101409.132
101410.499
101411.53
101412.688
101414.197
101415.852
101417.453
101418.865
101420.172
101421.382
101422.661
101424.021
101393.545
101393.54
101393.535
101393.531
101393.53
101393.53
101393.532
101393.536
101393.542
101393.551
101393.561
101393.574
101393.59
101393.608
101393.63
101393.655
101393.683
101393.713
101393.747
101393.784
101393.824
101393.867
101393.914
101393.964
101394.017
101394.073
101394.133
101394.195
101394.257
101394.318
101394.389
101394.477
101394.552
101394.612
101394.688
101394.775
101394.858
101394.94
101395.025
101395.112
101395.201
101395.292
101395.388
101395.488
101395.595
101395.71
101395.836
101395.977
101396.138
101396.323
101396.535
101396.778
101397.055
101397.367
101397.716
101398.112
101398.539
101398.975
101399.431
101400.074
101401.401
101403.351
101404.95
101405.608
101406.179
101407.07
101408.152
101409.307
101410.324
101411.347
101412.712
101414.404
101415.827
101416.98
101418.108
101419.363
101420.928
101422.5
101424.159
101425.45
101391.619
101391.615
101391.611
101391.609
101391.609
101391.612
101391.616
101391.624
101391.634
101391.647
101391.663
101391.681
101391.702
101391.726
101391.753
101391.784
101391.818
101391.855
101391.897
101391.941
101391.989
101392.041
101392.097
101392.156
101392.217
101392.28
101392.348
101392.43
101392.518
101392.587
101392.653
101392.736
101392.827
101392.916
101393.007
101393.1
101393.196
101393.294
101393.396
101393.502
101393.613
101393.73
101393.856
101393.992
101394.142
101394.31
101394.5
101394.717
101394.966
101395.25
101395.575
101395.943
101396.364
101396.841
101397.384
101398.017
101398.714
101399.46
101400.665
101402.292
101403.067
101403.278
101403.647
101404.702
101406.475
101407.649
101408.617
101409.886
101411.103
101412.313
101413.931
101415.43
101416.59
101417.845
101419.272
101420.756
101422.344
101423.917
101425.662
101427.232
101389.438
101389.436
101389.434
101389.435
101389.439
101389.445
101389.454
101389.465
101389.479
101389.497
101389.517
101389.541
101389.568
101389.598
101389.633
101389.671
101389.712
101389.758
101389.807
101389.86
101389.917
101389.978
101390.04
101390.109
101390.19
101390.265
101390.336
101390.418
101390.507
101390.6
101390.692
101390.787
101390.885
101390.986
101391.091
101391.199
101391.312
101391.431
101391.556
101391.689
101391.833
101391.989
101392.163
101392.357
101392.576
101392.827
101393.115
101393.446
101393.824
101394.255
101394.747
101395.308
101395.952
101396.671
101397.472
101398.392
101399.287
101400.334
101401.548
101402.389
101403.152
101404.231
101405.307
101406.187
101407.469
101408.867
101409.728
101410.423
101411.612
101413.215
101414.529
101415.537
101416.942
101418.719
101420.44
101422.166
101423.849
101425.621
101427.394
101429.497
101386.958
101386.959
101386.962
101386.967
101386.975
101386.986
101387
101387.017
101387.037
101387.061
101387.088
101387.119
101387.154
101387.193
101387.236
101387.282
101387.333
101387.388
101387.447
101387.508
101387.576
101387.654
101387.73
101387.802
101387.884
101387.974
101388.065
101388.16
101388.258
101388.359
101388.465
101388.574
101388.687
101388.804
101388.928
101389.057
101389.194
101389.341
101389.5
101389.674
101389.865
101390.08
101390.321
101390.593
101390.903
101391.257
101391.657
101392.108
101392.613
101393.177
101393.811
101394.525
101395.352
101396.25
101397.188
101398.168
101399.229
101400.226
101400.983
101401.764
101402.887
101404.125
101405.356
101406.445
101407.308
101408.754
101410.33
101411.332
101412.692
101414.558
101415.788
101416.977
101418.493
101420.02
101421.635
101423.338
101425.047
101426.747
101428.408
101430.211
101384.145
101384.151
101384.159
101384.17
101384.184
101384.202
101384.223
101384.247
101384.275
101384.307
101384.343
101384.383
101384.427
101384.475
101384.528
101384.585
101384.645
101384.712
101384.787
101384.862
101384.935
101385.018
101385.108
101385.2
101385.295
101385.395
101385.498
101385.606
101385.717
101385.834
101385.955
101386.082
101386.216
101386.357
101386.508
101386.671
101386.847
101387.041
101387.256
101387.496
101387.765
101388.068
101388.41
101388.795
101389.229
101389.711
101390.239
101390.812
101391.427
101392.066
101392.713
101393.339
101394.207
101395.589
101397.033
101398.239
101399.316
101400.491
101401.913
101403.313
101404.155
101404.884
101405.882
101407.201
101408.462
101409.435
101411.081
101412.808
101413.846
101415.067
101416.473
101417.907
101419.61
101421.31
101422.994
101424.791
101426.528
101428.231
101430.623
101433.048
101380.96
101380.972
101380.988
101381.007
101381.029
101381.054
101381.084
101381.117
101381.155
101381.197
101381.243
101381.294
101381.348
101381.408
101381.473
101381.545
101381.619
101381.694
101381.777
101381.866
101381.958
101382.054
101382.155
101382.26
101382.369
101382.484
101382.603
101382.727
101382.858
101382.995
101383.14
101383.294
101383.46
101383.64
101383.836
101384.053
101384.294
101384.563
101384.867
101385.209
101385.596
101386.033
101386.526
101387.08
101387.699
101388.388
101389.147
101389.983
101390.907
101391.902
101392.948
101394.449
101395.985
101396.847
101397.66
101398.555
101399.414
101400.392
101401.32
101402.119
101403.228
101404.836
101406.185
101407.417
101409.06
101410.753
101412.137
101413.242
101414.428
101415.68
101417.16
101418.821
101420.525
101422.274
101424.108
101426.133
101428.221
101430.187
101432.365
101433.934
101377.365
101377.385
101377.41
101377.438
101377.47
101377.506
101377.546
101377.591
101377.639
101377.692
101377.751
101377.815
101377.883
101377.954
101378.032
101378.114
101378.203
101378.295
101378.391
101378.493
101378.599
101378.71
101378.826
101378.947
101379.074
101379.207
101379.346
101379.493
101379.649
101379.816
101379.996
101380.192
101380.406
101380.643
101380.907
101381.202
101381.533
101381.905
101382.325
101382.797
101383.327
101383.921
101384.583
101385.317
101386.13
101387.026
101388.005
101389.042
101390.143
101391.2
101392.598
101393.885
101394.616
101395.445
101396.572
101397.865
101399
101400.103
101401.483
101402.983
101404.175
101405.128
101406.565
101408.224
101409.669
101410.956
101411.606
101412.68
101414.695
101416.588
101418.43
101420.264
101422.001
101423.848
101425.78
101427.458
101429.276
101431.205
101432.671
101433.92
101373.326
101373.356
101373.393
101373.433
101373.476
101373.524
101373.576
101373.633
101373.696
101373.762
101373.833
101373.91
101373.992
101374.079
101374.17
101374.267
101374.369
101374.476
101374.587
101374.705
101374.827
101374.955
101375.089
101375.23
101375.379
101375.536
101375.704
101375.883
101376.077
101376.289
101376.521
101376.777
101377.062
101377.379
101377.734
101378.131
101378.575
101379.07
101379.62
101380.226
101380.892
101381.615
101382.392
101383.199
101384.044
101384.875
101385.959
101387.516
101389.196
101390.904
101391.727
101392.443
101393.683
101395.004
101396.343
101397.529
101398.61
101399.98
101401.298
101402.457
101404.02
101406.054
101407.528
101408.816
101410.018
101411.326
101413.039
101414.694
101416.339
101417.994
101419.657
101421.404
101423.03
101424.752
101426.756
101429.107
101431.476
101433.561
101435.674
101437.263
101368.822
101368.864
101368.914
101368.968
101369.025
101369.087
101369.153
101369.224
101369.3
101369.382
101369.469
101369.56
101369.657
101369.759
101369.867
101369.98
101370.098
101370.222
101370.353
101370.489
101370.633
101370.784
101370.945
101371.116
101371.299
101371.496
101371.71
101371.944
101372.202
101372.487
101372.804
101373.158
101373.554
101373.996
101374.489
101375.038
101375.647
101376.318
101377.055
101377.859
101378.732
101379.675
101380.671
101381.728
101383.073
101384.896
101386.521
101387.538
101388.26
101388.907
101389.983
101391.641
101393.198
101394.648
101396.106
101397.492
101398.786
101400.318
101401.971
101403.516
101404.958
101406.489
101407.854
101409.18
101410.84
101412.537
101414.232
101415.989
101417.851
101419.821
101421.766
101423.665
101425.489
101427.485
101430.03
101431.943
101433.394
101434.998
101436.699
101439.17
101363.85
101363.906
101363.972
101364.041
101364.113
101364.19
101364.272
101364.359
101364.451
101364.549
101364.652
101364.76
101364.874
101364.994
101365.12
101365.252
101365.391
101365.538
101365.693
101365.857
101366.032
101366.219
101366.421
101366.641
101366.88
101367.143
101367.434
101367.758
101368.118
101368.522
101368.973
101369.479
101370.043
101370.672
101371.37
101372.141
101372.988
101373.912
101374.915
101375.994
101377.146
101378.362
101379.594
101380.975
101382.593
101383.75
101384.589
101385.625
101386.965
101388.313
101389.715
101391.22
101392.817
101394.421
101396.1
101397.984
101400.142
101401.662
101402.605
101403.755
101405.028
101406.276
101407.854
101409.824
101411.703
101413.427
101415.016
101416.877
101419.243
101421.817
101424.095
101426.09
101428.216
101429.992
101430.931
101432.235
101434.394
101436.211
101438.452
101440.989
101358.438
101358.509
101358.592
101358.677
101358.765
101358.858
101358.956
101359.059
101359.167
101359.281
101359.4
101359.525
101359.657
101359.795
101359.941
101360.095
101360.257
101360.431
101360.615
101360.814
101361.029
101361.263
101361.518
101361.8
101362.111
101362.457
101362.842
101363.272
101363.752
101364.288
101364.883
101365.543
101366.271
101367.07
101367.943
101368.889
101369.911
101371.004
101372.175
101373.427
101374.764
101376.146
101377.577
101379.013
101380.103
101381.26
101382.837
101384.448
101386.064
101387.751
101389.43
101391.065
101392.663
101394.169
101395.958
101398.097
101399.779
101401.176
101402.579
101403.796
101404.996
101406.426
101408.603
101410.939
101413.179
101415.574
101418.078
101419.792
101421.119
101422.567
101424.28
101426.494
101428.941
101431.303
101432.889
101434.641
101437.078
101439.507
101441.828
101443.38
101352.621
101352.708
101352.809
101352.91
101353.014
101353.123
101353.236
101353.355
101353.479
101353.609
101353.745
101353.888
101354.039
101354.198
101354.367
101354.547
101354.74
101354.948
101355.174
101355.421
101355.692
101355.991
101356.323
101356.693
101357.106
101357.567
101358.082
101358.656
101359.294
101360
101360.779
101361.631
101362.557
101363.555
101364.623
101365.752
101366.932
101368.131
101369.353
101370.569
101372.149
101374.106
101375.849
101377.72
101379.826
101381.442
101382.613
101383.868
101385.63
101387.779
101389.96
101391.623
101392.854
101394.311
101395.577
101396.983
101399.185
101401.923
101404.236
101405.918
101407.733
101409.953
101411.812
101413.397
101414.965
101416.564
101418.21
101419.859
101421.878
101424.253
101426.481
101428.584
101430.941
101433.621
101436.281
101438.464
101440.519
101442.856
101444.779
101445.587
101346.576
101346.678
101346.796
101346.914
101347.035
101347.159
101347.289
101347.424
101347.565
101347.713
101347.869
101348.034
101348.209
101348.397
101348.599
101348.817
101349.056
101349.317
101349.606
101349.927
101350.284
101350.683
101351.131
101351.632
101352.193
101352.82
101353.519
101354.295
101355.153
101356.095
101357.125
101358.244
101359.452
101360.748
101362.135
101363.61
101365.162
101366.777
101368.828
101371.528
101373.842
101375.264
101376.493
101377.777
101378.929
101380.509
101382.732
101385.056
101387.004
101388.358
101389.304
101390.637
101393.012
101395.434
101398.08
101400.245
101401.97
101403.59
101405.287
101407.187
101408.875
101410.159
101412.015
101414.23
101415.882
101417.62
101419.407
101421.749
101424.845
101427.157
101429.394
101432.447
101434.691
101436.509
101438.319
101440.151
101442.104
101443.981
101446.028
101448.089
101387.324
101387.328
101387.334
101387.341
101387.351
101387.362
101387.375
101387.39
101387.407
101387.427
101387.448
101387.471
101387.497
101387.525
101387.555
101387.588
101387.623
101387.66
101387.701
101387.744
101387.789
101387.838
101387.89
101387.945
101388.003
101388.065
101388.13
101388.199
101388.272
101388.348
101388.429
101388.515
101388.604
101388.699
101388.798
101388.902
101389.012
101389.128
101389.249
101389.377
101389.51
101389.649
101389.794
101389.945
101390.104
101390.268
101390.437
101390.612
101390.795
101390.992
101391.207
101391.436
101391.681
101391.929
101392.175
101392.43
101392.693
101392.965
101393.244
101393.527
101393.811
101394.09
101394.357
101394.601
101394.807
101394.962
101395.041
101395.021
101394.892
101394.644
101394.303
101393.816
101393.023
101391.86
101391.172
101390.753
101389.736
101388.097
101385.754
101384.414
101389.88
101389.885
101389.891
101389.899
101389.909
101389.921
101389.935
101389.951
101389.968
101389.988
101390.01
101390.034
101390.059
101390.088
101390.118
101390.151
101390.186
101390.224
101390.264
101390.307
101390.352
101390.401
101390.452
101390.507
101390.564
101390.625
101390.689
101390.757
101390.828
101390.903
101390.982
101391.065
101391.153
101391.244
101391.34
101391.441
101391.547
101391.658
101391.775
101391.897
101392.025
101392.158
101392.299
101392.446
101392.599
101392.757
101392.922
101393.092
101393.269
101393.454
101393.643
101393.836
101394.031
101394.228
101394.429
101394.636
101394.856
101395.085
101395.318
101395.554
101395.79
101396.02
101396.243
101396.465
101396.684
101396.904
101397.14
101397.324
101397.369
101397.312
101397.092
101396.735
101396.329
101395.84
101394.874
101393.33
101392.667
101391.943
101390.636
101388.374
101392.191
101392.196
101392.203
101392.212
101392.222
101392.234
101392.249
101392.264
101392.282
101392.302
101392.324
101392.348
101392.373
101392.401
101392.431
101392.464
101392.498
101392.535
101392.575
101392.617
101392.661
101392.709
101392.759
101392.812
101392.868
101392.926
101392.988
101393.054
101393.122
101393.194
101393.27
101393.35
101393.433
101393.52
101393.612
101393.707
101393.808
101393.912
101394.022
101394.136
101394.256
101394.381
101394.511
101394.647
101394.789
101394.937
101395.091
101395.251
101395.418
101395.592
101395.769
101395.95
101396.135
101396.323
101396.518
101396.719
101396.924
101397.133
101397.343
101397.554
101397.761
101397.963
101398.155
101398.328
101398.481
101398.594
101398.641
101398.671
101398.686
101398.694
101398.775
101398.736
101398.413
101397.913
101397.316
101396.833
101395.92
101394.724
101393.902
101392.714
101394.266
101394.271
101394.278
101394.287
101394.298
101394.31
101394.324
101394.34
101394.357
101394.377
101394.398
101394.421
101394.447
101394.474
101394.503
101394.534
101394.568
101394.604
101394.642
101394.682
101394.725
101394.771
101394.819
101394.869
101394.923
101394.979
101395.038
101395.1
101395.165
101395.233
101395.305
101395.38
101395.459
101395.541
101395.627
101395.716
101395.81
101395.908
101396.01
101396.117
101396.228
101396.343
101396.464
101396.589
101396.72
101396.856
101396.997
101397.143
101397.296
101397.453
101397.617
101397.786
101397.961
101398.143
101398.332
101398.529
101398.73
101398.934
101399.139
101399.343
101399.545
101399.743
101399.932
101400.107
101400.259
101400.38
101400.456
101400.459
101400.425
101400.269
101399.95
101399.624
101399.379
101399.161
101398.935
101398.403
101397.343
101396.423
101395.483
101394.352
101396.112
101396.118
101396.125
101396.134
101396.144
101396.156
101396.17
101396.185
101396.203
101396.222
101396.242
101396.265
101396.289
101396.315
101396.344
101396.374
101396.406
101396.44
101396.477
101396.515
101396.556
101396.599
101396.645
101396.693
101396.743
101396.797
101396.852
101396.911
101396.972
101397.037
101397.104
101397.175
101397.248
101397.325
101397.406
101397.489
101397.577
101397.668
101397.763
101397.863
101397.966
101398.073
101398.185
101398.302
101398.423
101398.549
101398.68
101398.816
101398.958
101399.104
101399.256
101399.413
101399.576
101399.743
101399.915
101400.092
101400.274
101400.458
101400.644
101400.832
101401.018
101401.202
101401.381
101401.551
101401.709
101401.848
101401.967
101402.058
101402.092
101402.072
101401.924
101401.616
101401.209
101400.639
101399.894
101399.342
101398.879
101397.992
101396.979
101395.961
101397.743
101397.749
101397.756
101397.764
101397.775
101397.786
101397.8
101397.814
101397.831
101397.849
101397.869
101397.89
101397.914
101397.939
101397.965
101397.994
101398.024
101398.057
101398.091
101398.128
101398.166
101398.207
101398.25
101398.295
101398.343
101398.393
101398.445
101398.5
101398.558
101398.618
101398.681
101398.747
101398.816
101398.887
101398.962
101399.041
101399.122
101399.207
101399.296
101399.388
101399.485
101399.585
101399.69
101399.798
101399.912
101400.03
101400.152
101400.28
101400.412
101400.55
101400.693
101400.842
101400.995
101401.154
101401.318
101401.486
101401.66
101401.838
101402.019
101402.203
101402.389
101402.575
101402.76
101402.94
101403.113
101403.274
101403.417
101403.535
101403.62
101403.657
101403.631
101403.53
101403.277
101402.82
101402.158
101401.215
101400.197
101399.226
101398.196
101397.311
101399.171
101399.176
101399.183
101399.191
101399.201
101399.212
101399.224
101399.238
101399.254
101399.271
101399.29
101399.31
101399.332
101399.356
101399.381
101399.408
101399.436
101399.467
101399.499
101399.533
101399.569
101399.607
101399.648
101399.69
101399.734
101399.781
101399.83
101399.881
101399.935
101399.991
101400.05
101400.111
101400.176
101400.243
101400.313
101400.386
101400.462
101400.542
101400.625
101400.711
101400.802
101400.896
101400.995
101401.098
101401.205
101401.317
101401.434
101401.556
101401.684
101401.817
101401.955
101402.1
101402.251
101402.407
101402.57
101402.739
101402.914
101403.095
101403.282
101403.475
101403.671
101403.872
101404.075
101404.279
101404.481
101404.678
101404.865
101405.037
101405.183
101405.295
101405.358
101405.356
101405.264
101405.057
101404.687
101404.144
101403.291
101402.385
101401.233
101400.017
101400.408
101400.413
101400.419
101400.427
101400.436
101400.446
101400.458
101400.471
101400.485
101400.501
101400.519
101400.537
101400.558
101400.579
101400.603
101400.628
101400.654
101400.683
101400.713
101400.744
101400.778
101400.813
101400.85
101400.889
101400.931
101400.974
101401.019
101401.067
101401.117
101401.169
101401.223
101401.281
101401.34
101401.403
101401.469
101401.537
101401.609
101401.683
101401.762
101401.843
101401.929
101402.019
101402.113
101402.211
101402.314
101402.423
101402.536
101402.656
101402.781
101402.913
101403.051
101403.197
101403.349
101403.509
101403.677
101403.853
101404.036
101404.228
101404.429
101404.638
101404.855
101405.08
101405.313
101405.551
101405.794
101406.04
101406.284
101406.522
101406.749
101406.955
101407.131
101407.263
101407.335
101407.331
101407.233
101407.027
101406.713
101406.14
101405.302
101404.157
101401.468
101401.472
101401.478
101401.484
101401.492
101401.502
101401.512
101401.524
101401.537
101401.552
101401.567
101401.584
101401.603
101401.623
101401.644
101401.667
101401.691
101401.717
101401.744
101401.773
101401.804
101401.836
101401.87
101401.906
101401.944
101401.984
101402.026
101402.069
101402.115
101402.163
101402.214
101402.267
101402.323
101402.381
101402.441
101402.505
101402.572
101402.643
101402.716
101402.794
101402.875
101402.961
101403.051
101403.146
101403.247
101403.353
101403.465
101403.583
101403.709
101403.841
101403.982
101404.131
101404.289
101404.456
101404.633
101404.82
101405.018
101405.226
101405.446
101405.678
101405.922
101406.178
101406.446
101406.727
101407.017
101407.318
101407.625
101407.937
101408.248
101408.552
101408.841
101409.104
101409.328
101409.496
101409.586
101409.58
101409.454
101409.172
101408.726
101407.994
101402.363
101402.366
101402.371
101402.376
101402.383
101402.391
101402.4
101402.41
101402.421
101402.434
101402.448
101402.463
101402.48
101402.497
101402.516
101402.537
101402.558
101402.582
101402.606
101402.632
101402.66
101402.689
101402.72
101402.753
101402.787
101402.824
101402.861
101402.901
101402.943
101402.987
101403.034
101403.082
101403.133
101403.186
101403.243
101403.302
101403.365
101403.431
101403.5
101403.573
101403.651
101403.733
101403.82
101403.912
101404.01
101404.114
101404.225
101404.343
101404.47
101404.605
101404.749
101404.904
101405.068
101405.244
101405.432
101405.633
101405.847
101406.074
101406.316
101406.574
101406.847
101407.137
101407.443
101407.767
101408.107
101408.464
101408.836
101409.221
101409.615
101410.014
101410.411
101410.798
101411.162
101411.49
101411.763
101411.958
101412.06
101412.044
101411.913
101411.531
101403.109
101403.111
101403.114
101403.118
101403.123
101403.129
101403.136
101403.144
101403.154
101403.164
101403.176
101403.189
101403.203
101403.218
101403.235
101403.252
101403.271
101403.292
101403.313
101403.336
101403.36
101403.386
101403.413
101403.442
101403.473
101403.505
101403.538
101403.574
101403.611
101403.65
101403.691
101403.735
101403.781
101403.83
101403.883
101403.937
101403.995
101404.055
101404.12
101404.189
101404.263
101404.341
101404.425
101404.514
101404.61
101404.712
101404.821
101404.939
101405.065
101405.202
101405.349
101405.507
101405.678
101405.863
101406.061
101406.275
101406.504
101406.751
101407.016
101407.3
101407.604
101407.928
101408.274
101408.641
101409.03
101409.441
101409.874
101410.326
101410.797
101411.282
101411.776
101412.273
101412.761
101413.23
101413.664
101414.042
101414.344
101414.545
101414.661
101414.583
101403.707
101403.707
101403.708
101403.71
101403.713
101403.716
101403.721
101403.727
101403.734
101403.742
101403.751
101403.761
101403.772
101403.784
101403.797
101403.812
101403.827
101403.844
101403.862
101403.882
101403.903
101403.925
101403.949
101403.974
101404
101404.029
101404.059
101404.091
101404.124
101404.16
101404.198
101404.237
101404.279
101404.324
101404.37
101404.42
101404.473
101404.53
101404.591
101404.655
101404.724
101404.798
101404.876
101404.961
101405.051
101405.148
101405.252
101405.368
101405.497
101405.637
101405.789
101405.954
101406.132
101406.327
101406.537
101406.765
101407.01
101407.273
101407.555
101407.855
101408.179
101408.528
101408.904
101409.305
101409.733
101410.189
101410.672
101411.182
101411.719
101412.279
101412.859
101413.451
101414.047
101414.635
101415.202
101415.728
101416.188
101416.553
101416.806
101416.878
101404.183
101404.181
101404.179
101404.179
101404.179
101404.18
101404.182
101404.185
101404.189
101404.195
101404.201
101404.208
101404.216
101404.225
101404.236
101404.247
101404.26
101404.273
101404.288
101404.304
101404.322
101404.34
101404.36
101404.381
101404.404
101404.428
101404.454
101404.482
101404.511
101404.541
101404.572
101404.607
101404.645
101404.684
101404.726
101404.77
101404.818
101404.869
101404.924
101404.983
101405.047
101405.117
101405.193
101405.277
101405.37
101405.471
101405.58
101405.694
101405.815
101405.948
101406.093
101406.252
101406.425
101406.614
101406.819
101407.043
101407.285
101407.545
101407.825
101408.125
101408.476
101408.88
101409.304
101409.751
101410.225
101410.726
101411.254
101411.808
101412.389
101412.997
101413.634
101414.295
101414.971
101415.651
101416.323
101416.968
101417.55
101418.039
101418.383
101418.513
101404.52
101404.515
101404.51
101404.507
101404.504
101404.502
101404.501
101404.501
101404.502
101404.504
101404.507
101404.511
101404.516
101404.522
101404.529
101404.537
101404.546
101404.557
101404.568
101404.581
101404.595
101404.611
101404.627
101404.644
101404.663
101404.682
101404.703
101404.725
101404.75
101404.778
101404.807
101404.837
101404.868
101404.902
101404.938
101404.976
101405.016
101405.06
101405.107
101405.158
101405.212
101405.271
101405.336
101405.405
101405.481
101405.567
101405.663
101405.771
101405.891
101406.023
101406.17
101406.333
101406.515