/*--------------------------------*- C++ -*----------------------------------*\
  =========                 |
  \\      /  F ield         | OpenFOAM: The Open Source CFD Toolbox
   \\    /   O peration     | Website:  https://openfoam.org
    \\  /    A nd           | Version:  8
     \\/     M anipulation  |
\*---------------------------------------------------------------------------*/
FoamFile
{
    version     2.0;
    format      ascii;
    class       volScalarField;
    location    "0.028";
    object      T;
}
// * * * * * * * * * * * * * * * * * * * * * * * * * * * * * * * * * * * * * //

dimensions      [0 0 0 1 0 0 0];

internalField   nonuniform List<scalar> 
42400
(
472.200351
470.583222
468.923323
467.219507
465.470675
463.6758
461.833947
459.944292
458.00615
456.019005
453.982543
451.896683
449.761621
447.577867
445.346291
443.068168
440.745225
438.379687
435.974329
433.532519
431.058262
428.556237
426.031832
423.491168
420.941109
418.389269
415.843994
413.314333
410.809987
408.341242
405.918877
403.554049
401.258163
399.042715
396.91913
394.898574
392.991769
391.208809
389.558992
388.05069
386.691194
385.486575
384.441543
383.559341
382.841616
382.288351
381.897893
381.666941
381.592152
381.662383
381.872216
382.211122
382.667961
383.227878
383.872913
384.579928
385.320341
386.062998
386.787285
387.498807
387.926788
388.011565
387.770265
387.046119
386.049038
384.687921
382.862263
380.394739
377.163218
373.361869
368.906009
363.174735
357.486641
352.293803
345.430103
337.397314
330.168924
325.011171
318.743022
313.71223
472.237993
470.697015
469.115355
467.491978
465.82591
464.116249
462.362192
460.563055
458.718297
456.827549
454.890651
452.907678
450.878984
448.805239
446.687472
444.527115
442.326047
440.086643
437.811812
435.50505
433.170473
430.812856
428.437663
426.051065
423.659959
421.27196
418.895389
416.539243
414.213144
411.927268
409.692261
407.519123
405.419078
403.403432
401.483415
399.67002
397.973847
396.404901
394.972389
393.684493
392.548133
391.56875
390.750081
390.09401
389.600404
389.266955
389.088825
389.058629
389.16536
389.398668
389.741133
390.171661
390.665091
391.192206
391.726477
392.256068
392.628507
392.733214
392.556289
391.895098
391.009477
389.821751
388.258582
386.187005
383.506388
380.144229
376.082347
371.341461
365.816197
359.808209
353.707519
346.8359
339.627513
333.321608
327.260887
320.775256
314.811949
309.666987
305.617022
302.202396
472.285225
470.839795
469.356302
467.833852
466.271622
464.66887
463.024961
461.339383
459.611777
457.841963
456.029972
454.176078
452.280833
450.345107
448.370129
446.357526
444.309363
442.228193
440.117089
437.97969
435.820232
433.643585
431.455271
429.261484
427.069098
424.885655
422.719348
420.578985
418.473932
416.414043
414.409574
412.47108
410.609294
408.834967
407.158698
405.590722
404.1407
402.817424
401.628551
400.58028
399.6771
398.921512
398.313739
397.851314
397.528887
397.338726
397.268822
397.30011
397.414059
397.587515
397.796002
398.021087
398.15423
398.105525
397.795381
397.148865
396.250498
395.108841
393.656
391.810465
389.440769
386.496991
382.939274
378.72527
373.865864
368.398601
362.394136
356.015652
349.2756
342.285092
335.612165
329.198618
322.807123
316.984555
312.04899
307.930074
304.472754
301.59487
300.275626
300.046694
472.338641
471.00127
469.628792
468.220474
466.775661
465.29379
463.774414
462.21722
460.622053
458.988947
457.318151
455.610163
453.865762
452.086044
450.272461
448.426855
446.551499
444.649133
442.722999
440.776873
438.815096
436.842594
434.864895
432.888132
430.919043
428.964954
427.033748
425.133824
423.274024
421.463547
419.711841
418.028463
416.422916
414.904426
413.481713
412.162708
410.954259
409.861813
408.889076
408.037638
407.306549
406.69194
406.187144
405.78102
405.458813
405.204108
404.997926
404.822919
404.57872
404.215718
403.675908
402.890956
401.899302
400.704448
399.24739
397.464157
395.255488
392.555488
389.325215
385.534451
381.172578
376.232724
370.751763
364.793671
358.442578
351.833122
345.068509
338.34488
331.819359
325.528578
319.714947
314.580507
310.181534
306.439643
303.608773
301.30304
300.171685
299.931749
299.877195
299.866271
472.394334
471.169626
469.912892
468.623563
467.301159
465.945301
464.555734
463.132348
461.675197
460.18453
458.660815
457.104768
455.517389
453.899985
452.254211
450.582097
448.886078
447.16903
445.434287
443.685671
441.927505
440.164622
438.40237
436.646596
434.903626
433.180224
431.483539
429.821024
428.200328
426.629169
425.115166
423.665642
422.287391
420.986416
419.767631
418.634528
417.588832
416.630111
415.755398
414.959198
414.232757
413.564413
412.941106
412.321188
411.668367
410.942013
410.095787
409.077426
407.927524
406.602982
405.057772
403.238805
401.069996
398.491766
395.46637
391.96319
387.963371
383.460162
378.463716
372.983269
367.07583
360.827582
354.335658
347.71424
341.065866
334.558602
328.325282
322.500356
317.211888
312.55223
308.585872
305.368634
302.973068
301.264876
300.170584
299.939405
299.894076
299.879517
299.873318
299.873653
472.447918
471.331606
470.186231
469.011381
467.806736
466.572088
465.307356
464.012607
462.688075
461.334186
459.951583
458.541146
457.104024
455.641656
454.155798
452.648545
451.122354
449.580058
448.024878
446.460433
444.890733
443.32017
441.753492
440.195763
438.652307
437.128633
435.630329
434.162937
432.731793
431.341848
429.997437
428.702033
427.457962
426.2661
425.125516
424.033112
422.98349
421.968352
420.976006
419.985488
418.971652
417.905774
416.75653
415.519017
414.166566
412.666852
410.982875
409.069722
406.863867
404.32701
401.42359
398.12283
394.401604
390.246652
385.655551
380.637276
375.214948
369.411441
363.286612
356.924942
350.42532
343.903574
337.476791
331.263837
325.374876
319.932307
315.053385
310.830143
307.313385
304.542102
302.49551
301.105703
300.224514
299.961254
299.898818
299.882211
299.877373
299.87138
299.862493
299.848701
472.49456
471.472596
470.424147
469.348924
468.246737
467.117503
465.961263
464.778201
463.568656
462.333142
461.072371
459.787263
458.478971
457.148893
455.798687
454.430281
453.045877
451.647953
450.239254
448.822775
447.401732
445.979519
444.559651
443.145686
441.741128
440.349306
438.973232
437.61542
436.277699
434.960977
433.66498
432.38798
431.126496
429.875071
428.625844
427.367567
426.085634
424.763805
423.382416
421.923646
420.365929
418.683527
416.845151
414.81032
412.544766
410.01566
407.19067
404.040716
400.541651
396.675588
392.432377
387.810869
382.820044
377.479494
371.818885
365.87168
359.691187
353.357592
346.966148
340.620336
334.429568
328.506342
322.966091
317.905386
313.418625
309.571311
306.417374
303.972443
302.202362
301.02609
300.315942
300.000995
299.919761
299.893526
299.881862
299.872332
299.857425
299.842233
299.828863
299.826319
472.52931
471.577636
470.601385
469.600345
468.574392
467.523495
466.447732
465.347298
464.222519
463.073859
461.901933
460.707518
459.491554
458.255152
456.999592
455.726312
454.436905
453.133086
451.816668
450.489518
449.153495
447.810382
446.461795
445.109073
443.753143
442.394374
441.032395
439.665906
438.292468
436.908322
435.508359
434.085529
432.630603
431.132362
429.577199
427.949767
426.232831
424.404874
422.442272
420.320529
418.013772
415.495324
412.738454
409.717218
406.408442
402.792735
398.855501
394.588133
389.989115
385.064904
379.831059
374.312466
368.543361
362.566537
356.42817
350.203334
343.978298
337.847099
331.917117
326.295419
321.081109
316.358863
312.214939
308.708786
305.873838
303.694124
302.119429
301.068826
300.437912
300.111653
299.974543
299.926765
299.900555
299.876549
299.853269
299.834441
299.827046
299.825642
299.825445
299.825381
472.547728
471.633299
470.695277
469.733453
468.747681
467.737885
466.70406
465.646279
464.564696
463.459548
462.331155
461.179921
460.006322
458.810902
457.594254
456.357002
455.099769
453.82314
452.527611
451.213531
449.881015
448.529857
447.159404
445.768442
444.355049
442.916382
441.448417
439.94559
438.400266
436.804642
435.149142
433.422625
431.612309
429.703326
427.679031
425.521192
423.210204
420.725413
418.0456
415.149545
412.016574
408.62787
404.967379
401.022552
396.785311
392.252989
387.42921
382.324713
376.958185
371.35683
365.557204
359.604338
353.547934
347.454081
341.407587
335.500197
329.825357
324.478881
319.559062
315.146521
311.308834
308.088977
305.504923
303.538075
302.125143
301.171421
300.575598
300.234166
300.055421
299.967933
299.912183
299.87174
299.843509
299.828759
299.82689
299.826004
299.825597
299.82533
299.825053
299.824548
472.546955
471.630939
470.691219
469.727515
468.739582
467.727211
466.690229
465.628495
464.541892
463.430325
462.2937
461.131915
459.944836
458.732281
457.493992
456.229599
454.938569
453.620147
452.273279
450.896524
449.487939
448.044945
446.562896
445.036074
443.459373
441.826937
440.131904
438.366622
436.52291
434.589912
432.555346
430.405668
428.126146
425.701006
423.113664
420.34704
417.383939
414.207456
410.801826
407.153232
403.250324
399.085004
394.653242
389.955909
384.999601
379.797417
374.369675
368.744763
362.959874
357.061503
351.104673
345.147806
339.269029
333.557191
328.105638
323.006189
318.344656
314.194581
310.60972
307.618733
305.226106
303.402149
302.085199
301.189796
300.620699
300.278596
300.082389
299.963538
299.893368
299.85214
299.835971
299.83004
299.825572
299.824456
299.824622
299.824802
299.822792
299.821733
299.820221
299.820611
472.527629
471.572521
470.592644
469.587628
468.557103
467.500694
466.418013
465.308651
464.172171
463.008097
461.815903
460.594598
459.342383
458.057548
456.738565
455.383595
453.990436
452.556456
451.078535
449.553001
447.975567
446.341321
444.645964
442.884626
441.050122
439.134177
437.127527
435.019957
432.800292
430.456426
427.975418
425.343648
422.547017
419.571212
416.402002
413.025753
409.430144
405.604529
401.540577
397.23296
392.680109
387.885013
382.856069
377.60793
372.162334
366.548819
360.805454
354.979553
349.127829
343.315461
337.609548
332.092113
326.851137
321.972958
317.536341
313.606118
310.230245
307.426578
305.18148
303.454506
302.183831
301.293777
300.700585
300.324348
300.097464
299.964613
299.885959
299.85306
299.841908
299.836124
299.832403
299.829051
299.825668
299.82278
299.821563
299.820405
299.819579
299.81722
299.817187
299.817438
472.488768
471.455049
470.39439
469.306246
468.190018
467.045045
465.870582
464.665298
463.427702
462.156343
460.849519
459.505627
458.123443
456.701147
455.23614
453.725442
452.165641
450.55284
448.882623
447.149988
445.349279
443.474187
441.517699
439.472003
437.328494
435.077767
432.709651
430.213267
427.577126
424.789263
421.83741
418.709218
415.392552
411.876105
408.14966
404.204604
400.034518
395.635829
391.008552
386.157092
381.091111
375.826425
370.385894
364.800232
359.108613
353.359104
347.60887
341.923704
336.376549
331.042188
325.997253
321.320634
317.083391
313.339214
310.12277
307.446561
305.297453
303.634178
302.390606
301.493896
300.872185
300.458092
300.191958
300.026513
299.928382
299.876584
299.855213
299.846522
299.840639
299.8356
299.831206
299.826379
299.822142
299.819457
299.819195
299.819535
299.819366
299.81714
299.815421
299.815711
472.432282
471.284293
470.106207
468.897237
467.656484
466.382908
465.074763
463.730924
462.350046
460.930297
459.469585
457.965527
456.415408
454.816139
453.164213
451.455661
449.686011
447.850238
445.942748
443.957339
441.887146
439.724651
437.461677
435.089392
432.598348
429.978533
427.219459
424.310279
421.239943
417.997389
414.571987
410.953791
407.133939
403.105136
398.862224
394.402831
389.728105
384.84353
379.75979
374.49367
369.068928
363.517078
357.877956
352.199987
346.539947
340.962476
335.538451
330.342489
325.449123
320.926759
316.835469
313.221723
310.111865
307.512253
305.406656
303.758442
302.513147
301.605521
300.966361
300.529824
300.241248
300.059168
299.950787
299.886527
299.857155
299.845569
299.840499
299.836627
299.832739
299.829138
299.825853
299.823098
299.8202
299.817989
299.816653
299.815946
299.815187
299.813274
299.811784
299.810574
472.362503
471.073383
469.750342
468.392374
466.9983
465.566576
464.095863
462.584371
461.030047
459.430537
457.783154
456.084843
454.332147
452.521162
450.647513
448.706313
446.692139
444.598987
442.420273
440.148817
437.776847
435.29601
432.697412
429.971667
427.108986
424.099284
420.932334
417.598019
414.086625
410.389127
406.497595
402.405666
398.10911
393.606474
388.899814
383.995499
378.905061
373.646066
368.242937
362.727651
357.140218
351.528786
345.949234
340.464196
335.141371
330.051582
325.264294
320.843587
316.843943
313.305974
310.252341
307.68501
305.586328
303.921151
302.641653
301.691919
301.014328
300.551071
300.247667
300.057705
299.944994
299.882052
299.850434
299.844425
299.839288
299.835656
299.832917
299.831064
299.828071
299.824354
299.821528
299.818649
299.814776
299.811361
299.809052
299.807442
299.807063
299.809567
299.812486
299.811603
472.28241
470.831307
469.341943
467.813095
466.243314
464.630937
462.974168
461.270822
459.518389
457.714001
455.854398
453.935892
451.954337
449.905093
447.782999
445.582354
443.296901
440.919816
438.443718
435.860683
433.162281
430.339631
427.383488
424.28435
421.032621
417.618867
414.034047
410.269832
406.319005
402.175929
397.837106
393.301811
388.572813
383.657151
378.566958
373.32028
367.941831
362.463614
356.925287
351.374182
345.864806
340.45771
335.21754
330.210506
325.50123
321.150341
317.207413
313.707011
310.669391
308.097862
305.977832
304.278774
302.954385
301.952427
301.218752
300.700746
300.350487
300.126639
299.992153
299.915773
299.874918
299.856268
299.847689
299.843179
299.83899
299.834294
299.831744
299.830276
299.827932
299.823166
299.818315
299.814049
299.811566
299.809449
299.807402
299.806661
299.806665
299.8075
299.813796
299.81594
472.193953
470.563966
468.890953
467.173476
465.409822
463.598141
461.736242
459.821543
457.851081
455.821482
453.728925
451.569109
449.337232
447.027963
444.635428
442.153207
439.574335
436.891321
434.096189
431.180528
428.135585
424.95237
421.621839
418.135102
414.48367
410.659777
406.656766
402.469555
398.095175
393.533391
388.787392
383.86454
378.777142
373.543222
368.187205
362.740466
357.241614
351.736425
346.277297
340.922134
335.732581
330.771548
326.099874
321.772793
317.837095
314.326093
311.258429
308.64014
306.460103
304.693683
303.302413
302.237944
301.448509
300.882475
300.490988
300.230646
300.065154
299.964862
299.907318
299.87621
299.859777
299.849713
299.843219
299.838171
299.834255
299.830385
299.826692
299.824513
299.822823
299.819974
299.816018
299.812991
299.811498
299.80966
299.807537
299.806299
299.804694
299.804081
299.807499
299.815481
472.098366
470.275074
468.403627
466.482419
464.509572
462.482863
460.399703
458.257109
456.051666
453.779496
451.436228
449.016978
446.516329
443.928323
441.246469
438.463756
435.572692
432.565358
429.433495
426.168615
422.762179
419.205783
415.491413
411.611758
407.560582
403.333174
398.926869
394.341636
389.580737
384.651433
379.565712
374.341002
369.000805
363.57519
358.101038
352.621949
347.187689
341.853103
336.67643
331.717131
327.033209
322.678187
318.697554
315.125938
311.984543
309.279812
307.005864
305.14255
303.657336
302.508323
301.64803
301.024928
300.588986
300.29534
300.105335
299.987601
299.918235
299.879986
299.859249
299.847859
299.841577
299.838153
299.835045
299.832241
299.829464
299.826209
299.821786
299.817726
299.81524
299.813666
299.811199
299.809614
299.809814
299.81053
299.809715
299.807274
299.80512
299.803408
299.801915
299.808976
471.996728
469.9679
467.885476
465.747648
463.552261
461.296787
458.978281
456.593356
454.138148
451.60829
448.998896
446.304547
443.519293
440.636668
437.649723
434.551078
431.333006
427.987541
424.506637
420.882358
417.10712
413.173987
409.077035
404.811778
400.375658
395.76861
390.993684
386.057704
380.971958
375.752862
370.422557
365.009376
359.548085
354.079829
348.651658
343.315568
338.126976
333.142638
328.41814
324.005305
319.949381
316.286527
313.041514
310.226142
307.837195
305.856497
304.254097
302.991458
302.024574
301.307015
300.792818
300.438069
300.202512
300.052419
299.960861
299.907327
299.876997
299.860743
299.852142
299.846763
299.842202
299.838471
299.834475
299.82961
299.824776
299.819906
299.814915
299.80913
299.80597
299.804905
299.806141
299.807199
299.808846
299.810554
299.813128
299.811999
299.808282
299.806546
299.807915
299.810838
471.889945
469.645171
467.341072
464.97562
462.546401
460.050575
457.48485
454.845448
452.128085
449.327957
446.439732
443.457565
440.375123
437.185632
433.881952
430.45668
426.902294
423.211335
419.376633
415.391591
411.250526
406.949068
402.484628
397.856926
393.068575
388.125704
383.038606
377.822365
372.497426
367.090048
361.632559
356.163352
350.726525
345.371101
340.149761
335.117046
330.327039
325.830687
321.673094
317.89131
314.511907
311.548886
309.004503
306.867789
305.11297
303.705686
302.605556
301.768181
301.148042
300.702095
300.391128
300.182122
300.046057
299.96059
299.90895
299.87914
299.861264
299.851818
299.845616
299.840866
299.835894
299.829459
299.823451
299.817417
299.811668
299.807201
299.804163
299.803348
299.803171
299.80417
299.806151
299.808032
299.809078
299.810307
299.812574
299.8131
299.80906
299.805346
299.805638
299.812013
471.779051
469.310016
466.775702
464.173863
461.501823
458.756451
455.934127
453.03073
450.041622
446.961654
443.785186
440.506124
437.117985
433.613991
429.98719
426.230632
422.337573
418.301737
414.11763
409.780916
405.28885
400.640764
395.83862
390.88759
385.796668
380.579264
375.253765
369.843975
364.379408
358.89534
353.432545
348.036677
342.757225
337.646049
332.755502
328.136099
323.833775
319.887387
316.326554
313.169032
310.421106
308.078935
306.124965
304.531772
303.263766
302.279159
301.534663
300.98752
300.596874
300.325449
300.141368
300.019101
299.941451
299.894298
299.86668
299.852145
299.847311
299.843414
299.840068
299.836271
299.83234
299.826832
299.819596
299.814321
299.810465
299.807303
299.805526
299.804322
299.80383
299.804853
299.806577
299.807476
299.807871
299.807511
299.807901
299.808781
299.806678
299.802727
299.800348
299.804612
472.600881
471.793896
470.965917
470.116575
469.245498
468.352303
467.436596
466.497974
465.536023
464.550313
463.540401
462.505828
461.446115
460.360761
459.24924
458.110994
456.945433
455.751924
454.529789
453.278298
451.99666
450.684015
449.33943
447.961884
446.550266
445.103359
443.619836
442.098249
440.53702
438.934439
437.288661
435.597714
433.859345
432.071143
430.230478
428.334481
426.380016
424.363632
422.281486
420.129206
417.902151
415.595506
413.204063
410.722249
408.144182
405.463806
402.675023
399.771918
396.749037
393.6017
390.326636
386.922679
383.391582
379.738916
375.97517
372.116542
368.186215
364.210171
360.219113
356.248827
352.338994
348.531372
344.86778
341.387621
338.125499
335.109525
332.362709
329.904805
327.75686
325.944578
324.498486
323.42741
322.762534
322.44412
322.29998
322.300463
322.47679
322.751294
323.105657
323.517897
472.595769
471.778469
470.939943
470.079847
469.197828
468.293525
467.36657
466.416583
465.443177
464.445955
463.42451
462.378421
461.307257
460.21057
459.087895
457.938743
456.762602
455.558928
454.327143
453.066626
451.776709
450.456666
449.10571
447.722981
446.307539
444.85836
443.374325
441.854211
440.296684
438.700287
437.063428
435.384372
433.661232
431.891967
430.074387
428.206164
426.284847
424.307873
422.272609
420.176466
418.016269
415.788457
413.489146
411.113929
408.657528
406.11511
403.481755
400.752445
397.922183
394.986243
391.940558
388.782154
385.509694
382.124187
378.629851
375.03484
371.352602
367.601292
363.803329
359.986363
356.182474
352.427115
348.75787
345.212142
341.824727
338.626209
335.64195
332.891317
330.394452
328.175017
326.263711
324.693011
323.494717
322.675548
322.262714
322.202934
322.239971
322.467337
322.873609
323.426724
472.587553
471.753658
470.898144
470.020682
469.12094
468.198577
467.253248
466.284599
465.292273
464.275907
463.235135
462.169586
461.078885
459.962649
458.820493
457.652018
456.456818
455.234472
453.98454
452.706567
451.400073
450.064554
448.699415
447.303934
445.877331
444.418761
442.927312
441.401988
439.841712
438.245286
436.611329
434.938277
433.224393
431.467824
429.666677
427.819165
425.923886
423.979083
421.982438
419.931495
417.823676
415.656361
413.427086
411.133773
408.774898
406.346396
403.84459
401.264792
398.601596
395.851023
393.009233
390.072743
387.038797
383.905805
380.673919
377.345727
373.927236
370.42875
366.866153
363.259959
359.63492
356.019618
352.445677
348.945998
345.552865
342.296774
339.202556
336.291932
333.584815
331.097936
328.853347
326.876825
325.20161
323.861908
322.894987
322.316885
322.213972
322.27893
322.49113
323.008247
472.57621
471.719394
470.84039
469.938879
469.014538
468.06704
467.096055
466.101247
465.082281
464.038823
462.970539
461.8771
460.758179
459.613454
458.442608
457.245324
456.021277
454.770063
453.491271
452.184542
450.8495
449.485745
448.092898
446.670634
445.218594
443.736374
442.223517
440.679502
439.103731
437.495538
435.854226
434.179042
432.469142
430.723505
428.940835
427.119407
425.256781
423.350469
421.398065
419.396781
417.343316
415.233619
413.066259
410.843731
408.563881
406.224763
403.825136
401.365083
398.841104
396.249964
393.586907
390.846503
388.025705
385.121935
382.133412
379.059632
375.901984
372.664485
369.355448
365.989661
362.585705
359.165904
355.755896
352.383667
349.078181
345.867706
342.777177
339.828993
337.039566
334.42191
331.989611
329.759458
327.753394
325.999482
324.536026
323.397802
322.601809
322.247219
322.352779
322.576848
472.561738
471.675672
470.766674
469.834428
468.878614
467.89891
466.894992
465.866538
464.813231
463.734758
462.630817
461.501114
460.34537
459.163319
457.954686
456.719214
455.45669
454.166992
452.850014
451.5056
450.133604
448.733888
447.306318
445.850757
444.367063
442.855072
441.314598
439.745418
438.147268
436.519827
434.862717
433.175485
431.457591
429.70839
427.927105
426.11281
424.264408
422.380645
420.460146
418.501467
416.503212
414.464255
412.380849
410.245804
408.055742
405.806636
403.498068
401.137716
398.724437
396.258461
393.742074
391.169542
388.53719
385.837408
383.067956
380.227129
377.314123
374.329481
371.275626
368.159065
364.993886
361.797456
358.59026
355.395403
352.237687
349.142313
346.133352
343.232162
340.456339
337.820107
335.332486
333.001123
330.833633
328.843693
327.055953
325.497883
324.207002
323.231996
322.587345
322.53956
472.544087
471.622335
470.676737
469.706972
468.712717
467.693656
466.649471
465.579855
464.48451
463.363153
462.215522
461.04138
459.840518
458.612765
457.358004
456.07616
454.76718
453.431049
452.067794
450.677476
449.260189
447.816059
446.345235
444.847887
443.324194
441.774339
440.198499
438.59683
436.969461
435.316473
433.637894
431.933676
430.203685
428.447682
426.665305
424.856056
423.019283
421.154169
419.259721
417.334762
415.377923
413.387625
411.362016
409.299024
407.196704
405.053587
402.865405
400.62235
398.321611
395.96703
393.569543
391.129832
388.651197
386.127783
383.555857
380.925525
378.23538
375.484877
372.674429
369.805735
366.882955
363.919793
360.932663
357.940488
354.964214
352.025969
349.147898
346.35076
343.652554
341.067508
338.605342
336.27204
334.072185
332.009615
330.089904
328.322873
326.728214
325.341648
324.185458
323.285109
472.523086
471.558875
470.569721
469.555292
468.515262
467.449314
466.357139
465.238448
464.092972
462.920468
461.720729
460.493589
459.238924
457.956667
456.646801
455.309375
453.944496
452.552338
451.133138
449.687198
448.214883
446.716614
445.192867
443.644165
442.071068
440.474164
438.854055
437.211344
435.54662
433.860438
432.153301
430.425638
428.677786
426.909963
425.12225
423.314567
421.486656
419.638059
417.768106
415.875901
413.960319
412.019999
410.053356
408.058592
406.033737
403.976677
401.885149
399.756897
397.590514
395.380176
393.116772
390.798663
388.448314
386.066307
383.65633
381.211213
378.727459
376.193531
373.609486
370.976323
368.295851
365.570505
362.812072
360.036436
357.26128
354.505683
351.789399
349.131845
346.550903
344.061718
341.675723
339.400312
337.239213
335.193379
333.262214
331.448209
329.756825
328.197641
326.803789
325.570278
472.498501
471.484581
470.444426
469.377688
468.284031
467.163129
466.01468
464.838402
463.634047
462.401409
461.140325
459.850689
458.532462
457.185671
455.810424
454.406914
452.975422
451.516322
450.030083
448.51727
446.978545
445.41466
443.826454
442.214847
440.58083
438.925451
437.249803
435.555003
433.842175
432.112428
430.366826
428.606367
426.831949
425.044346
423.244168
421.431838
419.607558
417.77129
415.922725
414.061273
412.186045
410.295854
408.389222
406.464396
404.519378
402.55197
400.559831
398.540551
396.491751
394.411099
392.296657
390.147871
387.949355
385.701508
383.42539
381.128922
378.81509
376.476166
374.109455
371.700854
369.252294
366.766519
364.246866
361.699854
359.140981
356.586978
354.055362
351.563812
349.129336
346.767319
344.490568
342.30858
340.227172
338.248643
336.372295
334.595598
332.91766
331.337474
329.884052
328.563847
472.470111
471.398784
470.299716
469.172531
468.016867
466.832382
465.618763
464.375728
463.103038
461.800509
460.468016
459.105507
457.713014
456.290661
454.838674
453.35739
451.847266
450.308881
448.742945
447.150299
445.531918
443.888906
442.222495
440.534038
438.824998
437.096932
435.35148
433.590344
431.815258
430.027966
428.230191
426.423598
424.609757
422.79011
420.965928
419.138262
417.307906
415.475368
413.64082
411.804072
409.96456
408.121326
406.273024
404.417929
402.55397
400.678772
398.789721
396.884044
394.958908
393.011534
391.039337
389.040079
387.01185
384.954641
382.855773
380.714084
378.533295
376.34623
374.153536
371.947013
369.72407
367.478696
365.202525
362.901269
360.580327
358.250039
355.926639
353.626509
351.365658
349.159103
347.020172
344.959818
342.986089
341.103831
339.314685
337.617279
336.009047
334.486263
333.051168
331.745342
472.437821
471.30119
470.135088
468.939092
467.712799
466.455832
465.167849
463.848552
462.497695
461.115097
459.700655
458.254355
456.776286
455.266652
453.725784
452.154155
450.552384
448.921251
447.261703
445.574855
443.862002
442.12461
440.364321
438.582942
436.782438
434.96492
433.132622
431.287887
429.433131
427.570815
425.703409
423.833349
421.96299
420.09456
418.230113
416.371468
414.520153
412.677368
410.843917
409.020166
407.206022
405.400885
403.603646
401.812696
400.025943
398.240858
396.45453
394.663756
392.865142
391.055224
389.230602
387.388082
385.524814
383.6384
381.726706
379.789001
377.82568
375.819656
373.777122
371.715136
369.662626
367.618744
365.573286
363.529556
361.466741
359.392462
357.314438
355.242073
353.191056
351.176205
349.211074
347.307414
345.474744
343.720021
342.047432
340.458307
338.951703
337.524767
336.17551
334.924377
472.401817
471.192362
469.951485
468.678697
467.373532
466.035558
464.664383
463.259669
461.82114
460.348598
458.841939
457.301162
455.726393
454.117891
452.476073
450.801524
449.095008
447.357489
445.590133
443.794324
441.971666
440.123987
438.253341
436.362002
434.452459
432.527398
430.58969
428.642361
426.688567
424.731556
422.774622
420.821063
418.874119
416.936919
415.012411
413.103303
411.211986
409.340482
407.490362
405.662685
403.85797
402.076117
400.316396
398.577433
396.857224
395.153169
393.462128
391.780509
390.104373
388.42956
386.751839
385.067069
383.371371
381.661291
379.933961
378.187264
376.419973
374.631798
372.825231
370.994738
369.130282
367.242139
365.338732
363.470646
361.625421
359.797772
357.988537
356.195625
354.409724
352.642542
350.904875
349.210384
347.570268
345.993314
344.485842
343.051657
341.692148
340.406619
339.193329
338.046897
472.362712
471.074153
469.752032
468.395771
467.004821
465.578671
464.116855
462.618973
461.084694
459.513779
457.906097
456.261637
454.580533
452.863079
451.10975
449.321219
447.498375
445.642339
443.754483
441.836437
439.890102
437.917657
435.921564
433.904563
431.869669
429.82016
427.759558
425.691604
423.620226
421.5495
419.483601
417.426747
415.383136
413.356872
411.351886
409.371861
407.420142
405.499659
403.612841
401.761533
399.946941
398.169565
396.429144
394.724639
393.054236
391.415366
389.804757
388.21851
386.65222
385.101113
383.560205
382.024478
380.489067
378.949451
377.40164
375.84235
374.269154
372.680598
371.076271
369.456574
367.823664
366.182444
364.537604
362.868048
361.188643
359.504584
357.858717
356.271221
354.726351
353.22171
351.759762
350.326529
348.933973
347.592362
346.309529
345.091126
343.940602
342.85891
341.840937
340.844673
472.321667
470.950069
469.54264
468.098694
466.617578
465.098678
463.541436
461.945363
460.310053
458.635202
456.920625
455.166278
453.37228
451.538932
449.666744
447.756453
445.809049
443.825792
441.808236
439.758243
437.677997
435.570019
433.437172
431.282662
429.110037
426.923178
424.726276
422.523812
420.320516
418.121322
415.931315
413.755667
411.599562
409.468118
407.366294
405.298788
403.269933
401.283601
399.343093
397.45105
395.609351
393.819069
392.080369
390.392502
388.753797
387.161678
385.61273
384.102772
382.626973
381.180003
379.75622
378.349864
376.955271
375.567088
374.180483
372.791334
371.396403
369.993449
368.581271
367.159688
365.729553
364.29293
362.852926
361.413538
359.982577
358.571143
357.163956
355.765897
354.393447
353.055906
351.798303
350.598102
349.448171
348.358094
347.337711
346.396312
345.540295
344.77227
344.075617
343.368656
472.280447
470.825448
469.332321
467.800257
466.22848
464.616264
462.962938
461.267911
459.530683
457.750866
455.928208
454.062612
452.154163
450.203156
448.210115
446.175829
444.101372
441.988131
439.837833
437.652561
435.434782
433.187356
430.913548
428.617037
426.301909
423.972653
421.63414
419.291595
416.950564
414.616862
412.296511
409.995664
407.720522
405.477238
403.271804
401.109939
398.996959
396.937657
394.936179
392.995906
391.119345
389.308052
387.562537
385.882236
384.265494
382.709586
381.210788
379.764478
378.365272
377.007194