/*--------------------------------*- C++ -*----------------------------------*\
  =========                 |
  \\      /  F ield         | OpenFOAM: The Open Source CFD Toolbox
   \\    /   O peration     | Website:  https://openfoam.org
    \\  /    A nd           | Version:  8
     \\/     M anipulation  |
\*---------------------------------------------------------------------------*/
FoamFile
{
    version     2.0;
    format      ascii;
    class       volVectorField;
    location    "0.028";
    object      U;
}
// * * * * * * * * * * * * * * * * * * * * * * * * * * * * * * * * * * * * * //

dimensions      [0 1 -1 0 0 0 0];

internalField   nonuniform List<vector> 
42400
(
(-0.021109781 0.020203564 -9.78701922e-27)
(-0.0613622398 0.0576763468 3.23357138e-26)
(-0.100618188 0.0929381556 3.23029827e-26)
(-0.139193117 0.126245908 0)
(-0.177343702 0.157869009 0)
(-0.215295842 0.188020183 -1.67402112e-27)
(-0.253223964 0.216853104 0)
(-0.291246588 0.24446815 1.85860822e-27)
(-0.329434308 0.270921046 0)
(-0.36782052 0.296233174 2.06341747e-27)
(-0.406411084 0.320401628 2.17404798e-27)
(-0.445192196 0.343407883 -2.29052824e-27)
(-0.484136424 0.365224719 -9.52936254e-27)
(-0.523207071 0.385821526 -6.11742497e-27)
(-0.562361173 0.405168219 -2.67801988e-27)
(-0.601551439 0.423238067 0)
(-0.640727474 0.440009725 0)
(-0.67983653 0.455468715 0)
(-0.718823933 0.469608514 0)
(-0.757633297 0.482431356 0)
(-0.796206527 0.493948813 0)
(-0.834483619 0.504182162 -7.69510136e-27)
(-0.872402239 0.513162574 2.39386958e-26)
(-0.909897016 0.520931096 6.49218996e-26)
(-0.946898526 0.52753844 4.14097796e-26)
(-0.983331908 0.533044569 -9.44899067e-27)
(-1.01911503 0.53751807 -9.94480241e-27)
(-1.05415618 0.541035325 2.09319174e-26)
(-1.08835099 0.543679503 0)
(-1.12157855 0.545539427 0)
(-1.15369678 0.546708321 -6.87479913e-26)
(-1.18453817 0.547281832 -7.3068382e-26)
(-1.21390431 0.547352987 2.70191391e-26)
(-1.24155548 0.547002106 8.16510567e-26)
(-1.26718691 0.546305017 5.55959323e-26)
(-1.29050282 0.545336294 0)
(-1.3112074 0.544221392 0)
(-1.32906478 0.542989973 0)
(-1.34316765 0.542564597 0)
(-1.35362241 0.541586186 2.67183197e-25)
(-1.35891858 0.541004209 2.12445882e-25)
(-1.36031491 0.539490893 5.64256818e-26)
(-1.3543991 0.540766942 -6.44142573e-27)
(-1.34052256 0.542216382 -9.58574616e-26)
(-1.3165789 0.54361023 8.53440142e-26)
(-1.27911276 0.545825466 -2.65914953e-25)
(-1.22813013 0.546722063 1.13855345e-25)
(-1.16036059 0.548114054 1.54499587e-25)
(-1.07319612 0.549932254 1.23422907e-25)
(-0.964130303 0.552127172 2.91698649e-25)
(-0.830814757 0.554982296 6.81865821e-33)
(-0.671381677 0.557767267 -5.00822561e-25)
(-0.478869992 0.560778287 -9.27133638e-25)
(-0.256712695 0.564221136 3.16668048e-25)
(0.00975229567 0.571200943 0)
(0.305260472 0.581561788 0)
(0.665300044 0.589812646 0)
(1.08791247 0.594124667 -3.91467419e-25)
(1.5738494 0.597894037 -4.21032831e-25)
(2.12960817 0.603150211 0)
(2.76393403 0.609034686 3.69036603e-24)
(3.48035582 0.614838536 4.79678074e-24)
(4.28362407 0.620441036 -5.24106391e-24)
(5.18165533 0.625642539 -6.07559222e-24)
(6.17764306 0.630348931 0)
(7.28588338 0.629861898 0)
(8.48315551 0.641851368 -5.95282698e-24)
(9.7671219 0.630863181 -7.17720202e-24)
(11.2797892 0.496087502 -5.47894365e-25)
(12.5632438 0.677708905 0)
(13.7108618 1.09401646 0)
(15.8613406 0.165421647 -3.62704004e-25)
(17.5095555 -0.292585256 -7.19391389e-26)
(17.5725664 1.78921578 0)
(18.6631843 2.63809956 7.50829531e-25)
(21.1443751 0.196041547 9.04870256e-24)
(22.8383265 -0.781080534 3.85990992e-23)
(23.1433167 -0.227486739 -9.6708117e-25)
(22.9343295 1.38244841 -3.43114313e-24)
(23.0533188 1.91859611 -2.98738027e-23)
(-0.0257332051 0.0227931939 0)
(-0.0746256891 0.0652777953 2.63520374e-26)
(-0.122058686 0.105488206 2.51653297e-26)
(-0.168370975 0.143692801 0)
(-0.213857257 0.180170462 0)
(-0.258765588 0.215140723 1.91264073e-26)
(-0.3032856 0.248762761 1.93554444e-26)
(-0.347545039 0.281141651 2.1433171e-27)
(-0.391617784 0.312336576 0)
(-0.435534483 0.342370406 2.37620715e-27)
(-0.479292334 0.371239185 2.50165733e-27)
(-0.522863304 0.398920513 -7.17027961e-27)
(-0.566200697 0.42538052 -5.27947932e-27)
(-0.609244197 0.450579476 -6.55267583e-28)
(-0.65192356 0.474476196 -6.00308577e-27)
(-0.694161216 0.497031424 -2.64441417e-28)
(-0.735874052 0.518210438 0)
(-0.776974546 0.537985035 7.15778358e-27)
(-0.817371418 0.556335054 0)
(-0.85696986 0.573249505 0)
(-0.895671385 0.588727389 0)
(-0.933373294 0.602778222 2.40999415e-26)
(-0.969967741 0.615422304 6.58303702e-26)
(-1.00534037 0.626690757 4.22110588e-26)
(-1.03936843 0.636625347 0)
(-1.07191828 0.645278093 -2.12954191e-26)
(-1.1028423 0.6527107 -1.11600403e-26)
(-1.13197529 0.65899349 2.34235247e-26)
(-1.1591292 0.664202625 6.45953692e-26)
(-1.18408505 0.668416725 6.87581437e-26)
(-1.20658139 0.671715657 -2.71079115e-26)
(-1.22633726 0.67419213 -2.83457118e-26)
(-1.24308006 0.675933754 1.33480664e-25)
(-1.25654508 0.67702095 9.25596743e-26)
(-1.26609899 0.677927924 -1.64112741e-25)
(-1.27174354 0.678054708 -2.02442017e-25)
(-1.27287367 0.678116004 0)
(-1.26880655 0.678511321 3.72248732e-26)
(-1.25988887 0.67795144 0)
(-1.24265167 0.678682633 8.24284465e-26)
(-1.21670132 0.678946448 8.38389066e-26)
(-1.17893945 0.679507892 9.86011986e-26)
(-1.12934247 0.678813258 9.49901869e-26)
(-1.06551946 0.678227639 -9.78355573e-26)
(-0.985767203 0.677833992 2.02937328e-25)
(-0.887675194 0.677650449 -1.04675617e-25)
(-0.768609832 0.677504835 1.07190229e-25)
(-0.626361253 0.676656936 7.38615221e-26)
(-0.456754417 0.675323566 4.73616788e-25)
(-0.262606764 0.674389263 0)
(-0.0325269062 0.676967803 -1.26752518e-25)
(0.221299669 0.683264948 2.57970177e-25)
(0.530317393 0.688122899 -9.26145032e-26)
(0.892846879 0.689656133 7.63174604e-25)
(1.31276199 0.690756488 3.14180902e-25)
(1.79347365 0.693454784 2.12644265e-24)
(2.34331995 0.697832238 2.2197973e-24)
(2.96597424 0.703327823 -3.32565826e-25)
(3.66581679 0.710086931 -3.43762079e-25)
(4.44820305 0.718385217 3.26054857e-24)
(5.31946335 0.728293195 3.86370873e-24)
(6.28334628 0.740520562 3.49204598e-25)
(7.34245575 0.75425385 -3.42262342e-25)
(8.50106039 0.766371291 0)
(9.74600627 0.778870259 -5.35784145e-24)
(11.0805308 0.780117587 -1.01495764e-23)
(12.4579637 0.798043203 -4.92515216e-24)
(13.7991836 0.883787098 0)
(15.363408 0.741711017 3.56772478e-26)
(16.9240265 0.540612575 -5.60327634e-26)
(17.7745618 1.18978788 2.82679185e-24)
(19.0523707 1.44265209 7.35959308e-24)
(20.9655267 0.120797545 -5.18854434e-24)
(21.9522941 0.124121323 -2.1867299e-24)
(22.348112 1.48673858 5.98657214e-26)
(22.9161362 1.83299506 1.73746315e-23)
(23.3243154 1.0084262 1.40127562e-23)
(23.4226645 0.562211049 -7.5740115e-25)
(23.4383885 0.668871887 -1.67321307e-23)
(23.4651802 0.820721344 -7.23751973e-24)
(-0.0297412676 0.0243506396 3.08367998e-27)
(-0.0861050254 0.0698745218 8.67152178e-28)
(-0.140590722 0.113121335 -9.17052713e-28)
(-0.193574104 0.154375966 9.6370404e-28)
(-0.245362806 0.193914171 0)
(-0.296235111 0.231962679 -1.49416591e-26)
(-0.346388887 0.268685211 2.10503975e-33)
(-0.39595496 0.304189076 1.09967752e-26)
(-0.445004601 0.338534543 8.63552197e-27)
(-0.493559536 0.371744171 1.20129154e-26)
(-0.541601883 0.403811783 5.88676729e-27)
(-0.589082741 0.434710536 2.92831959e-27)
(-0.635929238 0.464399843 3.08168311e-27)
(-0.682050137 0.492831149 -7.2592326e-27)
(-0.727340133 0.519952633 -1.12689535e-26)
(-0.771683013 0.545712992 1.07641794e-26)
(-0.814953874 0.570064432 1.25406907e-26)
(-0.857020556 0.592965024 4.97646648e-26)
(-0.897744389 0.61438053 2.99241953e-26)
(-0.93698034 0.634285787 8.76648555e-27)
(-0.974576602 0.652665724 -9.20583239e-27)
(-1.0103736 0.669516095 -9.66316277e-27)
(-1.04420227 0.684843977 0)
(-1.07588141 0.698667802 2.12319968e-26)
(-1.10521461 0.711017004 -6.43087252e-26)
(-1.1319856 0.721931281 4.33324199e-29)
(-1.15595231 0.731460013 7.67283797e-26)
(-1.1768496 0.739656669 8.1883012e-26)
(-1.194398 0.74656959 8.64887587e-26)
(-1.20830331 0.752241072 -6.95417136e-26)
(-1.21811769 0.756867488 -2.88227103e-26)
(-1.2237031 0.760313737 2.156603e-25)
(-1.22463605 0.762914514 2.20475144e-25)
(-1.22041788 0.764988126 0)
(-1.21072646 0.766301473 0)
(-1.1947948 0.767676377 -3.61943547e-26)
(-1.17038895 0.768534933 0)
(-1.13643573 0.768440513 7.95432424e-26)
(-1.09047557 0.767933769 1.47444617e-25)
(-1.03259897 0.766352073 1.71730848e-25)
(-0.96082302 0.764613292 -1.03902145e-25)
(-0.873525805 0.762841097 0)
(-0.768400736 0.760957434 0)
(-0.642867374 0.758816674 1.63905828e-25)
(-0.495277486 0.755682103 3.09549338e-25)
(-0.321021987 0.751599744 1.05532425e-25)
(-0.11891737 0.749263782 0)
(0.107419848 0.751930726 0)
(0.362121636 0.755815867 7.87761343e-27)
(0.679588236 0.7559301 1.65012417e-25)
(1.04355693 0.753826268 -1.27740613e-25)
(1.46104404 0.753944724 0)
(1.9386955 0.756424893 -3.28574047e-25)
(2.48103193 0.760703627 -6.39860597e-25)
(3.09259351 0.76684943 -1.22817712e-24)
(3.77850437 0.775397849 -1.26242848e-24)
(4.54449426 0.786763833 -1.91797568e-24)
(5.3950819 0.801466739 -3.49857651e-32)
(6.33312683 0.820305519 4.2528467e-32)
(7.35950636 0.843790359 -6.70077304e-24)
(8.4752777 0.870917052 -3.62314494e-24)
(9.6762817 0.900312098 3.75099987e-24)
(10.952575 0.931541271 3.75012277e-24)
(12.2902414 0.961772406 0)
(13.6609415 1.0001078 4.15248139e-24)
(15.0507587 1.03947854 9.56103672e-24)
(16.4570856 1.03949433 5.07528452e-24)
(17.7245369 1.14766906 0)
(18.9234138 1.27640224 -3.3695384e-26)
(20.363612 0.9787789 6.61535555e-24)
(21.4373037 0.87954955 4.14136403e-24)
(21.9798616 1.54848582 0)
(22.7497529 1.58466822 0)
(23.4412312 0.843133778 5.79871383e-25)
(23.5737828 0.98191332 -1.0737223e-24)
(23.5632202 1.16101235 6.09852194e-24)
(23.4871347 1.44081805 9.90444442e-24)
(23.4163248 1.30976648 0)
(23.4450114 1.11051168 -2.58316484e-25)
(23.4509482 1.05757093 5.43404642e-24)
(-0.0332273051 0.0251050762 6.03397668e-28)
(-0.0960614568 0.0720866234 9.49259315e-28)
(-0.156633833 0.116784006 7.74369479e-27)
(-0.215350947 0.159496956 -4.74006242e-27)
(-0.272564152 0.200512524 -6.05827685e-27)
(-0.328540695 0.240048671 0)
(-0.383483906 0.278269372 -7.76528033e-27)
(-0.437539707 0.315289329 -7.69063489e-27)
(-0.490766991 0.35117284 -2.25948124e-27)
(-0.543171988 0.385942115 8.80704159e-28)
(-0.594714864 0.419589401 1.04751116e-26)
(-0.645318447 0.452084967 7.77522279e-34)
(-0.694875844 0.483383776 3.38044729e-27)
(-0.743256572 0.513431268 4.55880102e-33)
(-0.790311299 0.542168236 -3.74217973e-27)
(-0.835875387 0.569534839 3.52995631e-26)
(-0.879771369 0.595473829 -4.14685932e-26)
(-0.92181047 0.61993315 -8.66768558e-27)
(-0.961793125 0.642868075 4.59934897e-26)
(-0.99950841 0.664242999 9.54971761e-27)
(-1.03473287 0.684033037 -2.00716027e-26)
(-1.06722865 0.70222456 -6.80537895e-26)
(-1.09673769 0.718809433 -7.58798637e-26)
(-1.12298269 0.733782922 1.15446364e-26)
(-1.14566923 0.747145864 0)
(-1.16448581 0.758900145 1.26441369e-26)
(-1.17907257 0.769062926 0)
(-1.18918955 0.77775329 1.38829597e-25)
(-1.19446128 0.785118204 2.83229168e-25)
(-1.19451259 0.791345439 1.80535527e-25)
(-1.18905156 0.796541457 -1.43688904e-25)
(-1.17730958 0.800981059 -1.66178992e-25)
(-1.15771602 0.804282508 6.81990671e-26)
(-1.12932684 0.8063451 3.56852153e-26)
(-1.0907771 0.807159469 -1.64412256e-25)
(-1.04042781 0.806980833 -2.44695897e-25)
(-0.977953489 0.80589705 0)
(-0.901606973 0.80430382 2.76444891e-25)
(-0.80973886 0.802265297 2.44977693e-25)
(-0.700187995 0.799791912 8.84923158e-26)
(-0.570524541 0.796888006 9.11543457e-26)
(-0.41899513 0.793004443 0)
(-0.241532083 0.788251419 0)
(-0.0362175224 0.785889632 0)
(0.187299619 0.787240074 1.02109387e-25)
(0.457800497 0.787846437 2.85803989e-25)
(0.772019885 0.786074822 3.54675559e-25)
(1.13492874 0.784765433 0)
(1.55054715 0.785491991 0)
(2.02413981 0.788419576 4.74402468e-25)
(2.55909939 0.793467588 3.98466879e-25)
(3.16070397 0.801292204 6.17551707e-25)
(3.83452911 0.812503647 7.2006168e-25)
(4.58552964 0.82764674 -2.74573912e-25)
(5.417448 0.847299353 -1.22486427e-24)
(6.33207738 0.872171148 -8.40645871e-25)
(7.33012133 0.902800589 -2.56494597e-24)
(8.41014382 0.939562066 -2.73559796e-24)
(9.57166863 0.98135728 0)
(10.8073246 1.0273008 1.69934102e-25)
(12.1041814 1.07871385 -3.48073048e-24)
(13.4385474 1.13631606 -7.33988412e-24)
(14.7909266 1.20101934 -6.32978406e-26)
(16.137554 1.2604924 -3.58825442e-26)
(17.4657645 1.31169551 -4.56605694e-24)
(18.7067016 1.39342651 5.03220756e-24)
(19.9063871 1.43767941 5.02352064e-24)
(21.0202238 1.45346784 -2.98290284e-25)
(21.8673467 1.58947626 -3.88318136e-24)
(22.7150527 1.65692267 -1.25562231e-23)
(23.3785588 1.45822701 7.37225624e-26)
(23.6610725 1.4316002 -5.43728547e-24)
(23.6489458 1.59161403 -1.66893362e-24)
(23.6042507 1.80664722 0)
(23.5474735 1.60865845 -1.11350538e-23)
(23.5750961 1.4330285 -1.44096727e-23)
(23.5268309 1.43920468 4.7582492e-25)
(23.4623281 1.48549438 8.12295005e-24)
(23.4546291 1.45628039 7.25564436e-24)
(23.446337 1.33057891 1.15962474e-23)
(-0.0364609716 0.0253680318 2.86077222e-27)
(-0.105245322 0.072791691 0)
(-0.171368435 0.117869489 0)
(-0.235271535 0.160913433 1.65523601e-30)
(-0.29733005 0.202220766 0)
(-0.357844588 0.242023873 0)
(-0.417024018 0.280484673 0)
(-0.474957698 0.317708456 -5.70616541e-27)
(-0.531725598 0.353760472 0)
(-0.587303765 0.388671782 3.1704667e-27)
(-0.641621975 0.422435767 1.8705441e-26)
(-0.694566645 0.455022983 4.39804642e-33)
(-0.745987755 0.486388217 -1.86638858e-26)
(-0.795705326 0.516476016 0)
(-0.843514471 0.545225538 -4.08925133e-27)
(-0.889189116 0.572574855 8.60900399e-27)
(-0.932484583 0.598464596 0)
(-0.973139288 0.622840528 5.73719708e-26)
(-1.01087001 0.645650851 1.00060985e-26)
(-1.04536946 0.6668457 -1.3920469e-25)
(-1.07630938 0.686379778 -9.35297819e-26)
(-1.10336897 0.704176674 1.14518301e-26)
(-1.12620282 0.720347535 0)
(-1.14451791 0.734895454 -1.24529033e-25)
(-1.1579627 0.747902292 -1.39949266e-25)
(-1.16616348 0.7594862 -1.41394519e-25)
(-1.16863304 0.769689738 -1.66738496e-25)
(-1.16441597 0.77834556 1.76289329e-25)
(-1.15276853 0.785490585 1.70641146e-25)
(-1.13279809 0.791099579 0)
(-1.10338958 0.79519307 -2.02578986e-25)
(-1.06339558 0.797936742 -2.27663695e-25)
(-1.01219843 0.799585121 3.68068761e-26)
(-0.948360573 0.800293685 -2.18942055e-25)
(-0.870392584 0.800123401 -2.68274665e-25)
(-0.776630142 0.799160881 -8.27953493e-26)
(-0.664990364 0.797495724 4.31771778e-26)
(-0.533171754 0.795234963 -2.77816566e-25)
(-0.379346762 0.79199139 -3.08319051e-25)
(-0.19984891 0.787864505 4.93183849e-25)
(0.00793137083 0.785798817 9.99893856e-25)
(0.234558698 0.786841699 3.7996801e-25)
(0.507776198 0.787211577 0)
(0.823135448 0.785764718 -1.12291831e-25)
(1.18515343 0.785504314 -4.79689305e-25)
(1.5981219 0.787609522 -1.19008396e-25)
(2.06619752 0.792202052 2.35825638e-32)
(2.59396869 0.799692448 -3.98794682e-25)
(3.1865166 0.810758352 0)
(3.84882285 0.825990429 -1.35152934e-25)
(4.5851233 0.845954299 -9.69944581e-25)
(5.39854038 0.871280879 -7.78567045e-25)
(6.29061342 0.902651335 -5.38416171e-25)
(7.26139873 0.94062993 -1.57057749e-24)
(8.30964179 0.985689152 -1.22562743e-24)
(9.43193074 1.03817482 -1.43642734e-24)
(10.6254413 1.09683425 -4.46460823e-24)
(11.8803569 1.16082789 -3.1201947e-24)
(13.1808289 1.23067609 -3.42004154e-24)
(14.5047241 1.30520288 -3.53913375e-24)
(15.831766 1.38480735 0)
(17.1280105 1.46750597 -1.69847495e-26)
(18.3733158 1.55785274 -4.28332947e-24)
(19.525495 1.64341519 -4.65922837e-24)
(20.6299505 1.69720173 -2.309717e-26)
(21.5936789 1.74096744 0)
(22.4763276 1.8023726 9.80234034e-24)
(23.1147151 1.80296488 1.31117068e-23)
(23.5687285 1.81801551 5.05688828e-25)
(23.6420927 1.8765218 -4.73211898e-25)
(23.6800887 1.89301643 -5.96030349e-27)
(23.6681792 1.83909043 -1.06686264e-25)
(23.6787194 1.79456999 -5.08542829e-24)
(23.6325025 1.82183975 -7.74589275e-24)
(23.5600717 1.84666777 -4.73798856e-26)
(23.5348962 1.84068542 0)
(23.5351309 1.77471687 -8.22753053e-24)
(23.5250607 1.73074259 -1.07471194e-23)
(23.5276273 1.69860222 0)
(23.5144839 1.65100911 -8.44447532e-24)
(-0.0397085291 0.0253740591 -4.34837409e-27)
(-0.114388667 0.0726701173 -5.61611373e-27)
(-0.185932351 0.117489722 -7.35283436e-27)
(-0.254818694 0.160156595 -1.26881506e-27)
(-0.321447544 0.200976463 3.25436723e-27)
(-0.386126783 0.240188025 -2.82268503e-27)
(-0.449063228 0.277964743 2.83548631e-27)
(-0.510375085 0.314414131 -1.49822289e-27)
(-0.570032453 0.349597415 3.31495612e-27)
(-0.62802211 0.383538518 6.98647269e-27)
(-0.684232115 0.416244789 -6.13014168e-27)
(-0.738497984 0.447693454 -3.87046925e-26)
(-0.790613331 0.477843089 -3.26165779e-26)
(-0.840333712 0.506641833 -3.58197528e-26)
(-0.887381784 0.534033122 4.52229848e-27)
(-0.931447628 0.559959529 6.68115789e-26)
(-0.972191868 0.584366697 0)
(-1.00927815 0.607161351 0)
(-1.04232601 0.628396478 8.02085737e-26)
(-1.07101193 0.648027019 1.99128954e-25)
(-1.09494497 0.666115273 1.12162356e-25)
(-1.11350054 0.682530637 1.30221155e-25)
(-1.12621795 0.697253172 4.02407642e-33)
(-1.13245563 0.710318347 -1.72416025e-25)
(-1.13152258 0.721713168 1.58017427e-25)
(-1.12261704 0.731437665 3.75203297e-25)
(-1.10485259 0.739550585 1.89026723e-25)
(-1.07757938 0.746278161 -1.66143625e-26)
(-1.03972958 0.751670021 1.73383735e-26)
(-0.990113684 0.755790794 -3.61540558e-26)
(-0.92741148 0.758714621 0)
(-0.850151654 0.760528561 3.27890713e-25)
(-0.756650248 0.76134714 -4.1044416e-26)
(-0.644875076 0.761314469 -3.22699935e-25)
(-0.512645538 0.760604353 0)
(-0.358099661 0.75897537 -3.91244637e-25)
(-0.177934243 0.756563288 -4.10920179e-25)
(0.0307849897 0.755916885 0)
(0.259595119 0.757811052 0)
(0.533907738 0.759265514 -2.77934018e-25)
(0.849063159 0.759523673 -4.60589302e-25)
(1.20892069 0.761519317 2.32740146e-25)
(1.61820428 0.766243731 0)
(2.08078726 0.77385616 3.90308257e-25)
(2.60115215 0.784927031 9.52281931e-25)
(3.18407565 0.800095132 4.3942252e-25)
(3.83396136 0.820055069 1.37002058e-25)
(4.55470081 0.84542284 -1.59594772e-27)
(5.34912075 0.876876138 0)
(6.21864586 0.91520403 -9.31778886e-25)
(7.16323428 0.961127624 -2.76449219e-25)
(8.18109753 1.01517139 1.04103358e-24)
(9.26871044 1.07763718 -2.5550061e-25)
(10.4204573 1.14854376 -1.65876861e-24)
(11.6309434 1.22621258 -2.90693621e-24)
(12.889383 1.30913403 -2.1096159e-32)
(14.177643 1.39713411 1.73130421e-24)
(15.4733028 1.48925795 0)
(16.7534576 1.58410427 0)
(17.9921202 1.67746122 -2.07438637e-26)
(19.1672519 1.76799443 1.59852672e-26)
(20.2460337 1.85516624 0)
(21.2137689 1.9399976 4.7612767e-24)
(22.027458 2.01498841 5.03013027e-24)
(22.7779754 2.05050089 -8.8423891e-24)
(23.3561234 2.04484544 -2.41107144e-23)
(23.5953792 2.05348042 -8.15259479e-24)
(23.6545679 2.10230216 -3.95924181e-24)
(23.6436322 2.08950017 -5.41203031e-24)
(23.6474476 2.088227 -1.08284226e-26)
(23.6484932 2.03551589 6.18339005e-24)
(23.6537308 1.99640492 5.55943615e-24)
(23.6508746 1.94057812 -7.57037354e-24)
(23.6483679 1.90797396 -5.77848076e-24)
(23.6042061 1.91160881 -1.02229627e-23)
(23.5661227 1.95264885 -8.34346671e-24)
(23.5499929 1.92519437 -1.17777115e-23)
(23.5519384 1.91795923 4.11680678e-32)
(23.5732341 1.86936775 2.04078154e-23)
(23.5665281 1.84415545 1.48774593e-23)
(-0.0431579831 0.0252472278 2.23053415e-27)
(-0.12399078 0.0720988526 1.26788816e-27)
(-0.201068534 0.116284006 4.6229255e-27)
(-0.274904287 0.158135025 -2.21408823e-33)
(-0.345915495 0.197964869 -2.3053825e-27)
(-0.414411396 0.236016081 -3.42250465e-27)
(-0.480585419 0.27246627 3.98453593e-27)
(-0.544523554 0.307438409 8.07884664e-28)
(-0.606227269 0.340998001 6.75138837e-27)
(-0.665552236 0.373176563 9.97583064e-27)
(-0.722345757 0.40397282 1.39133698e-26)
(-0.776396066 0.433370987 1.36849577e-26)
(-0.827417295 0.461349042 2.2246266e-26)
(-0.875081011 0.487870651 3.12247818e-26)
(-0.919029893 0.512853064 5.00014238e-27)
(-0.958844577 0.536353689 5.26399946e-27)
(-0.994097489 0.558224809 8.80487491e-26)
(-1.02426487 0.57851406 1.04296904e-25)
(-1.04889414 0.59714078 -1.21338108e-26)
(-1.06735204 0.61412185 -1.27985126e-26)
(-1.0789878 0.62939178 1.31545163e-25)
(-1.08315325 0.64308337 1.45487478e-25)
(-1.07910971 0.655184553 0)
(-1.06602768 0.665725665 1.55014629e-26)
(-1.04293196 0.674773953 0)
(-1.00877884 0.682367494 0)
(-0.96239447 0.688584291 1.77756142e-26)
(-0.902462491 0.693525805 -3.07609789e-25)
(-0.827490527 0.697318066 -2.72401891e-25)
(-0.735778532 0.700102865 2.73670007e-25)
(-0.625462506 0.70204988 3.32260276e-25)
(-0.494491169 0.703347085 4.36076855e-26)
(-0.340969177 0.703846474 -4.54746358e-26)
(-0.161804305 0.703720703 0)
(0.0462621207 0.705128159 4.90854037e-26)
(0.275528971 0.708675608 0)
(0.5489947 0.71213241 0)
(0.862167665 0.715033105 5.6839808e-26)
(1.21844074 0.720108123 0)
(1.62264018 0.728197063 0)
(2.07835545 0.73946896 5.45053293e-25)
(2.58982389 0.754560102 7.00112966e-25)
(3.16150557 0.774151754 0)
(3.79745934 0.798964643 0)
(4.50131951 0.829716274 0)
(5.27579673 0.86721294 1.45713045e-25)
(6.12229413 0.912321993 1.44689878e-25)
(7.04080953 0.965813341 7.13108137e-25)
(8.02961053 1.02827569 9.58056243e-25)
(9.08506603 1.1000694 1.09055478e-24)
(10.2014841 1.18129207 1.26181281e-24)
(11.3712732 1.27168893 1.32765342e-24)
(12.5860014 1.36978397 1.48643842e-24)
(13.8336912 1.47353293 0)
(15.0953 1.58168089 0)
(16.3492011 1.69190421 -2.01729466e-24)
(17.5709599 1.80089527 -4.24401087e-24)
(18.7361382 1.9063594 -2.34282117e-24)
(19.8202066 2.00814645 -2.68556357e-24)
(20.8024605 2.10046294 -2.96330863e-24)
(21.6696948 2.17741083 5.96014281e-24)
(22.4011359 2.23953245 1.19685874e-23)
(22.9782469 2.27964629 1.78734033e-25)
(23.431673 2.29831432 -8.95401735e-24)
(23.5841905 2.34232369 1.55887725e-25)
(23.6106498 2.35380453 -2.02104429e-25)
(23.6246087 2.30786709 4.91098728e-24)
(23.6352232 2.25669306 -2.34577191e-32)
(23.6452346 2.24501238 -5.44285732e-24)
(23.6247128 2.22473289 -2.35502817e-25)
(23.5964423 2.20180519 8.62444134e-24)
(23.6007756 2.17453309 5.92990449e-24)
(23.6033951 2.12873369 0)
(23.601582 2.08636301 3.57668844e-25)
(23.5854085 2.04091672 0)
(23.5729318 2.01702694 7.8645682e-24)
(23.5772564 1.99299569 1.52882342e-23)
(23.5730632 1.9698215 9.44699976e-24)
(23.5830835 1.96378534 6.73206051e-24)
(23.5807301 1.95305491 1.66595747e-23)
(-0.046807403 0.0249690833 2.15339866e-27)
(-0.133984462 0.0710501421 6.46056911e-27)
(-0.216580228 0.114248495 -1.50645804e-27)
(-0.295137407 0.154903992 -3.05933594e-27)
(-0.370083605 0.193334334 -7.65382829e-28)
(-0.441718435 0.229784117 -3.96371802e-29)
(-0.510209113 0.264432151 -3.72844547e-27)
(-0.575600809 0.297404179 -1.16630894e-26)
(-0.637833417 0.328784647 -1.5197492e-26)
(-0.6967652 0.358616027 -1.87387904e-26)
(-0.752141205 0.386911068 0)
(-0.803624866 0.413687015 -9.6816876e-27)
(-0.850846888 0.438886964 5.10308242e-27)
(-0.893356394 0.462505611 0)
(-0.930635498 0.484553165 0)
(-0.962192187 0.504928967 0)
(-0.987368583 0.523704157 0)
(-1.00552789 0.540840791 -6.55326496e-27)
(-1.01594446 0.556351058 0)
(-1.01781422 0.570258311 -9.32451018e-26)
(-1.01027176 0.582582784 -1.02765124e-25)
(-0.992362397 0.593389941 1.78686525e-25)
(-0.962998647 0.602745087 2.1488906e-25)
(-0.921007208 0.61073314 -2.18639168e-25)
(-0.865065585 0.617470244 -2.76081461e-25)
(-0.793701625 0.623085302 -2.80834952e-25)
(-0.705242918 0.627727889 -2.83559978e-25)
(-0.597828262 0.631586829 -3.58622449e-25)
(-0.469504807 0.634729707 -6.53445809e-25)
(-0.318697062 0.637246567 -3.64566931e-25)
(-0.142198509 0.639656282 0)
(0.0627669328 0.643569469 -4.9187173e-26)
(0.290600488 0.649165321 -5.10907592e-26)
(0.561013332 0.654825643 0)
(0.870207458 0.660534358 5.65207574e-26)
(1.22109661 0.668792636 0)
(1.61817571 0.680315702 0)
(2.06498647 0.695266603 6.31629777e-25)
(2.56556544 0.714301407 -6.67993444e-26)
(3.12405863 0.738162838 -6.29506286e-25)
(3.74424713 0.767634888 7.37193245e-25)
(4.42953789 0.803502476 7.04796771e-25)
(5.18253318 0.846600008 7.53312579e-26)
(6.00467488 0.89779447 0)
(6.89612922 0.957859891 7.16220892e-25)
(7.85548565 1.02741596 1.1056112e-24)
(8.87949337 1.1068787 0)
(9.96284665 1.19641166 0)
(11.0979975 1.29582886 -1.51245098e-24)
(12.2756036 1.40454821 -1.70341448e-24)
(13.4844868 1.52134558 1.7409871e-24)
(14.7125335 1.64371247 1.70696788e-24)
(15.9400749 1.77015505 -1.93199975e-24)
(17.144586 1.89846952 -1.65861991e-32)
(18.3020935 2.02610827 2.00042777e-24)
(19.3896183 2.14970594 1.01301382e-26)
(20.3847657 2.26300229 0)
(21.2774141 2.36011711 -1.23529978e-26)
(22.0471475 2.4455169 -2.2604038e-24)
(22.7038487 2.51560954 1.11720523e-25)
(23.1961138 2.57149346 4.78727903e-24)
(23.5057128 2.6000492 0)
(23.6344321 2.61606136 5.47304266e-26)
(23.6378769 2.61126824 0)
(23.622924 2.60212262 4.19924665e-26)
(23.5858549 2.58620273 -5.46567288e-26)
(23.5970326 2.53370462 -1.06874988e-25)
(23.6056366 2.46060557 -8.04235192e-24)
(23.6215354 2.38979676 -5.1392121e-24)
(23.6203675 2.33355652 -2.88868589e-25)
(23.5833602 2.32442944 -9.53891694e-24)
(23.5678955 2.28266175 -9.04943368e-24)
(23.5667586 2.23359885 -9.5541793e-24)
(23.5634877 2.19083875 -1.08445226e-23)
(23.5641006 2.16312911 -7.86575661e-24)
(23.5643964 2.13020875 -9.21774801e-24)
(23.5718047 2.11551192 7.32539084e-24)
(23.5783984 2.07689093 9.70260796e-24)
(23.6427032 2.05285375 -1.10168573e-24)
(23.6304787 2.02363275 7.56559394e-25)
(-0.0503892764 0.0243937434 1.75368889e-27)
(-0.143560332 0.0691404782 -6.65455912e-27)
(-0.231094614 0.110816149 -1.70789093e-27)
(-0.31355554 0.149766774 -1.75757997e-33)
(-0.391369732 0.186312133 1.87317176e-27)
(-0.46481335 0.220698475 -2.00038632e-27)
(-0.534011166 0.253107338 8.44805439e-27)
(-0.598944523 0.283678536 3.36626801e-33)
(-0.659474469 0.312485132 -2.98693057e-26)
(-0.715338721 0.339590846 -2.21310582e-26)
(-0.766179746 0.365027568 5.19743828e-27)
(-0.811561248 0.388789155 -3.7387595e-26)
(-0.850930248 0.410905716 -3.18639935e-26)
(-0.88370291 0.4313639 -4.41895689e-26)
(-0.909213831 0.450173342 -5.13127656e-26)
(-0.926724008 0.467348689 5.89338782e-26)
(-0.935421591 0.482913829 6.72141891e-26)
(-0.934411464 0.496914412 -7.34715766e-27)
(-0.922748115 0.509386902 0)
(-0.89931709 0.520435749 -8.63946747e-26)
(-0.862939512 0.530122747 -1.04971199e-25)
(-0.8123006 0.538572739 -1.79631786e-26)
(-0.745947534 0.545925664 1.27110292e-25)
(-0.662243334 0.552345626 1.57733528e-25)
(-0.559405548 0.558013325 -4.11334207e-26)
(-0.435723156 0.562989668 0)
(-0.288927978 0.567447697 2.27253756e-26)
(-0.115891489 0.572314773 2.601452e-28)
(0.0813209214 0.578603758 -4.18699125e-25)
(0.307184332 0.585835536 -3.63586686e-25)
(0.573220231 0.593307889 4.20934976e-25)
(0.875608429 0.601921634 4.14177307e-25)
(1.2186165 0.61336619 -1.18365561e-25)
(1.60639586 0.628089476 -4.81108644e-25)
(2.04222218 0.646377824 -4.56184453e-32)
(2.52984382 0.668983197 6.03765316e-25)
(3.07310917 0.696694025 -7.08239115e-25)
(3.67556179 0.730317878 -6.76364712e-25)
(4.34039608 0.770664112 -1.49698957e-25)
(5.07012769 0.818569366 7.71921998e-26)
(5.86626506 0.874888273 7.77624453e-26)
(6.72919433 0.940388949 -8.79289481e-25)
(7.65789189 1.01569862 -1.83720133e-24)
(8.64964837 1.10125932 -1.056466e-24)
(9.69980683 1.19727012 -1.33388205e-24)
(10.8015498 1.30361026 -1.32567445e-24)
(11.9458198 1.41976088 0)
(13.1214507 1.54477618 1.57109869e-24)
(14.3152236 1.67725614 1.81530578e-24)
(15.5147627 1.81422259 1.92274147e-24)
(16.7010926 1.9534501 4.11291111e-24)
(17.8524713 2.09264723 4.36174721e-24)
(18.9463645 2.22904343 4.54753177e-24)
(19.9602699 2.35839527 4.77449038e-24)
(20.8742022 2.47929525 2.55290518e-24)
(21.6696324 2.58946922 -2.82552612e-26)
(22.3338621 2.68094846 0)
(22.8810682 2.74067476 -3.5893306e-24)
(23.3209483 2.78266058 -4.5848723e-24)
(23.5357245 2.80831309 0)
(23.59619 2.81081692 -2.49489252e-24)
(23.6334631 2.81316366 -1.49946566e-24)
(23.6350534 2.79960729 0)
(23.6410403 2.82720464 -2.00933696e-26)
(23.5963669 2.82126424 0)
(23.556508 2.81289089 -7.25497428e-24)
(23.5251539 2.81066124 -2.90160685e-25)
(23.5364793 2.76898957 5.10298094e-24)
(23.5447592 2.69083887 -2.16737017e-25)
(23.5565897 2.62512905 -2.15704559e-25)
(23.5374727 2.58976006 -9.33339542e-24)
(23.5466287 2.52693366 -5.92327578e-24)
(23.5674433 2.46299355 -1.6436958e-25)
(23.5846476 2.41742813 -2.39107042e-25)
(23.5938896 2.38803924 -5.25125088e-26)
(23.5973288 2.35976552 -4.00248131e-25)
(23.6355912 2.32294933 9.68601677e-24)
(23.6537491 2.30172329 2.05979508e-23)
(23.7555487 2.28421033 1.15559405e-23)
(23.7625724 2.24686482 -9.18728636e-25)
(-0.0535067237 0.0233649036 0)
(-0.151520591 0.065937227 -1.83561423e-27)
(-0.242582681 0.105311063 1.93508755e-27)
(-0.327256171 0.141837298 -5.03204753e-27)
(-0.405944185 0.175839274 2.15198549e-27)
(-0.478871208 0.207560371 2.26820718e-27)
(-0.54608283 0.237190911 -1.43136048e-26)
(-0.607467615 0.264858875 0)
(-0.662748652 0.290672283 5.29478797e-27)
(-0.71154383 0.314694552 -2.88275348e-26)
(-0.753352756 0.336978805 -2.89245835e-26)
(-0.787570326 0.35756642 4.12339557e-26)
(-0.813495879 0.37649427 6.51642106e-27)
(-0.830338881 0.393801248 -1.04485953e-25)
(-0.837217011 0.409533545 -1.27834698e-25)
(-0.833146198 0.42376118 -6.48865636e-26)
(-0.817103628 0.436536731 -7.9456947e-27)
(-0.787840407 0.447994598 -9.09809056e-26)
(-0.744079895 0.458214845 -9.27292669e-26)
(-0.684388996 0.467355555 9.14418017e-27)
(-0.607182525 0.47559069 -9.66642731e-27)
(-0.510736374 0.483113699 -4.03347899e-26)
(-0.393274265 0.490018953 -1.45538793e-25)
(-0.252639711 0.49657451 -3.41656898e-25)
(-0.0867700923 0.503809161 -1.81082678e-25)
(0.10252449 0.511974418 -2.4163688e-26)
(0.326250614 0.520782611 -1.38091455e-25)
(0.583100806 0.53032732 2.66116938e-26)
(0.876447208 0.541833998 -2.79159898e-26)
(1.2097025 0.556083163 -2.19703166e-25)
(1.5860586 0.573549327 0)
(2.00876273 0.594755334 -5.82072183e-25)
(2.48138241 0.620495343 -6.63742197e-26)
(3.0074712 0.651546599 6.90921019e-25)
(3.590321 0.688723449 7.34811209e-25)
(4.23293534 0.732852733 7.80482291e-25)
(4.93776169 0.784771866 -7.71586891e-26)
(5.70637195 0.845325555 0)
(6.53935487 0.915278911 -1.62878341e-25)
(7.43605282 0.99526852 -9.40070733e-25)