/*--------------------------------*- C++ -*----------------------------------*\
  =========                 |
  \\      /  F ield         | OpenFOAM: The Open Source CFD Toolbox
   \\    /   O peration     | Website:  https://openfoam.org
    \\  /    A nd           | Version:  8
     \\/     M anipulation  |
\*---------------------------------------------------------------------------*/
FoamFile
{
    version     2.0;
    format      ascii;
    class       volScalarField;
    location    "0.052";
    object      p;
}
// * * * * * * * * * * * * * * * * * * * * * * * * * * * * * * * * * * * * * //

dimensions      [1 -1 -2 0 0 0 0];

internalField   nonuniform List<scalar> 
42400
(
101535.134
101535.12
101535.106
101535.093
101535.081
101535.07
101535.06
101535.051
101535.043
101535.037
101535.032
101535.027
101535.025
101535.023
101535.022
101535.023
101535.025
101535.028
101535.032
101535.037
101535.044
101535.051
101535.059
101535.068
101535.078
101535.089
101535.1
101535.112
101535.125
101535.138
101535.151
101535.165
101535.179
101535.193
101535.207
101535.222
101535.236
101535.25
101535.275
101535.314
101535.356
101535.378
101535.376
101535.367
101535.357
101535.364
101535.391
101535.421
101535.455
101535.491
101535.529
101535.566
101535.6
101535.66
101535.747
101535.856
101535.938
101535.981
101536.065
101536.194
101536.349
101536.507
101536.679
101536.879
101537.114
101537.396
101537.687
101538.034
101538.528
101538.534
101538.712
101540.402
101541.42
101539.67
101538.531
101541.056
101544.661
101544.302
101547.364
101549.864
101534.383
101534.372
101534.361
101534.35
101534.341
101534.333
101534.325
101534.319
101534.313
101534.309
101534.305
101534.303
101534.302
101534.301
101534.302
101534.305
101534.308
101534.312
101534.318
101534.324
101534.331
101534.34
101534.349
101534.359
101534.37
101534.382
101534.394
101534.407
101534.42
101534.434
101534.448
101534.462
101534.477
101534.49
101534.504
101534.525
101534.557
101534.592
101534.611
101534.608
101534.599
101534.601
101534.619
101534.64
101534.662
101534.685
101534.71
101534.732
101534.748
101534.786
101534.847
101534.928
101534.978
101534.988
101535.025
101535.098
101535.195
101535.289
101535.387
101535.502
101535.639
101535.808
101536.006
101536.229
101536.477
101536.814
101537.19
101537.566
101538.235
101538.657
101538.456
101539.671
101541.213
101541.072
101543.515
101545.782
101545.552
101547.534
101550.336
101553.696
101533.508
101533.5
101533.491
101533.483
101533.476
101533.47
101533.465
101533.461
101533.458
101533.456
101533.454
101533.454
101533.455
101533.458
101533.461
101533.465
101533.471
101533.478
101533.486
101533.495
101533.505
101533.516
101533.529
101533.542
101533.556
101533.571
101533.587
101533.604
101533.621
101533.639
101533.657
101533.678
101533.705
101533.734
101533.767
101533.79
101533.798
101533.803
101533.814
101533.836
101533.863
101533.889
101533.916
101533.944
101533.969
101533.987
101534.026
101534.098
101534.145
101534.148
101534.168
101534.216
101534.286
101534.351
101534.414
101534.484
101534.565
101534.664
101534.782
101534.92
101535.072
101535.249
101535.477
101535.757
101536.056
101536.462
101536.999
101537.548
101538.283
101539.076
101539.35
101539.818
101542.652
101545.703
101545.668
101545.971
101550.059
101553.206
101554.745
101555.802
101532.54
101532.533
101532.526
101532.52
101532.515
101532.511
101532.508
101532.506
101532.505
101532.505
101532.506
101532.508
101532.512
101532.517
101532.523
101532.531
101532.54
101532.55
101532.562
101532.575
101532.59
101532.606
101532.624
101532.643
101532.663
101532.684
101532.706
101532.73
101532.756
101532.786
101532.818
101532.848
101532.873
101532.895
101532.916
101532.942
101532.975
101533.011
101533.046
101533.082
101533.118
101533.153
101533.18
101533.223
101533.297
101533.345
101533.355
101533.387
101533.442
101533.497
101533.548
101533.601
101533.66
101533.728
101533.808
101533.898
101534.002
101534.12
101534.257
101534.418
101534.615
101534.841
101535.142
101535.517
101535.959
101536.485
101537.22
101538.076
101538.769
101540.221
101542.884
101545.115
101545.273
101545.378
101546.926
101548.5
101550.362
101551.883
101553.161
101554.577
101531.476
101531.47
101531.464
101531.46
101531.456
101531.453
101531.451
101531.45
101531.451
101531.453
101531.457
101531.462
101531.468
101531.476
101531.486
101531.497
101531.511
101531.525
101531.542
101531.561
101531.581
101531.603
101531.627
101531.651
101531.678
101531.707
101531.739
101531.773
101531.807
101531.841
101531.876
101531.914
101531.955
101531.999
101532.045
101532.09
101532.137
101532.184
101532.226
101532.264
101532.317
101532.397
101532.45
101532.472
101532.516
101532.577
101532.634
101532.687
101532.742
101532.802
101532.867
101532.937
101533.014
101533.099
101533.199
101533.317
101533.455
101533.621
101533.824
101534.056
101534.331
101534.627
101535.034
101535.503
101536.131
101536.676
101537.23
101538.879
101541.622
101542.992
101543.658
101544.704
101545.477
101546.291
101547.738
101549.404
101550.732
101552.311
101553.896
101555.122
101530.307
101530.302
101530.296
101530.291
101530.288
101530.286
101530.286
101530.286
101530.288
101530.292
101530.298
101530.306
101530.315
101530.326
101530.34
101530.355
101530.373
101530.393
101530.414
101530.437
101530.462
101530.49
101530.523
101530.559
101530.597
101530.637
101530.679
101530.723
101530.77
101530.818
101530.869
101530.92
101530.974
101531.029
101531.084
101531.134
101531.19
101531.27
101531.354
101531.399
101531.434
101531.493
101531.565
101531.631
101531.694
101531.759
101531.825
101531.892
101531.962
101532.036
101532.117
101532.208
101532.313
101532.438
101532.583
101532.757
101532.967
101533.213
101533.516
101533.859
101534.26
101534.655
101535.146
101535.642
101536.415
101538.56
101540.824
101541.867
101541.942
101542.217
101543.495
101545.097
101546.313
101547.803
101549.176
101550.975
101552.529
101553.376
101554.302
101555.709
101528.998
101528.991
101528.986
101528.981
101528.979
101528.978
101528.978
101528.98
101528.984
101528.99
101528.999
101529.009
101529.022
101529.037
101529.055
101529.075
101529.097
101529.122
101529.152
101529.186
101529.222
101529.26
101529.301
101529.344
101529.39
101529.439
101529.491
101529.545
101529.601
101529.66
101529.722
101529.784
101529.843
101529.912
101530.001
101530.076
101530.131
101530.196
101530.274
101530.356
101530.431
101530.505
101530.58
101530.656
101530.732
101530.81
101530.892
101530.979
101531.074
101531.179
101531.297
101531.435
101531.595
101531.784
101532.011
101532.282
101532.606
101532.998
101533.486
101534.057
101534.734
101535.394
101536.007
101537.8
101539.729
101540.075
101540.261
101541.103
101542.439
101543.844
101545.236
101546.711
101547.987
101549.006
101550.002
101551.144
101552.35
101553.874
101555.492
101556.779
101527.514
101527.508
101527.502
101527.498
101527.497
101527.497
101527.499
101527.503
101527.51
101527.519
101527.529
101527.542
101527.559
101527.579
101527.602
101527.629
101527.659
101527.691
101527.727
101527.766
101527.808
101527.854
101527.903
101527.955
101528.011
101528.07
101528.133
101528.198
101528.265
101528.331
101528.407
101528.499
101528.577
101528.64
101528.718
101528.807
101528.894
101528.981
101529.067
101529.155
101529.243
101529.333
101529.425
101529.52
101529.62
101529.725
101529.838
101529.962
101530.101
101530.259
101530.44
101530.649
101530.892
101531.175
101531.505
101531.913
101532.384
101532.961
101533.59
101534.157
101535.142
101536.746
101538.272
101538.808
101538.929
101539.712
101540.861
101542.019
101543.395
101544.786
101546.11
101547.537
101548.684
101549.587
101550.74
101552.202
101553.768
101555.26
101556.956
101558.261
101525.795
101525.79
101525.786
101525.784
101525.784
101525.786
101525.791
101525.798
101525.809
101525.822
101525.839
101525.859
101525.882
101525.907
101525.936
101525.969
101526.005
101526.045
101526.088
101526.135
101526.186
101526.241
101526.3
101526.362
101526.429
101526.498
101526.567
101526.644
101526.737
101526.819
101526.891
101526.976
101527.072
101527.166
101527.26
101527.356
101527.454
101527.553
101527.656
101527.76
101527.869
101527.982
101528.1
101528.226
101528.362
101528.51
101528.676
101528.862
101529.073
101529.312
101529.583
101529.888
101530.222
101530.598
101530.988
101531.45
101531.885
101532.504
101533.954
101535.882
101536.846
101537.261
101537.768
101538.374
101539.624
101540.791
101541.774
101542.988
101544.654
101546.172
101547.051
101547.825
101549.144
101550.711
101552.287
101553.835
101555.271
101556.75
101558.382
101560.073
101523.816
101523.813
101523.811
101523.811
101523.815
101523.821
101523.83
101523.842
101523.857
101523.875
101523.897
101523.922
101523.95
101523.983
101524.019
101524.06
101524.104
101524.152
101524.205
101524.261
101524.322
101524.387
101524.456
101524.525
101524.603
101524.694
101524.778
101524.855
101524.944
101525.043
101525.141
101525.241
101525.344
101525.449
101525.558
101525.669
101525.784
101525.903
101526.027
101526.158
101526.296
101526.444
101526.604
101526.78
101526.976
101527.196
101527.446
101527.729
101528.052
101528.421
101528.842
101529.328
101529.885
101530.552
101531.192
101531.881
101533.306
101534.863
101535.351
101535.532
101536.083
101536.677
101537.585
101539.061
101540.218
101541.312
101542.602
101544.091
101545.224
101545.893
101547.086
101548.994
101550.544
101552.014
101553.489
101554.949
101556.367
101557.8
101559.435
101560.696
101521.528
101521.528
101521.53
101521.535
101521.543
101521.554
101521.568
101521.586
101521.607
101521.631
101521.66
101521.693
101521.729
101521.771
101521.816
101521.865
101521.919
101521.977
101522.04
101522.107
101522.176
101522.252
101522.34
101522.425
101522.504
101522.596
101522.695
101522.795
101522.898
101523.005
101523.115
101523.229
101523.346
101523.468
101523.594
101523.725
101523.863
101524.009
101524.164
101524.332
101524.515
101524.716
101524.94
101525.19
101525.471
101525.789
101526.147
101526.548
101526.994
101527.488
101528.031
101528.615
101529.212
101530.159
101531.613
101532.919
101533.435
101533.688
101534.461
101535.424
101536.44
101537.535
101538.705
101539.915
101541.148
101542.406
101543.731
101545.006
101546.37
101548.028
101549.262
101550.399
101551.796
101553.199
101554.676
101556.169
101557.775
101559.201
101561.074
101563.678
101518.89
101518.895
101518.903
101518.913
101518.927
101518.945
101518.966
101518.991
101519.02
101519.053
101519.09
101519.132
101519.179
101519.229
101519.285
101519.345
101519.409
101519.478
101519.553
101519.639
101519.722
101519.803
101519.895
101519.994
101520.095
101520.2
101520.309
101520.421
101520.538
101520.659
101520.784
101520.915
101521.051
101521.193
101521.343
101521.503
101521.675
101521.86
101522.064
101522.288
101522.537
101522.816
101523.129
101523.481
101523.877
101524.322
101524.818
101525.369
101525.986
101526.662
101527.389
101528.177
101529.346
101530.494
101531.34
101531.975
101532.61
101533.612
101534.681
101535.921
101537.302
101538.571
101539.909
101541.508
101542.758
101543.686
101544.925
101546.321
101547.54
101548.73
101549.785
101551.073
101552.816
101554.52
101556.284
101558.069
101559.872
101561.994
101564.094
101565.563
101515.862
101515.873
101515.888
101515.906
101515.927
101515.953
101515.983
101516.017
101516.056
101516.099
101516.147
101516.199
101516.257
101516.319
101516.386
101516.462
101516.539
101516.618
101516.705
101516.798
101516.896
101516.998
101517.103
101517.213
101517.328
101517.447
101517.571
101517.7
101517.834
101517.973
101518.12
101518.274
101518.438
101518.613
101518.803
101519.009
101519.235
101519.485
101519.764
101520.075
101520.423
101520.813
101521.249
101521.736
101522.276
101522.87
101523.519
101524.215
101524.971
101525.856
101527.09
101528.643
101529.47
101529.898
101530.485
101531.372
101532.651
101533.951
101535.159
101536.551
101537.759
101538.562
101539.276
101540.347
101541.741
101543.152
101544.598
101546.166
101547.943
101549.65
101551.214
101552.749
101554.285
101555.921
101557.59
101559.431
101561.212
101562.912
101564.497
101565.66
101512.401
101512.42
101512.444
101512.472
101512.503
101512.539
101512.58
101512.625
101512.675
101512.73
101512.79
101512.855
101512.928
101513.004
101513.082
101513.168
101513.261
101513.357
101513.458
101513.565
101513.676
101513.792
101513.913
101514.039
101514.17
101514.307
101514.45
101514.6
101514.758
101514.925
101515.104
101515.296
101515.504
101515.731
101515.981
101516.259
101516.567
101516.911
101517.296
101517.725
101518.205
101518.738
101519.327
101519.973
101520.677
101521.435
101522.221
101523.05
101524.144
101525.589
101526.742
101527.218
101527.676
101528.6
101529.749
101531.152
101532.599
101533.833
101534.951
101535.802
101537.024
101538.93
101541.023
101542.633
101543.775
101545.019
101546.319
101547.594
101548.831
101550.236
101551.824
101553.435
101555.054
101556.64
101558.361
101559.985
101562.044
101564.363
101566.538
101568.116
101508.468
101508.497
101508.532
101508.571
101508.615
101508.663
101508.716
101508.774
101508.838
101508.907
101508.982
101509.06
101509.145
101509.236
101509.332
101509.433
101509.54
101509.651
101509.769
101509.891
101510.019
101510.153
101510.293
101510.439
101510.592
101510.754
101510.925
101511.107
101511.302
101511.512
101511.741
101511.992
101512.268
101512.574
101512.914
101513.293
101513.716
101514.187
101514.712
101515.293
101515.937
101516.646
101517.423
101518.26
101519.193
101520.197
101521.155
101522.462
101523.922
101524.8
101525.394
101526.259
101527.5
101528.83
101530.142
101531.468
101532.744
101534.07
101535.832
101537.598
101538.871
101540.037
101541.424
101542.965
101544.806
101546.249
101547.361
101548.518
101549.821
101551.127
101552.58
101554.322
101556
101557.872
101560.219
101562.985
101565.052
101566.46
101568.004
101570.218
101504.029
101504.07
101504.119
101504.172
101504.229
101504.291
101504.359
101504.431
101504.509
101504.593
101504.683
101504.778
101504.878
101504.985
101505.097
101505.214
101505.338
101505.468
101505.603
101505.746
101505.895
101506.052
101506.218
101506.393
101506.58
101506.779
101506.995
101507.229
101507.484
101507.764
101508.073
101508.416
101508.797
101509.22
101509.691
101510.212
101510.787
101511.419
101512.108
101512.855
101513.656
101514.507
101515.391
101516.307
101517.471
101519.131
101520.977
101522.056
101522.565
101523.359
101524.659
101525.9
101527.405
101529.239
101530.959
101532.41
101533.873
101535.195
101536.161
101537.307
101538.78
101540.17
101541.533
101542.899
101544.137
101545.579
101547.373
101549.077
101550.74
101552.506
101554.319
101556.097
101558.437
101561.088
101562.752
101563.719
101564.872
101567.139
101569.15
101571.307
101499.083
101499.138
101499.203
101499.271
101499.344
101499.421
101499.505
101499.593
101499.687
101499.787
101499.893
101500.005
101500.122
101500.246
101500.376
101500.513
101500.657
101500.808
101500.967
101501.135
101501.313
101501.503
101501.707
101501.926
101502.164
101502.423
101502.707
101503.02
101503.368
101503.753
101504.182
101504.66
101505.191
101505.781
101506.433
101507.151
101507.937
101508.794
101509.72
101510.716
101511.776
101512.898
101514.03
101515.537
101517.219
101517.978
101518.445
101519.66
101521.582
101523.417
101525.256
101527.327
101528.814
101529.701
101530.594
101531.632
101532.63
101533.702
101534.902
101536.282
101537.98
101539.737
101541.572
101543.385
101545.196
101546.963
101548.765
101550.774
101552.912
101555.056
101557.023
101558.991
101560.29
101561.254
101562.86
101564.61
101566.33
101568.512
101570.415
101572.015
101493.633
101493.703
101493.785
101493.87
101493.958
101494.052
101494.152
101494.257
101494.367
101494.484
101494.607
101494.736
101494.872
101495.015
101495.166
101495.326
101495.494
101495.673
101495.864
101496.069
101496.29
101496.529
101496.789
101497.075
101497.391
101497.74
101498.127
101498.559
101499.04
101499.576
101500.173
101500.834
101501.564
101502.367
101503.245
101504.198
101505.227
101506.328
101507.499
101508.733
101510.026
101511.362
101512.824
101514.048
101515.071
101516.364
101517.881
101519.55
101521.255
101522.555
101523.535
101524.362
101525.551
101527.655
101529.648
101531.436
101533.406
101535.568
101538.076
101540.335
101541.763
101542.881
101543.989
101545.31
101546.954
101548.714
101550.402
101551.882
101553.205
101554.685
101556.688
101559.118
101561.436
101563.334
101565.26
101567.602
101569.409
101571.586
101573.836
101575.693
101487.755
101487.84
101487.94
101488.041
101488.146
101488.255
101488.37
101488.49
101488.616
101488.748
101488.887
101489.033
101489.186
101489.348
101489.52
101489.702
101489.897
101490.106
101490.332
101490.578
101490.847
101491.142
101491.469
101491.831
101492.233
101492.682
101493.182
101493.739
101494.359
101495.047
101495.806
101496.642
101497.556
101498.551
101499.629
101500.787
101502.019
101503.348
101504.756
101506.196
101507.659
101509.029
101510.419
101511.855
101513.297
101514.935
101516.746
101518.053
101519.402
101521.687
101524.193
101526.83
101528.536
101529.573
101531.008
101532.828
101534.462
101536.201
101538.13
101539.529
101541.019
101543.33
101545.455
101547.292
101549.181
101551.349
101552.992
101554.341
101555.901
101557.527
101559.461
101561.546
101563.604
101565.967
101568.533
101570.727
101572.774
101574.838
101576.965
101578.828
101481.538
101481.639
101481.757
101481.875
101481.995
101482.12
101482.251
101482.387
101482.529
101482.679
101482.836
101483.002
101483.179
101483.367
101483.569
101483.787
101484.023
101484.282
101484.565
101484.878
101485.225
101485.611
101486.041
101486.519
101487.053
101487.646
101488.303
101489.028
101489.825
101490.693
101491.634
101492.644
101493.72
101494.856
101496.043
101497.254
101498.494
101499.898
101501.743
101503.857
101505.822
101507.754
101509.736
101511.773
101513.957
101516.289
101518.558
101520.76
101522.36
101523.471
101524.528
101525.601
101527.318
101529.468
101531.228
101533.106
101534.965
101537.007
101538.961
101540.864
101542.776
101544.351
101546.158
101548.087
101549.609
101550.819
101552.753
101555.694
101558.059
101560.241
101562.393
101564.847
101567.442
101568.783
101570.288
101572.233
101574.649
101576.511
101577.637
101579.308
101508.605
101508.608
101508.611
101508.616
101508.623
101508.632
101508.642
101508.655
101508.669
101508.685
101508.702
101508.722
101508.744
101508.768
101508.794
101508.822
101508.852
101508.885
101508.92
101508.958
101508.998
101509.041
101509.087
101509.136
101509.188
101509.243
101509.301
101509.363
101509.429
101509.499
101509.573
101509.651
101509.733
101509.82
101509.912
101510.009
101510.112
101510.22
101510.335
101510.458
101510.588
101510.725
101510.87
101511.023
101511.185
101511.357
101511.538
101511.731
101511.934
101512.149
101512.376
101512.615
101512.867
101513.132
101513.41
101513.701
101514.003
101514.315
101514.633
101514.954
101515.277
101515.597
101515.904
101516.182
101516.437
101516.666
101516.866
101517.031
101517.044
101516.748
101516.216
101515.634
101515.196
101514.836
101514.432
101513.935
101512.99
101511.637
101510.862
101510.675
101512.077
101512.079
101512.083
101512.089
101512.096
101512.106
101512.117
101512.131
101512.146
101512.163
101512.183
101512.204
101512.228
101512.254
101512.282
101512.313
101512.346
101512.381
101512.419
101512.46
101512.503
101512.55
101512.599
101512.652
101512.708
101512.767
101512.829
101512.896
101512.966
101513.041
101513.119
101513.202
101513.289
101513.381
101513.478
101513.58
101513.688
101513.801
101513.921
101514.048
101514.182
101514.322
101514.471
101514.627
101514.793
101514.968
101515.152
101515.348
101515.553
101515.77
101515.998
101516.239
101516.492
101516.758
101517.038
101517.331
101517.636
101517.951
101518.274
101518.605
101518.941
101519.278
101519.608
101519.926
101520.227
101520.501
101520.738
101520.918
101521.03
101521.097
101521.135
101521.024
101520.589
101519.935
101519.029
101518.417
101518.321
101517.778
101516.352
101515.659
101515.301
101515.303
101515.308
101515.314
101515.322
101515.332
101515.344
101515.358
101515.374
101515.392
101515.412
101515.435
101515.459
101515.486
101515.515
101515.547
101515.581
101515.618
101515.658
101515.7
101515.745
101515.793
101515.844
101515.898
101515.956
101516.017
101516.081
101516.149
101516.222
101516.298
101516.378
101516.463
101516.552
101516.646
101516.744
101516.848
101516.958
101517.073
101517.194
101517.321
101517.455
101517.596
101517.745
101517.9
101518.064
101518.235
101518.415
101518.603
101518.799
101519.005
101519.222
101519.449
101519.688
101519.94
101520.205
101520.484
101520.78
101521.091
101521.419
101521.767
101522.138
101522.508
101522.863
101523.219
101523.558
101523.875
101524.154
101524.384
101524.562
101524.681
101524.727
101524.67
101524.521
101524.234
101524.058
101523.51
101522.074
101521.64
101522.735
101522.316
101518.264
101518.266
101518.271
101518.277
101518.285
101518.296
101518.308
101518.322
101518.338
101518.357
101518.377
101518.4
101518.425
101518.452
101518.482
101518.514
101518.548
101518.585
101518.625
101518.667
101518.713
101518.761
101518.812
101518.866
101518.924
101518.985
101519.05
101519.118
101519.19
101519.266
101519.346
101519.43
101519.518
101519.611
101519.709
101519.812
101519.92
101520.033
101520.153
101520.278
101520.409
101520.547
101520.692
101520.844
101521.004
101521.171
101521.346
101521.53
101521.724
101521.927
101522.14
101522.365
101522.6
101522.847
101523.106
101523.376
101523.658
101523.948
101524.247
101524.55
101524.856
101525.166
101525.481
101525.806
101526.167
101526.554
101526.979
101527.393
101527.712
101527.958
101528.126
101528.208
101528.215
101528.144
101527.943
101527.656
101527.396
101526.771
101525.424
101524.901
101520.967
101520.97
101520.975
101520.981
101520.989
101520.999
101521.011
101521.025
101521.042
101521.06
101521.08
101521.102
101521.127
101521.154
101521.183
101521.214
101521.248
101521.285
101521.324
101521.366
101521.41
101521.457
101521.508
101521.561
101521.618
101521.677
101521.74
101521.807
101521.877
101521.952
101522.029
101522.111
101522.197
101522.288
101522.382
101522.482
101522.586
101522.696
101522.811
101522.932
101523.058
101523.19
101523.329
101523.476
101523.629
101523.789
101523.957
101524.134
101524.319
101524.514
101524.719
101524.933
101525.157
101525.392
101525.636
101525.891
101526.156
101526.429
101526.71
101526.998
101527.291
101527.589
101527.897
101528.213
101528.542
101528.869
101529.174
101529.457
101529.76
101530.095
101530.462
101530.817
101531.03
101531.114
101531.062
101530.844
101530.531
101530.165
101530.204
101529.555
101523.412
101523.415
101523.42
101523.426
101523.434
101523.443
101523.455
101523.469
101523.485
101523.502
101523.522
101523.544
101523.567
101523.593
101523.622
101523.652
101523.685
101523.72
101523.758
101523.798
101523.841
101523.887
101523.936
101523.987
101524.041
101524.099
101524.16
101524.224
101524.291
101524.363
101524.437
101524.515
101524.598
101524.684
101524.775
101524.87
101524.969
101525.074
101525.183
101525.298
101525.418
101525.543
101525.675
101525.813
101525.958
101526.11
101526.268
101526.434
101526.607
101526.789
101526.979
101527.178
101527.386
101527.603
101527.83
101528.067
101528.315
101528.573
101528.842
101529.124
101529.417
101529.726
101530.049
101530.391
101530.729
101531.058
101531.363
101531.642
101531.935
101532.21
101532.428
101532.592
101532.783
101532.941
101533.076
101533.224
101533.24
101533.201
101532.984
101532.958
101525.611
101525.614
101525.618
101525.623
101525.631
101525.64
101525.652
101525.665
101525.679
101525.696
101525.715
101525.736
101525.758
101525.783
101525.81
101525.839
101525.87
101525.904
101525.94
101525.978
101526.019
101526.063
101526.109
101526.157
101526.209
101526.264
101526.321
101526.382
101526.446
101526.514
101526.584
101526.658
101526.736
101526.818
101526.903
101526.993
101527.087
101527.185
101527.288
101527.396
101527.509
101527.627
101527.751
101527.881
101528.017
101528.16
101528.309
101528.465
101528.628
101528.8
101528.979
101529.167
101529.364
101529.571
101529.788
101530.015
101530.254
101530.504
101530.766
101531.04
101531.327
101531.628
101531.944
101532.274
101532.617
101532.972
101533.339
101533.718
101534.075
101534.391
101534.647
101534.83
101535.014
101535.143
101535.152
101535.079
101534.88
101534.613
101534.417
101534.311
101527.572
101527.574
101527.578
101527.583
101527.59
101527.598
101527.609
101527.621
101527.635
101527.65
101527.668
101527.687
101527.708
101527.732
101527.757
101527.784
101527.814
101527.845
101527.879
101527.915
101527.953
101527.994
101528.038
101528.083
101528.132
101528.183
101528.237
101528.294
101528.354
101528.417
101528.483
101528.553
101528.625
101528.702
101528.782
101528.866
101528.954
101529.046
101529.142
101529.243
101529.348
101529.459
101529.576
101529.699
101529.827
101529.961
101530.103
101530.251
101530.406
101530.569
101530.74
101530.92
101531.11
101531.309
101531.519
101531.74
101531.973
101532.218
101532.477
101532.749
101533.037
101533.34
101533.66
101533.998
101534.353
101534.724
101535.111
101535.509
101535.913
101536.319
101536.718
101537.113
101537.422
101537.627
101537.736
101537.689
101537.643
101537.372
101536.958
101536.601
101529.309
101529.311
101529.314
101529.318
101529.324
101529.332
101529.341
101529.352
101529.365
101529.379
101529.395
101529.413
101529.432
101529.454
101529.477
101529.502
101529.53
101529.559
101529.59
101529.624
101529.659
101529.697
101529.737
101529.78
101529.825
101529.873
101529.923
101529.976
101530.031
101530.09
101530.151
101530.216
101530.283
101530.354
101530.428
101530.505
101530.586
101530.672
101530.762
101530.857
101530.956
101531.061
101531.172
101531.288
101531.409
101531.536
101531.67
101531.811
101531.96
101532.116
101532.281
101532.455
101532.639
101532.834
101533.04
101533.259
101533.49
101533.735
101533.996
101534.272
101534.566
101534.877
101535.208
101535.56
101535.932
101536.327
101536.743
101537.177
101537.628
101538.09
101538.554
101539.012
101539.444
101539.844
101540.189
101540.486
101540.612
101540.663
101540.497
101540.167
101530.838
101530.839
101530.841
101530.844
101530.849
101530.855
101530.863
101530.872
101530.883
101530.896
101530.91
101530.926
101530.943
101530.963
101530.984
101531.006
101531.031
101531.058
101531.086
101531.117
101531.149
101531.183
101531.22
101531.258
101531.299
101531.343
101531.389
101531.437
101531.488
101531.542
101531.599
101531.659
101531.721
101531.787
101531.857
101531.93
101532.007
101532.087
101532.172
101532.262
101532.356
101532.453
101532.553
101532.659
101532.771
101532.891
101533.019
101533.154
101533.298
101533.449
101533.61
101533.782
101533.964
101534.157
101534.363
101534.582
101534.815
101535.062
101535.327
101535.61
101535.913
101536.237
101536.583
101536.954
101537.349
101537.771
101538.219
101538.694
101539.192
101539.711
101540.244
101540.784
101541.319
101541.835
101542.314
101542.732
101543.062
101543.267
101543.341
101543.225
101532.169
101532.168
101532.169
101532.171
101532.174
101532.179
101532.185
101532.193
101532.202
101532.213
101532.225
101532.239
101532.254
101532.271
101532.29
101532.31
101532.332
101532.356
101532.381
101532.409
101532.439
101532.47
101532.504
101532.539
101532.577
101532.617
101532.659
101532.703
101532.75
101532.798
101532.85
101532.904
101532.96
101533.02
101533.083
101533.148
101533.218
101533.291
101533.368
101533.448
101533.531
101533.622
101533.721
101533.825
101533.934
101534.05
101534.173
101534.305
101534.444
101534.592
101534.749
101534.917
101535.095
101535.286
101535.49
101535.706
101535.938
101536.184
101536.458
101536.761
101537.084
101537.426
101537.791
101538.18
101538.596
101539.043
101539.521
101540.032
101540.574
101541.146
101541.745
101542.363
101542.992
101543.619
101544.227
101544.796
101545.3
101545.708
101545.996
101546.1
101533.317
101533.315
101533.314
101533.314
101533.315
101533.318
101533.322
101533.327
101533.334
101533.342
101533.352
101533.363
101533.375
101533.39
101533.405
101533.423
101533.442
101533.462
101533.485
101533.508
101533.534
101533.562
101533.591
101533.622
101533.655
101533.69
101533.727
101533.766
101533.808
101533.851
101533.897
101533.946
101533.997
101534.05
101534.107
101534.168
101534.23
101534.293
101534.362
101534.438
101534.52
101534.604
101534.693
101534.788
101534.888
101534.996
101535.112
101535.236
101535.368
101535.512
101535.667
101535.835
101536.017
101536.215
101536.432
101536.67
101536.93
101537.204
101537.477
101537.759
101538.068
101538.402
101538.763
101539.151
101539.597
101540.099
101540.627
101541.184
101541.77
101542.385
101543.029
101543.705
101544.406
101545.121
101545.837
101546.534
101547.186
101547.762
101548.23
101548.538
101534.284
101534.28
101534.276
101534.273
101534.272
101534.272
101534.274
101534.276
101534.281
101534.286
101534.293
101534.301
101534.311
101534.322
101534.334
101534.349
101534.364
101534.382
101534.4
101534.421
101534.443
101534.467
101534.492
101534.519
101534.548
101534.579
101534.611
101534.646
101534.683
101534.721
101534.763
101534.806
101534.853
101534.9
101534.949
101535
101535.057
101535.12
101535.185
101535.252
101535.324
101535.4
101535.482
101535.571
101535.668
101535.769
101535.877
101535.994
101536.121
101536.257
101536.405
101536.566
101536.739
101536.926
101537.128
101537.347
101537.583
101537.852
101538.155
101538.483
101538.841
101539.24
101539.677
101540.145
101540.594
101541.036
101541.528
101542.063
101542.634
101543.236
101543.927
101544.693
101545.481
101546.28
101547.088
101547.891
101548.661
101549.362
101549.948
101550.375
101535.075
101535.068
101535.062
101535.056
101535.052
101535.049
101535.048
101535.047
101535.048
101535.051
101535.055
101535.06
101535.066
101535.074
101535.084
101535.095
101535.107
101535.121
101535.136
101535.153
101535.172
101535.192
101535.215
101535.238
101535.264
101535.291
101535.321
101535.352
101535.385
101535.418
101535.452
101535.489
101535.528
101535.571
101535.617
101535.669
101535.722
101535.775
101535.831
101535.892
101535.957
101536.027
101536.102
101536.183
101536.27
101536.364
101536.467
101536.578
101536.699
101536.831
101536.974
101537.131