/*--------------------------------*- C++ -*----------------------------------*\
  =========                 |
  \\      /  F ield         | OpenFOAM: The Open Source CFD Toolbox
   \\    /   O peration     | Website:  https://openfoam.org
    \\  /    A nd           | Version:  8
     \\/     M anipulation  |
\*---------------------------------------------------------------------------*/
FoamFile
{
    version     2.0;
    format      ascii;
    class       volScalarField;
    location    "0.052";
    object      p_rgh;
}
// * * * * * * * * * * * * * * * * * * * * * * * * * * * * * * * * * * * * * //

dimensions      [1 -1 -2 0 0 0 0];

internalField   nonuniform List<scalar> 
42400
(
101534.743
101534.729
101534.715
101534.701
101534.689
101534.679
101534.669
101534.66
101534.652
101534.646
101534.64
101534.636
101534.633
101534.631
101534.631
101534.631
101534.633
101534.636
101534.64
101534.645
101534.651
101534.659
101534.667
101534.676
101534.686
101534.696
101534.707
101534.719
101534.731
101534.744
101534.757
101534.771
101534.785
101534.799
101534.813
101534.827
101534.841
101534.854
101534.879
101534.917
101534.959
101534.981
101534.978
101534.968
101534.958
101534.965
101534.991
101535.022
101535.054
101535.091
101535.128
101535.165
101535.198
101535.257
101535.343
101535.451
101535.532
101535.575
101535.659
101535.788
101535.942
101536.098
101536.268
101536.466
101536.7
101536.978
101537.263
101537.612
101538.053
101538.042
101538.388
101539.934
101540.455
101538.731
101538.769
101542.345
101545.587
101544.353
101546.822
101548.213
101534.002
101533.991
101533.979
101533.969
101533.96
101533.951
101533.944
101533.937
101533.932
101533.927
101533.924
101533.921
101533.92
101533.92
101533.921
101533.923
101533.926
101533.93
101533.936
101533.942
101533.95
101533.958
101533.967
101533.977
101533.988
101533.999
101534.012
101534.024
101534.037
101534.051
101534.065
101534.079
101534.093
101534.107
101534.12
101534.141
101534.173
101534.208
101534.226
101534.223
101534.213
101534.216
101534.234
101534.255
101534.276
101534.299
101534.323
101534.345
101534.36
101534.398
101534.459
101534.539
101534.588
101534.598
101534.635
101534.708
101534.804
101534.898
101534.996
101535.111
101535.249
101535.419
101535.617
101535.84
101536.092
101536.431
101536.799
101537.196
101537.851
101538.203
101538.192
101539.607
101540.983
101540.917
101543.285
101545.145
101545.403
101547.484
101549.864
101553.326
101533.136
101533.128
101533.119
101533.111
101533.105
101533.099
101533.094
101533.089
101533.086
101533.084
101533.083
101533.083
101533.084
101533.086
101533.089
101533.094
101533.099
101533.106
101533.114
101533.123
101533.133
101533.144
101533.156
101533.17
101533.184
101533.199
101533.215
101533.231
101533.249
101533.266
101533.284
101533.305
101533.332
101533.361
101533.393
101533.416
101533.425
101533.429
101533.44
101533.462
101533.489
101533.516
101533.542
101533.57
101533.595
101533.613
101533.651
101533.723
101533.769
101533.773
101533.793
101533.841
101533.91
101533.975
101534.038
101534.108
101534.189
101534.289
101534.408
101534.546
101534.701
101534.881
101535.113
101535.393
101535.699
101536.123
101536.655
101537.212
101537.955
101538.692
101539.052
101539.609
101542.147
101545.02
101545.541
101546.478
101550.266
101552.873
101554.524
101555.719
101532.176
101532.17
101532.163
101532.157
101532.152
101532.148
101532.145
101532.143
101532.142
101532.142
101532.143
101532.145
101532.149
101532.154
101532.16
101532.168
101532.177
101532.187
101532.199
101532.212
101532.227
101532.243
101532.261
101532.279
101532.3
101532.321
101532.343
101532.367
101532.393
101532.422
101532.454
101532.484
101532.509
101532.531
101532.552
101532.578
101532.611
101532.647
101532.682
101532.718
101532.754
101532.788
101532.815
101532.86
101532.934
101532.981
101532.991
101533.023
101533.078
101533.133
101533.184
101533.237
101533.296
101533.365
101533.445
101533.537
101533.641
101533.76
101533.899
101534.061
101534.261
101534.493
101534.801
101535.179
101535.622
101536.164
101536.909
101537.758
101538.461
101539.716
101542.136
101544.487
101545.093
101545.512
101547.042
101548.719
101550.704
101552.201
101553.377
101554.684
101531.121
101531.116
101531.11
101531.105
101531.101
101531.098
101531.096
101531.096
101531.097
101531.099
101531.102
101531.107
101531.114
101531.122
101531.131
101531.143
101531.156
101531.171
101531.188
101531.206
101531.227
101531.249
101531.272
101531.296
101531.323
101531.352
101531.384
101531.418
101531.452
101531.486
101531.521
101531.558
101531.6
101531.644
101531.689
101531.734
101531.781
101531.827
101531.868
101531.909
101531.966
101532.046
101532.096
101532.116
101532.161
101532.223
101532.28
101532.333
101532.389
101532.45
101532.515
101532.586
101532.663
101532.75
101532.85
101532.97
101533.11
101533.277
101533.483
101533.717
101533.996
101534.301
101534.723
101535.205
101535.842
101536.391
101536.96
101538.576
101541.236
101542.849
101543.655
101544.528
101545.284
101546.296
101547.918
101549.496
101550.824
101552.368
101553.853
101555.056
101529.96
101529.954
101529.948
101529.944
101529.941
101529.939
101529.938
101529.939
101529.941
101529.945
101529.951
101529.958
101529.968
101529.979
101529.993
101530.008
101530.026
101530.046
101530.067
101530.09
101530.115
101530.143
101530.176
101530.212
101530.25
101530.29
101530.331
101530.376
101530.422
101530.471
101530.521
101530.573
101530.626
101530.681
101530.736
101530.786
101530.843
101530.925
101531.006
101531.048
101531.086
101531.147
101531.22
101531.285
101531.348
101531.414
101531.48
101531.548
101531.618
101531.693
101531.775
101531.867
101531.974
101532.101
101532.248
101532.424
101532.636
101532.885
101533.191
101533.534
101533.939
101534.343
101534.855
101535.351
101536.146
101538.31
101540.606
101541.628
101541.688
101542.04
101543.309
101544.882
101546.19
101547.723
101549.076
101550.855
101552.431
101553.349
101554.333
101555.73
101528.657
101528.651
101528.645
101528.641
101528.638
101528.637
101528.638
101528.64
101528.644
101528.65
101528.658
101528.669
101528.682
101528.697
101528.715
101528.735
101528.757
101528.782
101528.812
101528.846
101528.882
101528.92
101528.961
101529.004
101529.05
101529.099
101529.151
101529.205
101529.261
101529.321
101529.382
101529.444
101529.504
101529.573
101529.662
101529.736
101529.791
101529.856
101529.935
101530.016
101530.091
101530.165
101530.241
101530.316
101530.393
101530.472
101530.554
101530.642
101530.738
101530.844
101530.963
101531.103
101531.265
101531.457
101531.687
101531.961
101532.287
101532.681
101533.165
101533.723
101534.377
101535.027
101535.718
101537.627
101539.5
101539.835
101540.023
101540.901
101542.244
101543.623
101545.058
101546.544
101547.865
101549.008
101550.101
101551.228
101552.369
101553.843
101555.462
101556.782
101527.179
101527.173
101527.168
101527.164
101527.162
101527.163
101527.165
101527.169
101527.176
101527.185
101527.195
101527.209
101527.225
101527.245
101527.268
101527.295
101527.325
101527.357
101527.393
101527.432
101527.475
101527.52
101527.569
101527.622
101527.678
101527.737
101527.799
101527.865
101527.932
101527.998
101528.074
101528.166
101528.244
101528.307
101528.385
101528.474
101528.561
101528.648
101528.734
101528.822
101528.91
101529
101529.092
101529.187
101529.287
101529.392
101529.506
101529.631
101529.77
101529.93
101530.113
101530.325
101530.571
101530.859
101531.196
101531.61
101532.092
101532.685
101533.339
101533.933
101534.851
101536.485
101538.031
101538.54
101538.732
101539.529
101540.691
101541.91
101543.315
101544.727
101546.101
101547.511
101548.605
101549.515
101550.662
101552.093
101553.672
101555.207
101556.902
101558.188
101525.467
101525.462
101525.458
101525.456
101525.456
101525.458
101525.463
101525.471
101525.481
101525.495
101525.512
101525.532
101525.554
101525.58
101525.609
101525.641
101525.677
101525.717
101525.761
101525.808
101525.859
101525.914
101525.973
101526.035
101526.102
101526.171
101526.24
101526.317
101526.41
101526.492
101526.564
101526.65
101526.745
101526.839
101526.933
101527.029
101527.127
101527.226
101527.329
101527.433
101527.542
101527.655
101527.773
101527.899
101528.035
101528.184
101528.35
101528.537
101528.749
101528.99
101529.263
101529.571
101529.909
101530.294
101530.7
101531.175
101531.612
101532.237
101533.673
101535.59
101536.678
101537.074
101537.504
101538.157
101539.393
101540.576
101541.6
101542.858
101544.482
101545.885
101546.77
101547.685
101549.049
101550.602
101552.175
101553.739
101555.237
101556.754
101558.404
101560.1
101523.494
101523.491
101523.489
101523.49
101523.493
101523.499
101523.508
101523.521
101523.536
101523.554
101523.575
101523.6
101523.629
101523.662
101523.698
101523.739
101523.783
101523.831
101523.884
101523.94
101524.001
101524.066
101524.135
101524.204
101524.282
101524.373
101524.457
101524.534
101524.623
101524.722
101524.82
101524.92
101525.023
101525.128
101525.237
101525.349
101525.464
101525.583
101525.707
101525.838
101525.976
101526.124
101526.285
101526.462
101526.659
101526.879
101527.129
101527.413
101527.735
101528.103
101528.518
101528.997
101529.536
101530.173
101530.793
101531.538
101533.006
101534.528
101535.059
101535.242
101535.762
101536.409
101537.4
101538.846
101539.993
101541.093
101542.414
101543.808
101544.87
101545.676
101547.072
101548.955
101550.503
101551.968
101553.445
101554.929
101556.367
101557.827
101559.471
101560.819
101521.212
101521.213
101521.215
101521.22
101521.228
101521.238
101521.253
101521.27
101521.291
101521.316
101521.345
101521.378
101521.414
101521.455
101521.501
101521.55
101521.604
101521.662
101521.725
101521.792
101521.861
101521.937
101522.025
101522.11
101522.189
101522.281
101522.38
101522.481
101522.584
101522.69
101522.801
101522.915
101523.032
101523.154
101523.28
101523.412
101523.55
101523.697
101523.853
101524.022
101524.206
101524.408
101524.633
101524.885
101525.169
101525.49
101525.852
101526.26
101526.714
101527.221
101527.78
101528.386
101529.018
101529.935
101531.332
101532.594
101533.171
101533.491
101534.228
101535.185
101536.156
101537.223
101538.457
101539.658
101540.883
101542.152
101543.498
101544.868
101546.309
101547.883
101549.087
101550.257
101551.668
101553.102
101554.614
101556.118
101557.68
101559.112
101560.942
101563.311
101518.58
101518.585
101518.593
101518.603
101518.617
101518.635
101518.656
101518.681
101518.71
101518.743
101518.78
101518.822
101518.868
101518.919
101518.975
101519.035
101519.099
101519.168
101519.245
101519.33
101519.412
101519.493
101519.585
101519.685
101519.786
101519.89
101519.999
101520.112
101520.229
101520.35
101520.476
101520.606
101520.743
101520.885
101521.036
101521.197
101521.369
101521.555
101521.76
101521.985
101522.236
101522.516
101522.83
101523.184
101523.583
101524.029
101524.527
101525.079
101525.695
101526.369
101527.1
101527.916
101529.09
101530.301
101531.154
101531.755
101532.414
101533.406
101534.516
101535.784
101537.125
101538.364
101539.701
101541.23
101542.468
101543.536
101544.833
101546.153
101547.353
101548.568
101549.648
101550.955
101552.701
101554.416
101556.165
101557.89
101559.715
101561.913
101564.053
101565.66
101515.556
101515.567
101515.582
101515.6
101515.622
101515.648
101515.677
101515.711
101515.75
101515.793
101515.841
101515.894
101515.951
101516.013
101516.081
101516.156
101516.234
101516.313
101516.4
101516.492
101516.591
101516.692
101516.798
101516.908
101517.023
101517.142
101517.266
101517.394
101517.528
101517.668
101517.815
101517.97
101518.134
101518.31
101518.5
101518.706
101518.934
101519.185
101519.464
101519.777
101520.127
101520.519
101520.958
101521.448
101521.991
101522.589
101523.242
101523.943
101524.705
101525.572
101526.769
101528.272
101529.184
101529.654
101530.233
101531.186
101532.478
101533.785
101535.016
101536.361
101537.549
101538.436
101539.283
101540.364
101541.634
101542.954
101544.365
101545.951
101547.738
101549.453
101551.001
101552.528
101554.132
101555.853
101557.59
101559.465
101561.231
101562.946
101564.629
101565.913
101512.099
101512.118
101512.142
101512.17
101512.201
101512.237
101512.278
101512.323
101512.373
101512.428
101512.488
101512.553
101512.626
101512.701
101512.78
101512.866
101512.958
101513.055
101513.156
101513.262
101513.374
101513.49
101513.611
101513.737
101513.868
101514.005
101514.148
101514.298
101514.456
101514.624
101514.803
101514.995
101515.204
101515.432
101515.683
101515.961
101516.271
101516.616
101517.003
101517.435
101517.917
101518.454
101519.046
101519.698
101520.409
101521.174
101521.972
101522.815
101523.895
101525.344
101526.465
101526.943
101527.435
101528.375
101529.606
101531.033
101532.432
101533.601
101534.659
101535.616
101536.889
101538.607
101540.533
101542.193
101543.566
101544.952
101546.285
101547.54
101548.757
101550.145
101551.734
101553.382
101554.987
101556.561
101558.282
101559.953
101562.009
101564.24
101566.306
101567.795
101508.167
101508.197
101508.232
101508.271
101508.315
101508.363
101508.416
101508.474
101508.538
101508.607
101508.682
101508.76
101508.845
101508.936
101509.032
101509.133
101509.239
101509.351
101509.468
101509.591
101509.719
101509.852
101509.992
101510.138
101510.292
101510.453
101510.625
101510.807
101511.002
101511.213
101511.442
101511.693
101511.97
101512.277
101512.618
101512.998
101513.422
101513.895
101514.42
101515.004
101515.648
101516.358
101517.134
101517.974
101518.903
101519.892
101520.845
101522.155
101523.659
101524.525
101525.143
101526.048
101527.281
101528.631
101529.978
101531.294
101532.536
101533.904
101535.68
101537.291
101538.543
101539.789
101541.224
101542.788
101544.565
101546.031
101547.225
101548.485
101549.828
101551.124
101552.575
101554.304
101555.942
101557.691
101559.934
101562.675
101564.88
101566.387
101567.92
101570.005
101503.73
101503.771
101503.821
101503.874
101503.931
101503.993
101504.06
101504.133
101504.211
101504.295
101504.384
101504.479
101504.58
101504.686
101504.798
101504.915
101505.039
101505.168
101505.304
101505.446
101505.595
101505.752
101505.917
101506.093
101506.279
101506.479
101506.694
101506.928
101507.183
101507.463
101507.773
101508.116
101508.497
101508.921
101509.393
101509.915
101510.493
101511.127
101511.82
101512.572
101513.379
101514.236
101515.126
101516.047
101517.222
101518.861
101520.656
101521.741
101522.27
101523.091
101524.399
101525.677
101527.21
101528.946
101530.486
101531.862
101533.386
101534.783
101535.864
101537.212
101538.767
101540.147
101541.495
101542.843
101544.105
101545.566
101547.297
101548.937
101550.569
101552.332
101554.149
101555.938
101558.167
101560.846
101562.702
101563.867
101565.138
101567.273
101569.198
101571.363
101498.784
101498.839
101498.904
101498.972
101499.045
101499.122
101499.205
101499.294
101499.388
101499.488
101499.594
101499.705
101499.823
101499.946
101500.076
101500.213
101500.357
101500.508
101500.667
101500.835
101501.013
101501.203
101501.406
101501.625
101501.863
101502.122
101502.406
101502.719
101503.066
101503.451
101503.88
101504.357
101504.887
101505.476
101506.126
101506.842
101507.625
101508.478
101509.401
101510.393
101511.449
101512.567
101513.721
101515.254
101516.883
101517.726
101518.291
101519.461
101521.338
101523.156
101524.962
101526.917
101528.347
101529.334
101530.43
101531.605
101532.637
101533.717
101534.924
101536.195
101537.741
101539.517
101541.401
101543.22
101544.989
101546.731
101548.544
101550.587
101552.707
101554.785
101556.751
101558.753
101560.269
101561.489
101563.037
101564.609
101566.292
101568.504
101570.39
101572.088
101493.333
101493.403
101493.485
101493.57
101493.658
101493.752
101493.852
101493.957
101494.067
101494.184
101494.306
101494.436
101494.572
101494.715
101494.865
101495.025
101495.193
101495.372
101495.563
101495.767
101495.988
101496.227
101496.488
101496.774
101497.089
101497.439
101497.827
101498.26
101498.742
101499.279
101499.878
101500.541
101501.275
101502.082
101502.964
101503.923
101504.958
101506.066
101507.243
101508.483
101509.777
101511.118
101512.551
101513.821
101514.939
101516.203
101517.691
101519.406
101521.048
101522.315
101523.37
101524.331
101525.591
101527.545
101529.302
101530.914
101532.817
101534.936
101537.333
101539.637
101541.142
101542.279
101543.44
101544.825
101546.586
101548.486
101550.263
101551.791
101553.25
101554.93
101556.977
101559.3
101561.556
101563.323
101565.124
101567.384
101569.295
101571.515
101573.745
101575.585
101487.453
101487.539
101487.639
101487.74
101487.845
101487.954
101488.069
101488.189
101488.315
101488.447
101488.586
101488.732
101488.885
101489.047
101489.219
101489.402
101489.597
101489.806
101490.033
101490.279
101490.548
101490.844
101491.171
101491.534
101491.937
101492.387
101492.888
101493.446
101494.066
101494.755
101495.515
101496.351
101497.266
101498.263
101499.342
101500.502
101501.742
101503.073
101504.486
101505.941
101507.423
101508.829
101510.264
101511.661
101513.061
101514.714
101516.459
101517.742
101519.18
101521.478
101523.846
101526.169
101527.753
101528.97
101530.68
101532.684
101534.467
101536.165
101537.979
101539.476
101541.015
101543.171
101545.1
101546.882
101548.849
101550.923
101552.542
101553.974
101555.576
101557.296
101559.277
101561.347
101563.44
101565.872
101568.447
101570.694
101572.731
101574.903
101577.039
101578.788
101481.232
101481.333
101481.451
101481.568
101481.689
101481.814
101481.944
101482.08
101482.222
101482.371
101482.528
101482.694
101482.87
101483.058
101483.259
101483.476
101483.712
101483.97
101484.253
101484.566
101484.912
101485.297
101485.726
101486.205
101486.738
101487.33
101487.988
101488.713
101489.51
101490.38
101491.321
101492.333
101493.41
101494.546
101495.732
101496.937
101498.167
101499.589
101501.446
101503.536
101505.493
101507.432
101509.444
101511.524
101513.715
101515.98
101518.163
101520.23
101521.735
101522.869
101524.073
101525.505
101527.498
101529.494
101531.129
101532.911
101534.669
101536.661
101538.656
101540.462
101542.23
101543.922
101545.993
101547.971
101549.495
101550.95
101553.099
101555.729
101557.879
101559.914
101562.053
101564.526
101567.006
101568.604
101570.265
101572.274
101574.776
101576.618
101577.741
101579.387
101508.391
101508.393
101508.397
101508.402
101508.409
101508.418
101508.428
101508.441
101508.455
101508.471
101508.489
101508.509
101508.531
101508.555
101508.582
101508.61
101508.641
101508.674
101508.71
101508.748
101508.788
101508.832
101508.878
101508.927
101508.98
101509.035
101509.094
101509.157
101509.223
101509.293
101509.368
101509.446
101509.529
101509.617
101509.709
101509.807
101509.911
101510.02
101510.136
101510.259
101510.389
101510.527
101510.672
101510.826
101510.989
101511.161
101511.344
101511.537
101511.741
101511.956
101512.184
101512.423
101512.675
101512.94
101513.218
101513.508
101513.808
101514.118
101514.434
101514.753
101515.075
101515.394
101515.702
101515.983
101516.238
101516.461
101516.649
101516.799
101516.832
101516.61
101516.143
101515.572
101515.028
101514.53
101514.031
101513.519
101512.686
101511.409
101510.403
101510.059
101511.835
101511.838
101511.842
101511.848
101511.856
101511.865
101511.877
101511.89
101511.906
101511.923
101511.943
101511.965
101511.989
101512.015
101512.043
101512.074
101512.107
101512.143
101512.181
101512.222
101512.266
101512.313
101512.363
101512.416
101512.472
101512.531
101512.594
101512.661
101512.732
101512.807
101512.886
101512.969
101513.056
101513.149
101513.246
101513.349
101513.457
101513.572
101513.692
101513.819
101513.953
101514.094
101514.243
101514.4
101514.565
101514.74
101514.925
101515.12
101515.326
101515.543
101515.772
101516.013
101516.267
101516.533
101516.812
101517.104
101517.407
101517.721
101518.044
101518.374
101518.711
101519.048
101519.378
101519.695
101519.993
101520.265
101520.499
101520.678
101520.788
101520.839
101520.841
101520.71
101520.325
101519.719
101518.899
101518.21
101518.017
101517.693
101516.521
101515.605
101515.033
101515.036
101515.04
101515.046
101515.055
101515.065
101515.077
101515.091
101515.107
101515.125
101515.146
101515.168
101515.193
101515.22
101515.25
101515.282
101515.316
101515.353
101515.393
101515.435
101515.481
101515.529
101515.58
101515.635
101515.692
101515.754
101515.819
101515.887
101515.96
101516.036
101516.117
101516.202
101516.291
101516.385
101516.485
101516.589
101516.699
101516.814
101516.936
101517.063
101517.198
101517.339
101517.488
101517.644
101517.808
101517.98
101518.16
101518.349
101518.546
101518.753
101518.97
101519.197
101519.435
101519.684
101519.947
101520.224
101520.516
101520.823
101521.148
101521.492
101521.858
101522.23
101522.592
101522.951
101523.296
101523.618
101523.903
101524.139
101524.321
101524.445
101524.501
101524.467
101524.351
101524.112
101523.921
101523.507
101522.363
101521.654
101522.232
101521.99
101517.97
101517.973
101517.978
101517.984
101517.993
101518.003
101518.015
101518.03
101518.046
101518.065
101518.085
101518.108
101518.133
101518.161
101518.19
101518.222
101518.257
101518.294
101518.334
101518.377
101518.422
101518.471
101518.522
101518.577
101518.635
101518.696
101518.76
101518.829
101518.901
101518.978
101519.058
101519.142
101519.231
101519.324
101519.422
101519.525
101519.633
101519.747
101519.866
101519.991
101520.123
101520.261
101520.406
101520.558
101520.718
101520.885
101521.061
101521.245
101521.438
101521.64
101521.853
101522.076
101522.31
101522.556
101522.813
101523.082
101523.362
101523.653
101523.951
101524.256
101524.564
101524.877
101525.193
101525.517
101525.867
101526.243
101526.654
101527.068
101527.409
101527.676
101527.867
101527.975
101528.009
101527.962
101527.801
101527.544
101527.271
101526.761
101525.704
101525.045
101520.65
101520.653
101520.658
101520.664
101520.672
101520.683
101520.695
101520.709
101520.725
101520.743
101520.764
101520.786
101520.811
101520.838
101520.867
101520.899
101520.933
101520.969
101521.009
101521.05
101521.095
101521.143
101521.193
101521.246
101521.303
101521.363
101521.426
101521.493
101521.563
101521.638
101521.715
101521.797
101521.883
101521.974
101522.069
101522.168
101522.273
101522.383
101522.497
101522.618
101522.744
101522.877
101523.016
101523.161
101523.314
101523.474
101523.642
101523.818
101524.003
101524.197
101524.4
101524.613
101524.837
101525.071
101525.316
101525.571
101525.836
101526.11
101526.393
101526.682
101526.978
101527.278
101527.585
101527.9
101528.225
101528.552
101528.862
101529.148
101529.444
101529.755
101530.093
101530.429
101530.67
101530.8
101530.774
101530.616
101530.339
101529.965
101529.933
101529.426
101523.073
101523.076
101523.08
101523.087
101523.095
101523.105
101523.116
101523.13
101523.146
101523.164
101523.183
101523.205
101523.229
101523.255
101523.283
101523.314
101523.347
101523.382
101523.42
101523.461
101523.504
101523.549
101523.598
101523.649
101523.704
101523.761
101523.822
101523.886
101523.954
101524.025
101524.1
101524.178
101524.26
101524.347
101524.437
101524.532
101524.632
101524.736
101524.845
101524.96
101525.079
101525.205
101525.336
101525.474
101525.618
101525.77
101525.928
101526.093
101526.266
101526.447
101526.637
101526.836
101527.043
101527.26
101527.487
101527.723
101527.971
101528.229
101528.498
101528.778
101529.072
101529.379
101529.701
101530.041
101530.383
101530.718
101531.033
101531.322
101531.61
101531.88
101532.104
101532.273
101532.434
101532.568
101532.692
101532.808
101532.833
101532.772
101532.566
101532.475
101525.251
101525.254
101525.258
101525.264
101525.272
101525.281
101525.292
101525.305
101525.32
101525.337
101525.356
101525.377
101525.4
101525.424
101525.451
101525.48
101525.512
101525.545
101525.581
101525.62
101525.661
101525.704
101525.75
101525.799
101525.851
101525.905
101525.963
101526.023
101526.087
101526.155
101526.225
101526.299
101526.377
101526.458
101526.544
101526.633
101526.727
101526.825
101526.928
101527.035
101527.148
101527.266
101527.389
101527.519
101527.654
101527.797
101527.946
101528.101
101528.264
101528.435
101528.614
101528.802
101528.998
101529.204
101529.421
101529.647
101529.885
101530.135
101530.396
101530.67
101530.956
101531.257
101531.572
101531.902
101532.245
101532.6
101532.966
101533.341
101533.701
101534.032
101534.305
101534.507
101534.684
101534.795
101534.813
101534.728
101534.517
101534.241
101533.98
101533.837
101527.194
101527.197
101527.2
101527.206
101527.213
101527.221
101527.232
101527.244
101527.258
101527.274
101527.291
101527.31
101527.332
101527.355
101527.38
101527.408
101527.437
101527.468
101527.502
101527.538
101527.577
101527.617
101527.661
101527.706
101527.755
101527.806
101527.86
101527.917
101527.977
101528.04
101528.105
101528.175
101528.247
101528.323
101528.403
101528.487
101528.575
101528.666
101528.762
101528.863
101528.968
101529.078
101529.195
101529.317
101529.445
101529.579
101529.72
101529.867
101530.022
101530.184
101530.355
101530.534
101530.723
101530.922
101531.131
101531.351
101531.583
101531.828
101532.086
101532.358
101532.645
101532.948
101533.267
101533.604
101533.958
101534.329
101534.715
101535.113
101535.516
101535.921
101536.319
101536.706
101537.021
101537.245
101537.364
101537.342
101537.265
101537.005
101536.592
101536.227
101528.916
101528.918
101528.921
101528.926
101528.932
101528.939
101528.949
101528.96
101528.972
101528.987
101529.003
101529.02
101529.04
101529.061
101529.085
101529.11
101529.137
101529.166
101529.197
101529.231
101529.266
101529.304
101529.344
101529.387
101529.432
101529.479
101529.529
101529.582
101529.637
101529.696
101529.757
101529.821
101529.888
101529.958
101530.032
101530.109
101530.19
101530.275
101530.365
101530.459
101530.558
101530.663
101530.773
101530.888
101531.009
101531.135
101531.268
101531.409
101531.557
101531.713
101531.877
101532.051
101532.234
101532.428
101532.634
101532.851
101533.082
101533.327
101533.587
101533.862
101534.155
101534.466
101534.797
101535.147
101535.519
101535.913
101536.328
101536.762
101537.212
101537.672
101538.135
101538.59
101539.021
101539.416
101539.757
101540.04
101540.179
101540.217
101540.048
101539.713
101530.432
101530.433
101530.435
101530.438
101530.443
101530.45
101530.457
101530.467
101530.478
101530.49
101530.505
101530.52
101530.538
101530.557
101530.578
101530.601
101530.625
101530.652
101530.68
101530.71
101530.743
101530.777
101530.813
101530.852
101530.893
101530.936
101530.981
101531.029
101531.08
101531.134
101531.19
101531.25
101531.312
101531.378
101531.447
101531.519
101531.596
101531.676
101531.76
101531.849
101531.943
101532.039
101532.139
101532.244
101532.356
101532.476
101532.603
101532.737
101532.88
101533.031
101533.191
101533.362
101533.543
101533.736
101533.941
101534.159
101534.391
101534.638
101534.902
101535.184
101535.486
101535.81
101536.156
101536.525
101536.92
101537.341
101537.789
101538.262
101538.76
101539.277
101539.809
101540.347
101540.88
101541.394
101541.869
101542.284
101542.609
101542.811
101542.878
101542.752
101531.752
101531.752
101531.752
101531.755
101531.758
101531.763
101531.769
101531.777
101531.786
101531.796
101531.809
101531.822
101531.838
101531.854
101531.873
101531.893
101531.915
101531.939
101531.964
101531.992
101532.021
101532.052
101532.085
101532.121
101532.159
101532.198
101532.24
101532.284
101532.33
101532.379
101532.43
101532.483
101532.54
101532.599
101532.661
101532.726
101532.795
101532.868
101532.944
101533.024
101533.107
101533.197
101533.295
101533.398
101533.507
101533.622
101533.745
101533.875
101534.014
101534.16
101534.317
101534.483
101534.661
101534.851
101535.053
101535.268
101535.499
101535.747
101536.023
101536.324
101536.644
101536.985
101537.348
101537.736
101538.151
101538.597
101539.075
101539.585
101540.126
101540.697
101541.294
101541.912
101542.539
101543.164
101543.771
101544.34
101544.844
101545.254
101545.546
101545.661
101532.892
101532.89
101532.889
101532.889
101532.891
101532.893
101532.897
101532.903
101532.909
101532.918
101532.927
101532.938
101532.951
101532.965
101532.981
101532.998
101533.017
101533.037
101533.059
101533.083
101533.109
101533.136
101533.165
101533.196
101533.229
101533.263
101533.3
101533.339
101533.38
101533.423
101533.469
101533.517
101533.567
101533.62
101533.677
101533.737
101533.798
101533.861
101533.93
101534.005
101534.086
101534.17
101534.257
101534.351
101534.451
101534.558
101534.674
101534.797
101534.929
101535.071
101535.226
101535.393
101535.575
101535.773
101535.99
101536.228
101536.483
101536.749
101537.018
101537.302
101537.61
101537.943
101538.302
101538.696
101539.146
101539.644
101540.168
101540.721
101541.304
101541.916
101542.558
101543.232
101543.931
101544.645
101545.361
101546.058
101546.713
101547.295
101547.771
101548.089
101533.854
101533.85
101533.846
101533.844
101533.842
101533.842
101533.844
101533.847
101533.851
101533.856
101533.863
101533.871
101533.88
101533.891
101533.904
101533.918
101533.934
101533.951
101533.969
101533.99
101534.011
101534.035
101534.06
101534.087
101534.116
101534.146
101534.178
101534.213
101534.249
101534.287
101534.328
101534.371
101534.417
101534.464
101534.512
101534.562
101534.619
101534.682
101534.746
101534.813
101534.883
101534.959
101535.04
101535.128
101535.224
101535.324
101535.431
101535.547
101535.673
101535.808
101535.955
101536.114
101536.286
101536.472
101536.672
101536.89
101537.129
101537.398
101537.7
101538.027
101538.386
101538.784
101539.219
101539.67
101540.106
101540.55
101541.041
101541.574
101542.144
101542.751
101543.443
101544.205
101544.986
101545.78
101546.584
101547.383
101548.152
101548.858
101549.454
101549.893
101534.642
101534.635
101534.629
101534.623
101534.619
101534.616
101534.615
101534.614
101534.615
101534.618
101534.621
101534.626
101534.633
101534.641
101534.65
101534.661
101534.673
101534.687
101534.702
101534.719
101534.737
101534.758
101534.779
101534.803
101534.828
101534.855
101534.884
101534.915
101534.947
101534.98
101535.014
101535.05
101535.089
101535.132
101535.178
101535.228
101535.281
101535.333
101535.389
101535.449
101535.513
101535.582
101535.656
101535.736
101535.822
101535.916
101536.017
101536.127
101536.247
101536.378