/*--------------------------------*- C++ -*----------------------------------*\
  =========                 |
  \\      /  F ield         | OpenFOAM: The Open Source CFD Toolbox
   \\    /   O peration     | Website:  https://openfoam.org
    \\  /    A nd           | Version:  8
     \\/     M anipulation  |
\*---------------------------------------------------------------------------*/
FoamFile
{
    version     2.0;
    format      ascii;
    class       volScalarField;
    location    "0.052";
    object      T;
}
// * * * * * * * * * * * * * * * * * * * * * * * * * * * * * * * * * * * * * //

dimensions      [0 0 0 1 0 0 0];

internalField   nonuniform List<scalar> 
42400
(
472.142791
470.40935
468.630252
466.804403
464.930776
463.008424
461.036505
459.014301
456.941246
454.816957
452.64126
450.414233
448.136238
445.807965
443.430474
441.005239
438.534199
436.019798
433.465035
430.87351
428.249461
425.597801
422.924151
420.234857
417.537003
414.838406
412.147603
409.473812
406.826885
404.217234
401.655743
399.153655
396.722442
394.373663
392.118805
389.969123
387.935467
386.02811
384.256608
382.629696
381.155167
379.839748
378.688948
377.707069
376.897177
376.26104
375.79907
375.510385
375.395495
375.44216
375.651667
376.016429
376.527685
377.17572
377.946178
378.82132
379.777886
380.789302
381.818463
382.841735
383.880358
384.651337
385.049547
385.001391
384.432658
383.521234
382.251
380.52872
378.181757
375.249264
371.213495
366.222259
361.654145
355.964143
348.32313
341.126532
335.268572
329.73186
322.025525
316.461552
472.184403
470.535129
468.842472
467.10544
465.323113
463.494655
461.619341
459.696574
457.725914
455.707105
453.640109
451.525138
449.362694
447.153607
444.899079
442.600727
440.260626
437.88136
435.466061
433.018453
430.542895
428.044412
425.528727
423.002276
420.472225
417.94646
415.433575
412.942839
410.48414
408.067923
405.705094
403.406916
401.184879
399.050559
397.015474
395.090926
393.287869
391.616748
390.087324
388.708458
387.487927
386.432206
385.546257
384.833435
384.295341
383.931637
383.739928
383.715086
383.849194
384.134323
384.557259
385.101472
385.745582
386.464952
387.225344
387.995967
388.757205
389.436837
389.806169
389.78287
389.349874
388.536448
387.429877
385.94183
383.954052
381.30081
377.947582
373.837161
368.982889
363.74543
357.728235
350.625681
344.023389
337.850441
330.961085
323.688417
317.793847
312.469095
308.398775
304.060846
472.236082
470.691334
469.106029
467.479303
465.810369
464.098534
462.343221
460.543989
458.700558
456.812841
454.880969
452.905333
450.886611
448.825814
446.724322
444.583929
442.406883
440.19593
437.954354
435.686021
433.395409
431.087645
428.768528
426.444543
424.122873
421.811387
419.518623
417.253753
415.026523
412.847189
410.726426
408.675226
406.704787
404.826387
403.051213
401.390176
399.853706
398.451514
397.192315
396.083528
395.131029
394.338897
393.709123
393.241373
392.932571
392.776714
392.76559
392.880343
393.11057
393.431267
393.814909
394.233922
394.666299
395.059105
395.233756
395.149234
394.685413
393.851348
392.778919
391.390551
389.61061
387.290111
384.352006
380.748822
376.454368
371.447019
365.825988
359.711405
353.128975
346.455691
339.831463
332.845428
326.081245
320.219159
315.00867
310.249737
306.2036
302.858182
300.485566
299.961811
472.294375
470.867533
469.403317
467.901006
466.359966
464.779666
463.159698
461.4998
459.799882
458.060049
456.280637
454.462242
452.605754
450.712397
448.783763
446.821853
444.829116
442.808485
440.763417
438.697926
436.61661
434.524683
432.427982
430.332984
428.246799
426.177156
424.13238
422.121345
420.153424
418.238397
416.386353
414.607562
412.912324
411.310778
409.81267
408.427091
407.162174
406.024802
405.020277
404.15195
403.420739
402.824997
402.360002
402.018217
401.787122
401.649992
401.589148
401.584459
401.619307
401.590612
401.420275
401.055705
400.42644
399.503676
398.37939
396.988683
395.26288
393.101747
390.417753
387.169789
383.327789
378.864682
373.779171
368.134246
362.019686
355.496834
348.700628
341.895201
335.169838
328.671396
322.67976
317.189121
312.252991
308.017903
304.731374
302.161629
300.367756
299.984354
299.894385
299.868236
472.355436
471.052094
469.714714
468.342721
466.935643
465.493116
464.014914
462.500963
460.95137
459.366447
457.746739
456.093059
454.406513
452.688541
450.940945
449.165924
447.366111
445.5446
443.704975
441.851338
439.988324
438.12112
436.255465
434.397647
432.554479
430.733273
428.941785
427.188143
425.480761
423.828203
422.239035
420.721638
419.28398
417.933357
416.676106
415.51728
414.460275
413.506412
412.654572
411.901056
411.238821
410.657523
410.143855
409.683392
409.239845
408.75588
408.186685
407.480051
406.575315
405.508919
404.264174
402.789884
401.030119
398.907364
396.345465
393.305722
389.756933
385.679257
381.070267
375.935466
370.311593
364.264151
357.858808
351.226635
344.50589
337.838174
331.331304
325.201759
319.577131
314.542926
310.194967
306.627072
303.851147
301.7937
300.342742
299.963966
299.879822
299.859643
299.85324
299.855795
472.414962
471.232019
470.01829
468.773349
467.496876
466.188673
464.848679
463.476998
462.073915
460.639923
459.17575
457.682382
456.161096
454.613483
453.041479
451.447388
449.833909
448.204152
446.561658
444.910408
443.25482
441.59975
439.950467
438.312619
436.692184
435.095402
433.528676
431.998452
430.51107
429.072579
427.688529
426.363715
425.101892
423.905462
422.775118
421.709497
420.705032
419.755319
418.851092
417.977571
417.109817
416.218323
415.269598
414.226826
413.071031
411.79692
410.368431
408.745703
406.881903
404.712315
402.184734
399.263121
395.916641
392.122923
387.87096
383.161174
378.006745
372.425609
366.461192
360.199203
353.739574
347.190862
340.640715
334.224794
328.088503
322.374785
317.172148
312.585215
308.694812
305.573612
303.212533
301.556415
300.406113
299.990238
299.895124
299.871205
299.860774
299.856637
299.849379
299.844446
472.468083
471.392584
470.289206
469.157651
467.997728
466.809369
465.592645
464.347782
463.075186
461.775455
460.449408
459.098101
457.722846
456.325235
454.907155
453.470799
452.018678
450.553623
449.078784
447.597614
446.113844
444.631451
443.154599
441.687566
440.234654
438.800069
437.387777
436.001333
434.643679
433.316916
432.022038
430.758635
429.524584
428.315819
427.12587
425.945583
424.760856
423.553381
422.302703
420.990863
419.598386
418.101731
416.473319
414.680301
412.681033
410.430949
407.895539
405.041359
401.839044
398.26493
394.302947
389.945695
385.196037
380.067289
374.582669
368.773316
362.680957
356.379246
349.959973
343.534905
337.22265
331.133669
325.372237
320.034052
315.232669
311.059671
307.580706
304.823179
302.764886
301.348917
300.459948
300.014205
299.912603
299.879283
299.869134
299.861941
299.854396
299.84532
299.834112
299.825181
472.5096
471.518074
470.50094
469.45799
468.389112
467.294308
466.173702
465.027557
463.856284
462.660463
461.440846
460.198379
458.934203
457.649666
456.346323
455.025933
453.690452
452.34201
450.982888
449.615477
448.242224
446.865561
445.48782
444.111118
442.737231
441.367433
440.002319
438.641601
437.283881
435.926417
434.564931
433.193321
431.803413
430.384771
428.924362
427.406429
425.814608
424.130321
422.330731
420.386973
418.27197
415.957696
413.415505
410.616971
407.535109
404.146795
400.433409
396.382138
391.987189
387.250862
382.184714
376.809581
371.156153
365.26417
359.170963
352.94531
346.675648
340.453394
334.384751
328.576066
323.144401
318.174689
313.763731
309.965401
306.831028
304.370223
302.552041
301.307361
300.536218
300.110405
299.955237
299.908196
299.887586
299.87338
299.858255
299.841511
299.831086
299.822991
299.822082
299.821787
472.534614
471.59368
470.628498
469.638888
468.624748
467.58606
466.522896
465.435431
464.323941
463.188811
462.030539
460.849732
459.647104
458.423466
457.179708
455.916783
454.635668
453.337327
452.022653
450.692398
449.347232
447.987587
446.613519
445.224575
443.819631
442.396703
440.952726
439.483261
437.982069
436.441092
434.851496
433.202607
431.481815
429.674466
427.763885
425.731543
423.557284
421.219604
418.696053
415.963822
413.000412
409.784404
406.297241
402.52365
398.45268
394.0787
389.402331
384.431329
379.181377
373.676856
367.95167
362.048224
356.015068
349.91026
343.815476
337.815874
332.014958
326.508993
321.392743
316.745479
312.652976
309.173129
306.337849
304.133783
302.50784
301.385054
300.672125
300.263029
300.055079
299.964999
299.920208
299.885897
299.857103
299.836935
299.82474
299.822684
299.820933
299.820966
299.821374
299.821504
472.539434
471.60823
470.652982
469.673452
468.66945
467.640835
466.587517
465.509458
464.406665
463.279185
462.127102
460.950518
459.749537
458.52424
457.274656
456.000737
454.702327
453.379104
452.030517
450.655706
449.253252
447.821105
446.356437
444.855414
443.312928
441.721882
440.07543
438.366011
436.585179
434.72335
432.768462
430.706991
428.524042
426.203476
423.728131
421.08012
418.241231
415.193359
411.919006
408.402705
404.631291
400.594717
396.286894
391.706532
386.857973
381.751951
376.406301
370.846775
365.107711
359.232793
353.274836
347.290872
341.357522
335.560636
329.992816
324.745543
319.90774
315.553584
311.746543
308.527953
305.921379
303.910616
302.439355
301.41599
300.747694
300.338651
300.108009
299.972563
299.903405
299.866177
299.84256
299.828575
299.82459
299.823273
299.822666
299.822197
299.820442
299.819516
299.820619
299.821121
472.524454
471.562955
470.576588
469.565036
468.527994
467.465166
466.376254
465.260954
464.118944
462.949876
461.753366
460.528972
459.27618
457.993964
456.68032
455.332903
453.94995
452.529292
451.068287
449.563747
448.011869
446.408186
444.747564
443.024198
441.231645
439.363528
437.411142
435.364271
433.211676
430.941112
428.539386
425.992496
423.285825
420.4044
417.333204
414.0575
410.563854
406.840408
402.877493
398.668316
394.209717
389.502955
384.554537
379.377043
373.989912
368.420114
362.702839
356.882201
351.011493
345.152883
339.372662
333.752331
328.382171
323.353394
318.744121
314.628254
311.054337
308.053754
305.626117
303.743005
302.352582
301.381977
300.741941
300.340704
300.100004
299.959011
299.880116
299.856647
299.845947
299.838099
299.832635
299.82776
299.824207
299.822472
299.821786
299.821924
299.821232
299.818875
299.818864
299.818739
472.489445
471.457145
470.39806
469.311741
468.197699
467.055396
465.884232
464.683532
463.451569
462.187057
460.888551
459.554348
458.182432
456.770836
455.318019
453.822133
452.279991
450.68793
449.04177
447.336743
445.567421
443.727665
441.810621
439.808646
437.713237
435.515066
433.203969
430.768987
428.198458
425.480143
422.601401
419.549405
416.311392
412.875293
409.230096
405.366281
401.276392
396.955684
392.402847
387.620786
382.617467
377.406801
372.009524
366.454016
360.776916
355.023524
349.24803
343.513145
337.888865
332.448651
327.271073
322.439734
318.029515
314.105614
310.713112
307.872908
305.578336
303.792587
302.457226
301.500587
300.846733
300.421745
300.158954
300.0034
299.914071
299.877709
299.860806
299.850679
299.843646
299.83698
299.831601
299.8263
299.821997
299.819353
299.818283
299.818472
299.818308
299.817855
299.814958
299.813469
472.435428
471.293863
470.1225
468.920659
467.687552
466.422266
465.123154
463.78873
462.418213
461.009972
459.56206
458.072242
456.537961
454.956303
453.323958
451.637168
449.89167
448.082637
446.204666
444.251726
442.217112
440.093418
437.872549
435.54572
433.103475
430.535739
427.831899
424.980911
421.971458
418.792131
415.431803
411.880022
408.127317
404.165678
399.9891
395.594223
390.98104
386.153691
381.121311
375.898926
370.508336
364.978936
359.348368
353.662897
347.977332
342.354446
336.863602
331.578353
326.573081
321.919439
317.682358
313.917279
310.659988
307.927972
305.709632
303.968617
302.649589
301.688476
301.015936
300.564244
300.272182
300.089659
299.980272
299.91831
299.887146
299.867585
299.850765
299.839362
299.831757
299.826683
299.823121
299.820273
299.817887
299.816133
299.815516
299.81545
299.81486
299.813298
299.812316
299.810801
472.367046
471.087174
469.773753
468.425875
467.042465
465.622108
464.163545
462.665103
461.124853
459.540574
457.909716
456.229367
454.496214
452.706507
450.856015
448.939997
446.95317
444.889663
442.743006
440.506116
438.171289
435.730213
433.173996
430.493219
427.678006
424.718137
421.603189
418.322744
414.866771
411.225848
407.391553
403.356926
399.11701
394.669485
390.015371
385.159818
380.112947
374.890715
369.515754
364.018119
358.435838
352.815158
347.210335
341.682939
336.300472
331.133818
326.253872
321.726962
317.612287
313.955432
310.784943
308.110349
305.923113
304.189067
302.856175
301.864654
301.151558
300.657333
300.328396
300.118714
299.99079
299.914068
299.872869
299.8521
299.840442
299.832507
299.830364
299.827737
299.824971
299.822435
299.820115
299.818595
299.817008
299.81485
299.813549
299.81321
299.81335
299.812909
299.813253
299.810498
472.2879
470.847964
469.37019
467.853456
466.296416
464.69747
463.05496
461.366808
459.630617
457.843635
456.002718
454.104297
452.144343
450.118337
448.021227
445.847419
443.590746
441.244466
438.801259
436.253241
433.591994
430.80862
427.893815
424.837978
421.63135
418.264293
414.727512
411.012352
407.111178
403.017836
398.728187
394.240732
389.557302
384.683834
379.631179
374.415926
369.061178
363.597214
358.06193
352.500948
346.967263
341.520291
336.224219
331.146018
326.352421
321.906137
317.860824
314.256683
311.119801
308.458461
306.260397
304.494346
303.11695
302.077455
301.318811
300.783179
300.417192
300.175752
300.022963
299.931175
299.878694
299.857366
299.848515
299.842217
299.836874
299.833341
299.830564
299.827828
299.825065
299.822279
299.819829
299.818594
299.817105
299.815018
299.813267
299.812869
299.812108
299.81024
299.810391
299.809734
472.200066
470.582502
468.922363
467.218307
465.468708
463.671791
461.825486
459.927308
457.974396
455.963474
453.890822
451.752239
449.543013
447.257905
444.891124
442.43632
439.886586
437.234476
434.472032
431.590842
428.582116
425.436794
422.145711
418.69983
415.090459
411.309563
407.350136
403.206652
398.875591
394.356042
389.65038
384.765002
379.711099
374.505428
369.171026
363.737794
358.242855
352.730592
347.252223
341.864827
336.629681
331.609887
326.867374
322.460048
318.438505
314.840933
311.692332
308.999517
306.754635
304.931997
303.491546
302.384897
301.559937
300.965505
300.55253
300.276424
300.098809
299.989059
299.923752
299.886382
299.866619
299.853906
299.845593
299.838883
299.833916
299.830144
299.827529
299.825358
299.82286
299.81988
299.817337
299.815895
299.814616
299.811407
299.809241
299.808672
299.809876
299.80875
299.80672
299.806559
472.104854
470.294742
468.436934
466.529901
464.571844
462.560649
460.493816
458.368447
456.181212
453.92832
451.605482
449.207896
446.730218
444.166561
441.510493
438.755051
435.892773
432.915755
429.815724
426.584146
423.212409
419.692002
416.014756
412.173146
408.160652
403.972197
399.604655
395.057429
390.333094
385.438102
380.383503
375.185664
369.866925
364.456123
358.988901
353.507704
348.061358
342.704151
337.49432
332.491935
327.756162
323.342168
319.297578
315.659148
312.45091
309.684639
307.359493
305.452643
303.927434
302.739651
301.840642
301.180438
300.710777
300.387224
300.171997
300.03415
299.949009
299.898207
299.86827
299.850896
299.840286
299.833794
299.829706
299.827109
299.824834
299.822879
299.82119
299.819611
299.817417
299.814229
299.810891
299.809229
299.807597
299.808607
299.808115
299.807647
299.810515
299.810463
299.806857
299.804756
472.00335
469.98797
467.919457
465.796084
463.615775
461.37608
459.074133
456.706623
454.269762
451.759259
449.1703
446.497533
443.73507
440.876498
437.914909
434.84295
431.652894
428.336753
424.886437
421.293931
417.551527
413.652114
409.589529
405.358973
400.957492
396.38453
391.642544
386.737652
381.680328
376.486061
371.175971
365.777296
360.323676
354.855155
349.417806
344.062903
338.84559
333.823048
329.05211
324.586503
320.473736
316.752745
313.450524
310.578969
308.135984
306.105123
304.460958
303.165909
302.172787
301.431968
300.895064
300.517413
300.260618
300.091814
299.984423
299.918501
299.879186
299.856354
299.843617
299.836718
299.831272
299.827482
299.824833
299.822454
299.819724
299.816696
299.812944
299.808996
299.806258
299.804508
299.803514
299.803791
299.805476
299.808186
299.809281
299.807159
299.810049
299.816076
299.815437
299.812755
471.896495
469.665022
467.374679
465.023516
462.609192
460.128942
457.579544
454.957292
452.25797
449.476839
446.60863
443.647552
440.587317
437.421182
434.14202
430.742417
427.214822
423.551714
419.745822
415.790401
411.679565
407.408681
402.974825
398.377303
393.618233
388.703158
383.641695
378.448168
373.142189
367.749128
362.300409
356.83355
351.39186
346.023739
340.78149
335.719656
330.892898
326.353547
322.148982
318.318356
314.890036
311.88083
309.293741
307.115807
305.321025
303.873691
302.735358
301.865364
301.219926
300.754292
300.427872
300.205829
300.059386
299.966548
299.909852
299.876703
299.857771
299.84689
299.840384
299.835668
299.831586
299.828041
299.824656
299.821761
299.818614
299.814535
299.810264
299.806159
299.802862
299.801429
299.801426
299.802429
299.804371
299.807438
299.811366
299.813826
299.813671
299.817769
299.821779
299.825505
471.785358
469.329136
466.808083
464.220031
461.562381
458.832073
456.025557
453.138777
450.167156
447.1056
443.948516
440.689843
437.323117
433.841555
430.238191
426.506025
422.638237
418.628434
414.470965
410.161289
405.696398
401.075307
396.299596
391.373987
386.306955
381.111331
375.804864
370.41069
364.957656
359.480417
354.01924
348.619444
343.330406
338.204107
333.2932
328.648671
324.31725
320.338833
316.743575
313.550668
310.767389
308.388999
306.398544
304.768308
303.462159
302.438126
301.653313
301.068306
300.646827
300.352948
300.154995
300.025924
299.944674
299.894592
299.864503
299.849013
299.840565
299.835819
299.832828
299.831095
299.830214
299.828453
299.825577
299.82267
299.819838
299.816639
299.811191
299.805962
299.802584
299.801764
299.802572
299.803157
299.803643
299.806086
299.80961
299.814289
299.819905
299.818328
299.818658
299.820846
472.566303
471.689314
470.78932
469.865789
468.918181
467.945936
466.94848
465.925219
464.875542
463.798819
462.694403
461.561631
460.399825
459.208293
457.986334
456.733235
455.448278
454.130742
452.779906
451.395053
449.975478
448.520488
447.029417
445.501624
443.93651
442.33352
440.692157
439.011986
437.292649
435.533865
433.735442
431.897275
430.019343
428.101698
426.14445
424.14774
422.111697
420.036374
417.921686
415.767296
413.572493
411.336028
409.05594
406.729393
404.352479
401.919243
399.420134
396.845302
394.185789
391.433656
388.576617
385.597885
382.477147
379.197841
375.742746
372.097745
368.254674
364.21524
359.995857
355.633035
351.188532
346.752093
342.4399
338.362976
334.631136
331.348542
328.599895
326.435741
324.860813
323.830723
323.257557
323.041555
323.055214
323.199912
323.42441
323.674482
323.921676
324.136566
324.342939
324.573132
472.553412
471.65035
470.723586
469.772565
468.796721
467.795468
466.768205
465.714313
464.633152
463.524069
462.386391
461.219435
460.022503
458.794892
457.535888
456.244778
454.920848
453.563387
452.171698
450.745096
449.282921
447.784542
446.249367
444.676855
443.066525
441.417968
439.730863
438.004987
436.240234
434.436621
432.594305
430.713594
428.794947
426.838981
424.846461
422.818294
420.755503
418.659186
416.53047
414.370433
412.180019
409.959915
407.710387
405.431112
403.120963
400.777748
398.397959
395.976683
393.504819
390.968852
388.35623
385.663299
382.87743
379.979198
376.944607
373.756038
370.395699
366.851175
363.1196
359.213
355.164165
351.03157
346.896645
342.839771
338.95494
335.342288
332.098974
329.308984
327.033144
325.299409
324.095825
323.374419
323.057747
323.063299
323.220805
323.513968
323.869064
324.225598
324.493491
324.752904
472.538734
471.60599
470.648762
469.666473
468.658538
467.624351
466.563294
465.474728
464.358
463.212442
462.037372
460.832099
459.595925
458.328146
457.028061
455.694969
454.328181
452.927019
451.490828
450.018976
448.510869
446.965955
445.383737
443.763783
442.105739
440.409344
438.674445
436.901012
435.089152
433.239132
431.351386
429.426536
427.465401
425.469004
423.438581
421.375576
419.281631
417.158571
415.008369
412.833096
410.634856
408.415717
406.177583
403.922039
401.650197
399.362486
397.058408
394.736252
392.392753
390.022843
387.619563
385.164025
382.642108
380.051873
377.382756
374.612672
371.714228
368.669874
365.462841
362.084552
358.539924
354.853621
351.071349
347.244873
343.444364
339.753537
336.26347
333.064356
330.237335
327.848187
325.941169
324.53487
323.620822
323.164918
323.14298
323.315208
323.627003
324.122992
324.710186
325.324753
472.522309
471.556353
470.565048
469.547803
468.504018
467.433079
466.334356
465.207205
464.050971
462.864986
461.648575
460.401058
459.121753
457.809984
456.465079
455.086382
453.673254
452.225079
450.741275
449.221294
447.66464
446.07087
444.439609
442.770561
441.063522
439.318392
437.535191
435.714078
433.855359
431.959513
430.027203
428.059294
426.056865
424.021222
421.953908
419.856708
417.731652
415.581005
413.407257
411.213089
409.001337
406.774929
404.536842
402.289972
400.036989
397.780194
395.521332
393.26136
391.000163
388.736255
386.466415
384.185301
381.885963
379.5468
377.150595
374.698039
372.181287
369.575307
366.849911
363.989389
360.980189
357.820534
354.526431
351.121795
347.645355
344.150513
340.704522
337.383422
334.268039
331.43815
328.96188
326.893717
325.271511
324.114255
323.417848
323.214757
323.434027
323.779034
324.399512
325.222826
472.504001
471.501031
470.471757
469.415582
468.331899
467.220092
466.079534
464.909587
463.709606
462.478942
461.216944
459.922964
458.596361
457.236508
455.842796
454.41464
452.951484
451.452809
449.918142
448.347059
446.739198
445.094263
443.412042
441.692408
439.935339
438.140924
436.309381
434.441068
432.536497
430.59635
428.621496
426.613004
424.572151
422.500442
420.399616
418.271657
416.1188
413.943533
411.748592
409.536952
407.311808
405.076536
402.834656
400.589802
398.34559
396.10552
393.872816
391.650277
389.440062
387.243421
385.060379
382.889383
380.726937
378.567194
376.402909
374.209217
371.966609
369.679213
367.343409
364.930556
362.408925
359.766301
356.994396
354.096856
351.086344
347.988524
344.842071
341.698513
338.620436
335.673679
332.922294
330.430437
328.255667
326.448036
325.045001
324.081145
323.566929
323.641528
323.924871
324.479309
472.48353
471.439179
470.367466
469.267792
468.139553
466.982139
465.794935
464.577322
463.32868
462.048395
460.735857
459.390471
458.011661
456.598876
455.151595
453.669334
452.151657
450.598177
449.008567
447.382564
445.719984
444.020723
442.284769
440.512211
438.703248
436.8582
434.977517
433.061789
431.11176
429.128336
427.112598
425.065815
422.989451
420.88517
418.754856
416.600611
414.424769
412.229898
410.018801
407.794521
405.560329
403.31972
401.07637
398.834156
396.597067
394.369186
392.154542
389.956982
387.780064
385.62686
383.499709
381.399922
379.327428
377.280391
375.254831
373.244162
371.240514
369.215939
367.14901
365.046781
362.912455
360.713058
358.416079
356.011382
353.495356
350.875043
348.167085
345.398572
342.60546
339.828473
337.116745
334.524032
332.106351
329.916001
327.997365
326.397546
325.150042
324.265529
323.89959
324.170915
472.460478
471.369529
470.250031
469.10139
467.923007
466.714287
465.474634
464.203458
462.900176
461.564219
460.195037
458.792106
457.354932
455.883061
454.376086
452.833655
451.255477
449.641329
447.991066
446.304628
444.582044
442.823444
441.029064
439.199253
437.334481
435.435347
433.502582
431.53706
429.539803
427.511985
425.454946
423.370191
421.259394
419.124407
416.967259
414.790164
412.595526
410.38594
408.164197
405.933289
403.696405
401.456939
399.218476
396.984798
394.759858
392.547771
390.352788
388.179159
386.031044
383.912426
381.826947
379.777682
377.766868
375.795571
373.863304
371.967624
370.103757
368.264106
366.440065
364.602065
362.726899
360.821718
358.901027
356.927527
354.869011
352.71788
350.474609
348.148056
345.755144
343.320197
340.875847
338.458153
336.105877
333.854687
331.744876
329.815549
328.111161
326.662602
325.531749
324.74768
472.434391
471.29071
470.117139
468.913085
467.677959
466.411182
465.112181
463.780399
462.415297
461.01636
459.583106
458.11509
456.611916
455.073242
453.498792
451.888362
450.241831
448.559164
446.840427
445.08579
443.295534
441.47006
439.609895
437.715693
435.788247
433.828486
431.837486
429.816463
427.766786
425.689967
423.587672
421.461714
419.314052
417.146789
414.962167
412.76257
410.550514
408.328654
406.099778
403.866808
401.632811
399.400998
397.174726
394.957501
392.752984
390.564992
388.397514
386.254698
384.140727
382.059764
380.015888
378.012954
376.054393
374.142968
372.28047
370.467362
368.702391
366.982192
365.300975
363.65004
362.019961
360.382577
358.712245
357.00981
355.309098
353.569538
351.760639
349.875818
347.917657
345.895932
343.826374
341.729984
339.631667
337.557566
335.538674
333.600633
331.773641
330.084842
328.573887
327.270084
472.404875
471.201524
469.966761
468.699987
467.400622
466.068095
464.701857
463.301382
461.866172
460.395768
458.889754
457.34777
455.769519
454.154778
452.503408
450.815363
449.090704
447.3296
445.532346
443.699365
441.831217
439.928607
437.992387
436.023564
434.023301
431.992919
429.933896
427.847868
425.736623
423.602101
421.446384
419.271692
417.08037
414.87488
412.657785
410.431743
408.199491
405.963839
403.727655
401.493861
399.265436
397.045412
394.836887
392.643033
390.467104
388.312458
386.182576
384.081093
382.011804
379.978537
377.985176
376.035583
374.133485
372.282296
370.484904
368.743394
367.058737
365.430434
363.856154
362.331406
360.849327
359.400263
357.973823
356.548754
355.093644
353.59668
352.118796
350.61979
349.072696
347.466265
345.804321
344.09628
342.35509
340.596893
338.839823
337.103008
335.40422
333.767575
332.215218
330.759673
472.371717
471.101334
469.797811
468.460541
467.088936
465.682429
464.240484
462.762594
461.248298
459.697181
458.108889
456.483138
454.819727
453.118546
451.379593
449.60298
447.78895
445.937886
444.050318
442.126939
440.168607
438.176356
436.151399
434.095133
432.009143
429.895196
427.755243
425.591413
423.406004
421.201472
418.980424
416.745592
414.499826
412.246063
409.987311
407.726624
405.467082
403.211767
400.963744
398.726045
396.501657
394.293527
392.104556
389.937614
387.79555
385.681211
383.597489
381.547329
379.533833
377.560166
375.629601
373.745487
371.911194
370.130011
368.404991
366.738761
365.133284
363.589588
362.107477
360.685229
359.319299
358.004132
356.732106
355.493261
354.276086
353.071822
351.834271
350.553074
349.298676
348.043433
346.767916
345.446737
344.08861
342.699639
341.28983
339.870534
338.453932
337.05307
335.681261
334.33517
472.335036
470.99049
469.610875
468.195559
466.743934
465.255422
463.729481
462.165614
460.563376
458.922387
457.242339
455.523013
453.76429
451.966167
450.128766
448.252356
446.337359
444.384369
442.394162
440.367705
438.306172
436.210943
434.08362
431.926024
429.740197
427.528404
425.293125
423.037048
420.763055
418.474207
416.173726
413.864966
411.55139
409.236536
406.923983
404.61732
402.320103
400.035825
397.767879
395.519535
393.2939
391.093912
388.922337
386.781782
384.67472
382.603516
380.570454
378.577807
376.627853
374.722928
372.865469
371.058025
369.303247
367.603832
365.962434
364.381517
362.863165
361.408851
360.019227
358.693884
357.431197
356.228086
355.079895
353.980384
352.921982
351.896306
350.893756
349.912045
348.902345
347.865427
346.791637
345.766608
344.750709
343.728383
342.678748
341.612709
340.536645
339.45777
338.379785
337.272564
472.295409
470.870732
469.408881
467.909179
466.370978
464.79367
463.17669
461.519529
459.821743
458.082963
456.302912
454.481417
452.618426
450.714024
448.768449
446.782111
444.755605
442.689732
440.585508
438.444184
436.267254
434.056465
431.813827
429.541616
427.242376
424.918913
422.574294
420.21183
417.835063
415.447742
413.053799
410.657309
408.262459
405.873502
403.494712
401.130333
398.784525
396.461302
394.164487
391.897667
389.664165
387.467014
385.308942
383.192371
381.119469
379.0921
377.111898
375.180398
373.298987
371.469033
369.691947
367.96923
366.302507
364.693524
363.144123
361.656167
360.231428
358.871398
357.577111
356.348794
355.185744
354.086189
353.047155
352.064388
351.132278
350.244174
349.39288
348.570803
347.768096
346.98042
346.210748
345.413088
344.598161
343.764642
342.990679
342.237695
341.480498
340.719564
339.948148
339.116379
472.253983
470.745527
469.197671
467.609674
465.980829
464.310476
462.598007
460.842881
459.044632
457.202886
455.317376
453.387956
451.414625
449.397542
447.337047
445.233679
443.088201
440.901614
438.67518
436.410436
434.109209
431.773632
429.406148
427.009522
424.586838
422.141495
419.677203
417.197964
414.708052
412.211984
409.714491
407.220466
404.734908
402.262867
399.809374
397.379386
394.977728
392.609008
390.277559
387.98738
385.742084
383.544847
381.398382
379.304921
377.266337
375.284022
373.358992
371.492008
369.683586
367.934122
366.243967
364.613514
363.043252
361.533794
360.085878
358.700323
357.377948
356.119462
354.925394
353.795894
352.730557
351.728298
350.787289
349.904991
349.078111
348.302251
347.572281
346.882681
346.227407
345.600677
344.997168
344.410312
343.843654
343.31338
342.789185
342.272055
341.761019
341.29037
340.832899
340.308162
472.212562
470.620331
468.98645
467.310096
465.590486
463.82689
462.01864
460.165141
458.26589
456.320488
454.328661
452.290278
450.205371
448.074161
445.89708
443.674792
441.408221
439.098571
436.747352
434.356397
431.927886
429.464358
426.968721
424.444264
421.894656
419.32394
416.736523
414.137152
411.530888
408.923065
406.319239
403.725146
401.14663
398.589581
396.059851
393.563172
391.105104
388.690911
386.32549
384.013275
381.758174
379.563519
377.432024
375.365771
373.366297
371.434545
369.570955
367.77554
366.047994
364.387795
362.794318