/*--------------------------------*- C++ -*----------------------------------*\
  =========                 |
  \\      /  F ield         | OpenFOAM: The Open Source CFD Toolbox
   \\    /   O peration     | Website:  https://openfoam.org
    \\  /    A nd           | Version:  8
     \\/     M anipulation  |
\*---------------------------------------------------------------------------*/
FoamFile
{
    version     2.0;
    format      ascii;
    class       volVectorField;
    location    "0.052";
    object      U;
}
// * * * * * * * * * * * * * * * * * * * * * * * * * * * * * * * * * * * * * //

dimensions      [0 1 -1 0 0 0 0];

internalField   nonuniform List<vector> 
42400
(
(-0.0206735184 0.0197776038 -1.05259287e-26)
(-0.0606324902 0.056868684 3.45255081e-26)
(-0.100014663 0.0920476331 3.45795183e-26)
(-0.138946387 0.125382603 0)
(-0.177549305 0.157014151 0)
(-0.215975416 0.187083512 -1.27500771e-27)
(-0.254368218 0.215714058 0)
(-0.292839831 0.242999769 1.41314545e-27)
(-0.331465866 0.269001159 0)
(-0.370288409 0.293747932 1.56657323e-27)
(-0.409321784 0.317245151 1.64952096e-27)
(-0.448558943 0.339480359 -1.73690933e-27)
(-0.487977377 0.360430301 -7.89149989e-27)
(-0.527544023 0.380066689 -3.9957112e-27)
(-0.567218982 0.398360835 -2.0280075e-27)
(-0.606958183 0.415287216 0)
(-0.646715156 0.430826136 0)
(-0.686442155 0.444965677 0)
(-0.726090796 0.457703111 0)
(-0.765612347 0.4690459 0)
(-0.804957734 0.479012361 0)
(-0.844077317 0.487632066 -5.81872985e-27)
(-0.882920425 0.494945988 3.17880735e-26)
(-0.921434606 0.501006441 7.91747017e-26)
(-0.959564554 0.505876773 4.76382132e-26)
(-0.997250648 0.509630827 -7.14368431e-27)
(-1.03442705 0.51235213 -7.51852611e-27)
(-1.07101933 0.514132835 1.58251924e-26)
(-1.1069415 0.515072448 0)
(-1.14209229 0.515276406 0)
(-1.17635052 0.514854658 -7.39334694e-26)
(-1.20957002 0.513920241 -7.78051063e-26)
(-1.24157583 0.512586926 2.04218434e-26)
(-1.27215995 0.510963419 8.47325791e-26)
(-1.30106872 0.509143094 6.49865157e-26)
(-1.32799544 0.507196915 0)
(-1.35269797 0.505239099 0)
(-1.37503903 0.503474355 0)
(-1.39415968 0.502926339 0)
(-1.40989503 0.50182802 2.81163229e-25)
(-1.42082361 0.501145376 2.30839793e-25)
(-1.42765215 0.499254413 6.76695001e-26)
(-1.42848201 0.500786909 -2.45032125e-26)
(-1.42288663 0.503821157 -7.43771901e-26)
(-1.40846702 0.507380418 9.44441693e-26)
(-1.38145894 0.512468256 -2.23393378e-25)
(-1.34198865 0.516047084 8.95799223e-26)
(-1.28692967 0.520297642 1.84582151e-25)
(-1.21411302 0.525421941 9.74612263e-26)
(-1.12056094 0.531339094 3.40721806e-25)
(-1.00377197 0.538225131 5.37576336e-33)
(-0.861263274 0.546156757 -4.79594379e-25)
(-0.691092483 0.554210159 -6.87666698e-25)
(-0.485977503 0.562844661 2.41803346e-25)
(-0.250275312 0.572076269 0)
(0.0326988782 0.585850525 0)
(0.343534621 0.603271186 0)
(0.723129442 0.619026412 -2.99288838e-25)
(1.16783061 0.630900783 -3.24225313e-25)
(1.67777749 0.642863248 0)
(2.25993329 0.657252743 3.84246814e-24)
(2.92376507 0.6730594 4.51951812e-24)
(3.67230035 0.689466584 -4.78928275e-24)
(4.51035212 0.706354122 -5.71027385e-24)
(5.44520077 0.721820573 0)
(6.4897182 0.737245206 0)
(7.6270147 0.760114788 -6.64119425e-24)
(8.90757201 0.740917341 -7.09674538e-24)
(10.2602207 0.787788087 -3.09881271e-25)
(11.3507995 1.10931986 0)
(13.0732789 0.792471353 0)
(15.1891606 -0.0997805818 -2.51462195e-25)
(15.7624833 1.28100987 2.9663126e-25)
(16.4368432 2.56767697 0)
(18.8883929 0.608363809 7.20733597e-27)
(21.1294884 -0.910971956 2.44533113e-23)
(21.8046332 -0.091449742 6.68515841e-24)
(21.5635178 2.13282711 -8.41357805e-25)
(22.4169675 2.56997139 -1.08399956e-23)
(23.1940228 0.911558623 -5.95181766e-24)
(-0.0255608136 0.0226362372 0)
(-0.0746816729 0.0652610063 2.76776992e-26)
(-0.122758225 0.105912711 2.6725573e-26)
(-0.16992768 0.144675054 0)
(-0.216340628 0.181698448 0)
(-0.262164985 0.217130379 2.01387061e-26)
(-0.307557254 0.251099631 1.9701438e-26)
(-0.35263896 0.283704977 1.71504296e-27)
(-0.397490507 0.315010651 0)
(-0.44215357 0.34504846 1.89842479e-27)
(-0.486636737 0.373823449 1.997222e-27)
(-0.530922033 0.401320663 -5.80944893e-27)
(-0.574971152 0.427511723 -2.35910871e-27)
(-0.618730795 0.452360637 1.47120072e-27)
(-0.662136912 0.475828665 -7.89114681e-27)
(-0.705117873 0.497878236 -4.47671321e-27)
(-0.747596733 0.518476038 0)
(-0.789492734 0.53759542 5.69617014e-27)
(-0.830722204 0.555218229 0)
(-0.871198943 0.571336199 0)
(-0.910834186 0.585951972 0)
(-0.949536147 0.599079784 3.07356238e-26)
(-0.987209167 0.610745887 7.78309423e-26)
(-1.02375244 0.62098869 4.74425134e-26)
(-1.05905827 0.629858672 0)
(-1.09300973 0.637418057 -1.68908603e-26)
(-1.12547775 0.643740246 -8.84321305e-27)
(-1.15631741 0.648908843 1.85519635e-26)
(-1.18536395 0.653015975 7.00808014e-26)
(-1.2124271 0.656158649 7.40419322e-26)
(-1.23728224 0.658434354 -2.14888652e-26)
(-1.25965803 0.659940485 -2.24782397e-26)
(-1.27927311 0.660796386 1.28700189e-25)
(-1.29587844 0.661121856 8.15779037e-26)
(-1.30924372 0.661021781 -1.31484292e-25)
(-1.31866826 0.66118278 -1.90374952e-25)
(-1.32411413 0.660765933 0)
(-1.32462358 0.660666904 2.8723219e-26)
(-1.32052504 0.659858942 0)
(-1.30968375 0.660566789 6.52785488e-26)
(-1.29079666 0.661476718 4.283802e-26)
(-1.26135231 0.662913341 7.53250933e-26)
(-1.22071696 0.663389546 7.52165293e-26)
(-1.16688061 0.66401595 -7.68548969e-26)
(-1.0980877 0.665193836 1.57543924e-25)
(-1.01252303 0.667125417 -8.16779691e-26)
(-0.907527835 0.669659957 8.48586195e-26)
(-0.780275494 0.672529757 7.87212211e-26)
(-0.629219327 0.674901477 3.26892189e-25)
(-0.448815663 0.677288743 0)
(-0.242588343 0.680667019 -1.02360964e-25)
(0.00150519716 0.688642632 2.02477974e-25)
(0.269236023 0.70074944 8.37483459e-26)
(0.595864486 0.711850183 4.60507614e-25)
(0.97832139 0.719855848 2.3918162e-25)
(1.41998173 0.728089119 2.09602041e-24)
(1.92463287 0.738819648 2.39483851e-24)
(2.50103826 0.752064999 -2.65317054e-25)
(3.15244083 0.767029832 -2.69043496e-25)
(3.88291219 0.78375869 3.04008209e-24)
(4.69807927 0.802336148 3.75043587e-24)
(5.60496049 0.822483652 2.82647753e-25)
(6.60792892 0.845188654 -2.81782256e-25)
(7.71031671 0.871779833 0)
(8.90725957 0.894214692 -5.86033245e-24)
(10.215994 0.902327343 -1.13758231e-23)
(11.5551207 0.953169258 -5.59642846e-24)
(12.9842071 0.973101438 0)
(14.5621975 0.857448851 2.74285624e-26)
(15.6829096 1.22246945 1.3984119e-25)
(16.8134707 1.67267623 6.28756996e-24)
(18.9706777 0.638845343 1.13460297e-23)
(20.4457672 0.0594086894 -4.6522682e-24)
(20.6735832 1.77920449 -6.44937398e-24)
(21.4091939 2.55093891 6.05244085e-26)
(22.8806111 1.03801816 6.52224796e-24)
(23.4699998 0.316417906 8.39822812e-24)
(23.4370313 0.733435581 -3.82328975e-24)
(23.503198 1.40037454 -1.22397866e-23)
(23.3485914 1.66775993 -2.50724514e-23)
(-0.0297372311 0.0243460542 3.20644813e-27)
(-0.0866786769 0.0703106563 7.14679985e-28)
(-0.142166278 0.114307521 -7.5596639e-28)
(-0.196362353 0.156441418 7.93303339e-28)
(-0.249417963 0.19685864 0)
(-0.30152586 0.235714674 -1.50535734e-26)
(-0.352848571 0.273143365 1.73050205e-33)
(-0.403510937 0.309246223 1.06389723e-26)
(-0.453592112 0.344089188 8.01507881e-27)
(-0.503126939 0.377704628 1.0219425e-26)
(-0.552111549 0.410096606 4.20256921e-27)
(-0.600510075 0.441247298 2.40071998e-27)
(-0.648261166 0.471123381 2.52502401e-27)
(-0.695283684 0.499681796 -9.35050712e-27)
(-0.741481351 0.526874711 -1.36653023e-26)
(-0.786746342 0.552653623 8.80625625e-27)
(-0.830961893 0.576972713 1.69001867e-26)
(-0.874004081 0.599791516 5.62779191e-26)
(-0.915742844 0.621077027 3.34323842e-26)
(-0.956042346 0.640805327 7.15839283e-27)
(-0.994760743 0.658962809 -7.51212428e-27)
(-1.03174939 0.675547079 -7.87956274e-27)
(-1.06685147 0.690567607 0)
(-1.09989996 0.70404614 1.72739873e-26)
(-1.13071447 0.716016582 -6.83510026e-26)
(-1.15909742 0.726524584 4.57110057e-29)
(-1.18482994 0.735626947 8.07225946e-26)
(-1.20766707 0.743390983 8.65668836e-26)
(-1.22734176 0.749890587 9.11464893e-26)
(-1.24357827 0.755195085 -7.24517384e-26)
(-1.25609418 0.759367565 -2.33730955e-26)
(-1.2644095 0.762699076 2.18800213e-25)
(-1.26843753 0.764968144 2.09882022e-25)
(-1.26773037 0.76663667 0)
(-1.2616296 0.768051108 0)
(-1.25013982 0.768679069 -2.874539e-26)
(-1.2313142 0.769726367 0)
(-1.20368833 0.770237559 6.36084133e-26)
(-1.16529832 0.770335535 1.14813349e-25)
(-1.11512469 0.769736614 1.367685e-25)
(-1.05211123 0.768844939 -1.24478722e-25)
(-0.97444232 0.768175753 0)
(-0.880308166 0.76768923 0)
(-0.767124643 0.767238821 2.08417606e-25)
(-0.632520868 0.766785558 2.51204194e-25)
(-0.475048509 0.765758022 8.00589099e-26)
(-0.289954017 0.764570032 0)
(-0.0760800341 0.766938822 0)
(0.156537826 0.774110803 2.18765442e-25)
(0.439316005 0.781022632 1.09612188e-25)
(0.770319267 0.785318368 -9.64166333e-26)
(1.15412591 0.789751528 0)
(1.59354241 0.796654325 -4.56012691e-25)
(2.09585733 0.806617061 -6.61604978e-25)
(2.66507712 0.819152739 -1.19409626e-24)
(3.30548481 0.834444947 -1.19503988e-24)
(4.02191718 0.852930139 -1.78221893e-24)
(4.82007942 0.874812617 -2.81170462e-32)
(5.70429402 0.900935735 3.44111857e-32)
(6.67721001 0.932286316 -6.54897149e-24)
(7.7393225 0.968652875 -3.6714342e-24)
(8.8951588 1.00494679 3.93541078e-24)
(10.1411178 1.03974849 4.1522395e-24)
(11.4529933 1.0860758 0)
(12.8004852 1.1433924 4.63652842e-24)
(14.2343171 1.1547257 1.10714036e-23)
(15.6549984 1.17659236 5.68912551e-24)
(16.9741969 1.33214532 0)
(18.4133489 1.27426864 -3.10219988e-26)
(19.7216589 1.16861782 4.58251988e-24)
(20.5000838 1.77566624 3.93773758e-24)
(21.5050554 1.95211724 0)
(22.9102076 1.11908122 0)
(23.4906039 0.920009874 6.39316692e-25)
(23.5613409 1.52918076 -6.44965739e-25)
(23.5114697 2.02384552 8.3121247e-24)
(23.478736 1.77650662 2.09957902e-23)
(23.4961109 1.49074286 0)
(23.5165877 1.31403925 -9.76126933e-25)
(23.4792976 1.38963825 5.31701573e-24)
(-0.0333082941 0.0251660289 5.03838681e-28)
(-0.0969257745 0.0727222927 7.92761785e-28)
(-0.158733109 0.118313118 7.90463867e-27)
(-0.218907574 0.162060505 -5.18224413e-27)
(-0.277631714 0.204122185 -6.05608812e-27)
(-0.335077061 0.244644428 0)
(-0.391415011 0.283762948 -7.3663521e-27)
(-0.446779563 0.321586894 -6.68772328e-27)
(-0.501239256 0.35818593 -1.47214181e-27)
(-0.554815395 0.393592899 1.9056829e-27)
(-0.607484632 0.427811479 1.07263381e-26)
(-0.65918574 0.460822487 6.46923393e-34)
(-0.709826515 0.492589945 2.8119112e-27)
(-0.759289805 0.523066704 3.78934461e-33)
(-0.807438456 0.552199409 -3.10976696e-27)
(-0.854119145 0.579932685 3.66001444e-26)
(-0.899165184 0.606212606 -4.2972739e-26)
(-0.942398374 0.630989502 -7.18330583e-27)
(-0.983629958 0.654220195 4.94116646e-26)
(-1.02266061 0.675869832 7.90021125e-27)
(-1.05927934 0.695913437 -1.65958673e-26)
(-1.09326192 0.714337401 -7.2235686e-26)
(-1.12436861 0.731140051 -8.04635577e-26)
(-1.15233876 0.746325229 9.50337998e-27)
(-1.17689036 0.759897636 0)
(-1.19772138 0.771870649 1.03825453e-26)
(-1.21453975 0.782258287 0)
(-1.22695478 0.791122747 1.37908242e-25)
(-1.2347657 0.79855765 2.87846626e-25)
(-1.23755518 0.804769842 1.86791218e-25)
(-1.23495506 0.809992912 -1.69458508e-25)
(-1.226699 0.814295006 -1.80257455e-25)
(-1.21180239 0.81803752 5.52449086e-26)
(-1.18860924 0.820774938 2.88577661e-26)
(-1.15606029 0.822343423 -1.45840199e-25)
(-1.11240226 0.822941609 -2.18122062e-25)
(-1.05679046 0.822628636 0)
(-0.988221521 0.821784417 2.714345e-25)
(-0.904951814 0.820698581 2.45456297e-25)
(-0.805012747 0.819356084 7.0253715e-26)
(-0.686175215 0.817701157 7.29173746e-26)
(-0.546485231 0.815814763 0)
(-0.384378935 0.813423389 0)
(-0.195801565 0.810942448 0)
(0.0224992111 0.811944024 8.04700994e-26)
(0.258688548 0.817131489 3.11956437e-25)
(0.546366086 0.82166991 1.81859993e-25)
(0.880041504 0.824014374 0)
(1.26476941 0.827661007 0)
(1.70440711 0.834125467 4.91120286e-25)
(2.20328192 0.843650946 3.98325116e-25)
(2.76574331 0.856440247 5.48461918e-25)
(3.39668749 0.872989093 6.40031836e-25)
(4.10146233 0.893751922 -2.15072208e-25)
(4.88509361 0.919319383 -1.10615191e-24)
(5.75084751 0.950509545 -8.13932421e-25)
(6.70050653 0.9880315 -2.32622251e-24)
(7.7343604 1.03225723 -2.47165145e-24)
(8.85131477 1.0832693 0)
(10.0478029 1.13998438 1.40293174e-25)
(11.312126 1.20308792 -3.32599525e-24)
(12.628089 1.26669659 -7.45206665e-24)
(13.9951708 1.32288755 -5.21313361e-26)
(15.3687452 1.38406787 -2.62173695e-26)
(16.6922816 1.48265306 -4.88014343e-24)
(18.0044541 1.55556408 5.77505535e-24)
(19.3324202 1.52063047 6.52294326e-24)
(20.4791995 1.6092833 -2.08083785e-25)
(21.3982655 1.7808713 -5.88016381e-24)
(22.436166 1.69616734 -1.10097377e-23)
(23.1552496 1.60110429 7.0147298e-26)
(23.489837 1.88798371 -8.75918059e-24)
(23.5413449 1.87359557 -4.54635847e-24)
(23.5739347 1.78299042 0)
(23.5456369 1.66471251 -1.3819187e-23)
(23.5482671 1.66731244 -2.16867627e-23)
(23.5271693 1.72663526 8.72162571e-26)
(23.4828594 1.73694889 7.26136585e-24)
(23.4637489 1.74536935 5.92960415e-24)
(23.4330187 1.66634671 8.62643043e-24)
(-0.0366030082 0.0254668529 2.81385352e-27)
(-0.106338366 0.0735373071 0)
(-0.173899945 0.119581091 0)
(-0.239483053 0.163735369 1.67871317e-30)
(-0.303281092 0.206169756 0)
(-0.365493741 0.247044339 0)
(-0.426280057 0.286489577 0)
(-0.485728129 0.324607406 -4.80630681e-27)
(-0.543931041 0.36147263 0)
(-0.600881807 0.397128109 2.66934741e-27)
(-0.656529607 0.431579512 1.8934633e-26)
(-0.710779747 0.46480918 3.69973148e-33)
(-0.763500161 0.49678256 -2.10832879e-26)
(-0.814527759 0.527453388 0)
(-0.863673535 0.556768403 -3.43346012e-27)
(-0.910726405 0.584671543 7.22637714e-27)
(-0.95545594 0.611107702 0)
(-0.99761419 0.636026029 6.08191063e-26)
(-1.03693708 0.659382292 8.37762085e-27)
(-1.07313866 0.68113486 -1.4960951e-25)
(-1.10590846 0.701243354 -9.80392603e-26)
(-1.13491524 0.719671338 9.59912368e-27)
(-1.15983409 0.736349964 0)
(-1.1803212 0.751414818 -1.25897032e-25)
(-1.19608288 0.764887019 -1.41227598e-25)
(-1.2067622 0.776871137 -1.46723911e-25)
(-1.211991 0.787539311 -1.72816871e-25)
(-1.21130027 0.796896719 1.81937521e-25)
(-1.2035544 0.804840767 1.77637402e-25)
(-1.18796415 0.811316384 0)
(-1.16356629 0.816335322 -1.98654044e-25)
(-1.12912017 0.819932861 -2.22013607e-25)
(-1.08347682 0.822319378 3.01334915e-26)
(-1.0260141 0.82379123 -2.37304758e-25)
(-0.955205146 0.824549696 -2.79610724e-25)
(-0.869438436 0.824661405 -6.69481735e-26)
(-0.766740522 0.824164193 3.48648391e-26)
(-0.644830236 0.823081102 -2.91666293e-25)
(-0.501499212 0.821193037 -2.82547456e-25)
(-0.33650516 0.81872892 3.86676173e-25)
(-0.144689044 0.816905225 1.07306623e-24)
(0.0758504204 0.818680812 5.50587423e-25)
(0.316178999 0.823515754 0)
(0.608013211 0.827002349 -8.66413126e-26)
(0.944786647 0.828671994 -4.35028425e-25)
(1.32973522 0.832775627 -9.52774922e-26)
(1.76756637 0.840527359 1.85425577e-32)
(2.26236335 0.851699829 -3.83381132e-25)
(2.81874397 0.866621078 0)
(3.44178614 0.885971754 -1.05307202e-25)
(4.1361589 0.910523995 -8.60597523e-25)
(4.90606098 0.940864837 -7.10939052e-25)
(5.75398962 0.977727355 -4.24204119e-25)
(6.68107243 1.02170907 -1.32048497e-24)
(7.68696247 1.0732459 -1.05759852e-24)
(8.7698695 1.13262151 -1.24798382e-24)
(9.92712313 1.19939235 -4.06271255e-24)
(11.1541931 1.27160342 -2.89593326e-24)
(12.438448 1.35064953 -3.15905196e-24)
(13.754873 1.43790893 -3.22777973e-24)
(15.0816524 1.53733338 0)
(16.3861354 1.63577206 -1.05884411e-26)
(17.6867002 1.71966897 -4.2697352e-24)
(18.924596 1.78117794 -4.84037111e-24)
(20.0844583 1.86658913 -2.33228139e-26)
(21.0912303 1.98303924 0)
(22.0811868 2.00172286 8.36634974e-24)
(22.9069016 1.96382453 1.21411674e-23)
(23.4159127 1.99213543 4.15654253e-25)
(23.5498341 2.07051711 -3.3987001e-25)
(23.600369 2.10082932 -2.25595625e-26)
(23.5498982 2.10158023 -9.04480054e-26)
(23.5552379 2.05192101 -3.95452037e-24)
(23.5406022 1.97979998 -1.15650871e-23)
(23.523781 1.95741079 -2.12261781e-25)
(23.5060346 1.88259353 0)
(23.4857029 1.85438568 -7.964247e-24)
(23.4802635 1.8199852 -7.49452661e-24)
(23.4778427 1.78587942 0)
(23.4402247 1.76528456 -1.04396145e-23)
(-0.0399306354 0.025515318 -4.51422629e-27)
(-0.115767196 0.0735298906 -6.04056351e-27)
(-0.188989489 0.11937704 -7.39680592e-27)
(-0.259812737 0.163208539 -1.08123102e-27)
(-0.328441369 0.205204788 3.30932831e-27)
(-0.395074342 0.245534648 -2.40473488e-27)
(-0.45987459 0.284342982 2.51398779e-27)
(-0.522954357 0.321732235 -7.55885868e-28)
(-0.584290948 0.357772876 2.82369193e-27)
(-0.643905818 0.392502455 5.94756518e-27)
(-0.701700901 0.425943715 -7.35940479e-27)
(-0.757536355 0.458084672 -4.12424842e-26)
(-0.81122841 0.488896336 -3.46915708e-26)
(-0.862554791 0.51833888 -3.89146595e-26)
(-0.911260162 0.546365976 3.84159358e-27)
(-0.957059487 0.572928727 6.85817383e-26)
(-0.999634983 0.597977143 0)
(-1.03863978 0.621465277 0)
(-1.0737357 0.643305126 8.60827554e-26)
(-1.10454136 0.663582086 2.01902445e-25)
(-1.13074227 0.682267645 1.11267525e-25)
(-1.1519478 0.69944656 1.31373699e-25)
(-1.16750028 0.715000359 3.39115777e-33)
(-1.17689007 0.728889407 -1.78505433e-25)
(-1.17944022 0.74116802 1.68838615e-25)
(-1.17441018 0.751828655 3.90561989e-25)
(-1.16093402 0.760874416 1.98730389e-25)
(-1.13805709 0.768394987 -1.38951683e-26)
(-1.10515752 0.774664298 1.44725328e-26)
(-1.06109168 0.779754695 -3.01126974e-26)
(-1.00459565 0.783743151 0)
(-0.934266157 0.78672085 3.31032813e-25)
(-0.848506458 0.788791271 -3.39051094e-26)
(-0.745362361 0.790076453 -3.29607534e-25)
(-0.622734062 0.790675692 0)
(-0.478760422 0.790359943 -3.79677659e-25)
(-0.311506925 0.789269757 -4.13903449e-25)
(-0.115555602 0.789418386 0)
(0.100629969 0.793064701 0)
(0.348334619 0.797879385 -2.33948401e-25)
(0.643540778 0.801136076 -3.56572972e-25)
(0.981214505 0.804567387 1.87925358e-25)
(1.36464176 0.811320061 0)
(1.79987271 0.821760736 4.11048689e-25)
(2.29033585 0.83576354 9.43425764e-25)
(2.84043834 0.854085202 4.44091926e-25)
(3.45499314 0.877508952 1.09747248e-25)
(4.13821232 0.906769482 -1.48753661e-27)
(4.89373939 0.942493303 0)
(5.72363213 0.985442385 -8.14409024e-25)
(6.62867021 1.03633293 -2.23530716e-25)
(7.60817767 1.09573715 9.00690223e-25)
(8.65971861 1.16399208 -2.06651993e-25)
(9.77946654 1.24110471 -1.41959856e-24)
(10.962235 1.32634943 -2.60125626e-24)
(12.2011159 1.41784954 -1.68002994e-32)
(13.4808198 1.51528758 1.56201335e-24)
(14.7821634 1.615923 0)
(16.0869258 1.71993821 0)
(17.3580676 1.82686398 -4.07888162e-27)
(18.5701168 1.94689014 2.90317741e-26)
(19.6777297 2.06469779 0)
(20.7279148 2.16437162 4.05037221e-24)
(21.6549216 2.21529219 4.55215794e-24)
(22.5533447 2.23659415 -9.04500731e-24)
(23.1804599 2.25896734 -2.60417234e-23)
(23.4867975 2.32173689 -9.12802441e-24)
(23.5586831 2.34510015 -3.2679726e-24)
(23.5913306 2.31348817 -1.77825058e-24)
(23.6071165 2.27449018 -1.71718365e-25)
(23.5876304 2.29874986 7.46975974e-24)
(23.5152004 2.29328154 8.00756969e-24)
(23.4774805 2.29810304 -8.91133798e-24)
(23.4868261 2.24012053 -6.19717272e-24)
(23.4957201 2.17098073 -6.3208476e-24)
(23.4723418 2.14672918 -8.35288885e-24)
(23.4625333 2.06045694 -8.49818765e-24)
(23.4584725 1.99030983 4.77918949e-32)
(23.4663898 1.94559281 1.22324595e-23)
(23.4614457 1.90439111 1.37355209e-23)
(-0.0434990902 0.0254454383 2.35970089e-27)
(-0.125765606 0.0731060951 1.09484638e-27)
(-0.204829957 0.118390427 5.16889716e-27)
(-0.280925404 0.161464087 -1.91170344e-33)
(-0.354263294 0.20251961 -2.45654289e-27)
(-0.42503918 0.241732918 -3.0288554e-27)
(-0.493401706 0.279254898 4.14292528e-27)
(-0.559431697 0.315203855 1.51677231e-27)
(-0.623142996 0.349652345 7.33416266e-27)
(-0.684408444 0.382647373 1.09303479e-26)
(-0.743132233 0.414199613 1.49100426e-26)
(-0.799105619 0.444318938 1.52874933e-26)
(-0.852073 0.472986635 2.35113996e-26)
(-0.901732225 0.50017586 3.24624532e-26)
(-0.94773993 0.525855955 4.31269199e-27)
(-0.989736566 0.549954639 4.5164656e-27)
(-1.02730552 0.572566105 8.90876443e-26)
(-1.06000256 0.593534237 1.06057543e-25)
(-1.08727722 0.612929189 -1.04100659e-26)
(-1.10865342 0.630667111 -1.09829982e-26)
(-1.12346419 0.646782018 1.4417345e-25)
(-1.13102264 0.661221055 1.57248291e-25)
(-1.130674 0.674153453 0)
(-1.12166364 0.685583385 1.32311443e-26)
(-1.10306965 0.695570655 0)
(-1.0738901 0.704168176 0)
(-1.03301064 0.711452571 1.51091387e-26)
(-0.979191697 0.717514032 -3.12907172e-25)
(-0.911034829 0.722477114 -2.86638998e-25)
(-0.826936217 0.726492195 2.90945853e-25)
(-0.725014144 0.729717059 3.4235525e-25)
(-0.603256162 0.73229319 3.6603527e-26)
(-0.459825814 0.734047459 -3.80664759e-26)
(-0.291837674 0.735251657 0)
(-0.0975423547 0.73818602 4.11296821e-26)
(0.117644914 0.743406944 0)
(0.372896295 0.748905483 0)
(0.666158883 0.754060369 4.71069499e-26)
(1.00185108 0.760905537 0)
(1.38313936 0.770980034 0)
(1.81421272 0.7846464 5.43495784e-25)
(2.2986802 0.802226625 6.65515865e-25)
(2.84095022 0.824551952 0)
(3.44544726 0.852377674 0)
(4.11592292 0.886450347 0)
(4.85567253 0.927506386 1.21072281e-25)
(5.66664489 0.976440306 1.20308906e-25)
(6.54958545 1.03409372 6.48310679e-25)
(7.50368135 1.1011393 8.46533199e-25)
(8.52633718 1.17804412 9.50646634e-25)
(9.61286139 1.2649648 1.09405094e-24)
(10.7571008 1.36167225 1.15604752e-24)
(11.9508722 1.46714909 1.33936466e-24)
(13.1864179 1.57864239 0)
(14.4470367 1.69461856 0)
(15.7127321 1.81362014 -1.85711665e-24)
(16.9596104 1.9340438 -3.90519095e-24)
(18.165961 2.04974313 -2.15226671e-24)
(19.3137349 2.15930463 -2.35314529e-24)
(20.3640597 2.2582084 -2.47735421e-24)
(21.2963791 2.36028938 5.19225251e-24)
(22.0762212 2.45554475 9.90232106e-24)
(22.7399651 2.5114331 2.06573745e-25)
(23.3109572 2.541106 -1.10327384e-23)
(23.4862298 2.55951751 1.50780254e-25)
(23.5284881 2.55005342 -1.90592925e-25)
(23.5467529 2.53801239 3.82666582e-24)
(23.5404485 2.52000655 -6.68559755e-33)
(23.5437236 2.49808269 -8.34664676e-24)
(23.5573943 2.4185437 -4.5824691e-25)
(23.5744579 2.37118021 8.32842485e-24)
(23.5352653 2.35148215 8.2756177e-24)
(23.4728028 2.37537641 0)
(23.4467972 2.35352003 3.96112848e-25)
(23.44821 2.32888438 0)
(23.4517958 2.28201608 6.82205716e-24)
(23.4529564 2.26916169 1.17054452e-23)
(23.4547574 2.23039546 1.16369916e-23)
(23.4819984 2.18111247 7.23540208e-24)
(23.4712048 2.1212549 1.73512817e-23)
(-0.0473395723 0.0252502813 2.33953497e-27)
(-0.136352204 0.0722681628 7.03408548e-27)
(-0.221351701 0.116662513 -1.32274445e-27)
(-0.302588501 0.15861522 -3.41118568e-27)
(-0.380277041 0.198331691 -9.58447616e-28)
(-0.454601841 0.235995771 1.59003437e-28)
(-0.525688118 0.271764411 -3.27236546e-27)
(-0.593581304 0.305764172 -1.14944995e-26)
(-0.658243673 0.338086166 -1.49814085e-26)
(-0.719544541 0.368778834 -1.85586576e-26)
(-0.777232359 0.397869278 0)
(-0.83104251 0.42536262 -8.4694378e-27)
(-0.880635073 0.451292187 4.47001261e-27)
(-0.925612771 0.475604663 0)
(-0.965500972 0.498309592 0)
(-0.999762436 0.519434882 0)
(-1.02788319 0.538876975 0)
(-1.04918888 0.55674743 -5.7192584e-27)
(-1.06301813 0.573019598 0)
(-1.06861282 0.58772089 -9.5409534e-26)
(-1.06512654 0.600896155 -1.05319361e-25)
(-1.0516675 0.612578429 1.89942548e-25)
(-1.02718659 0.622862164 2.24633222e-25)
(-0.990573991 0.631818822 -2.31668868e-25)
(-0.940574376 0.639572254 -2.85079819e-25)
(-0.875791467 0.646258701 -2.92387991e-25)
(-0.794658498 0.652033917 -2.99319978e-25)
(-0.695371898 0.657074702 -3.74071816e-25)
(-0.575982449 0.661565052 -6.97823551e-25)
(-0.434632518 0.665443576 -3.80327078e-25)
(-0.268682159 0.668992814 0)
(-0.0760376263 0.674086262 -4.22333217e-26)
(0.138420184 0.681074347 -4.37549451e-26)
(0.392588132 0.688618837 0)
(0.684154816 0.696279507 4.81181151e-26)
(1.01637251 0.7062811 0)
(1.39294338 0.719593279 0)
(1.81748247 0.7365573 6.33059859e-25)
(2.29388147 0.757785451 -5.66481042e-26)
(2.82621557 0.78401441 -6.23522088e-25)
(3.41843645 0.816037099 7.09985188e-25)
(4.07404223 0.85469739 6.79807372e-25)
(4.79611683 0.900821396 6.42343086e-26)
(5.58655905 0.955318017 0)
(6.44614781 1.01903351 6.658849e-25)
(7.37422126 1.09267124 9.86934581e-25)
(8.36841026 1.17673661 0)
(9.42442093 1.27149634 0)
(10.5358515 1.37687594 -1.30401675e-24)
(11.6944173 1.4924945 -1.46168637e-24)
(12.8891569 1.61750355 1.52984335e-24)
(14.1106543 1.74926804 1.51319603e-24)
(15.340096 1.88564415 -1.75538135e-24)
(16.5587187 2.02429642 -1.53018674e-32)
(17.7429273 2.16039988 1.97240793e-24)
(18.8742817 2.29123665 1.06402428e-26)
(19.9212656 2.41463967 0)
(20.8761699 2.5253761 -4.02226522e-26)
(21.7208076 2.62480938 -2.42764552e-24)
(22.425687 2.68996011 1.38229083e-25)
(23.0128696 2.75719461 3.94773766e-24)
(23.3834757 2.75980944 0)
(23.5219133 2.83738468 1.11183112e-25)
(23.4979143 2.81909498 0)
(23.50598 2.7956667 -2.96677689e-27)
(23.5019224 2.77138599 -3.51351952e-26)
(23.5110464 2.71392839 -1.92493951e-25)
(23.5172798 2.67204152 -6.21301701e-24)
(23.4972261 2.65514886 -8.56438602e-24)
(23.4869832 2.60969854 -2.47427085e-25)
(23.4883441 2.5646387 -7.33220046e-24)
(23.4833512 2.51728019 -6.60218005e-24)
(23.4723982 2.47116117 -6.15797447e-24)
(23.4583334 2.46427285 -7.52447435e-24)
(23.4548818 2.45463895 -6.1829368e-24)
(23.4721965 2.4201824 -9.44626127e-24)
(23.4950459 2.39984695 9.37134055e-24)
(23.497713 2.40043355 1.02657542e-23)
(23.5526797 2.39950304 -8.76045004e-25)
(23.5583166 2.34875906 1.10296439e-24)
(-0.0511848122 0.0247755225 1.97806108e-27)
(-0.146711422 0.0706120924 -7.17180907e-27)
(-0.23716229 0.113598247 -1.52824988e-27)
(-0.322799478 0.153932467 -1.57239168e-33)
(-0.403831914 0.191831297 1.69629345e-27)
(-0.480419887 0.227486159 -1.78891601e-27)
(-0.552648087 0.261059275 8.51436677e-27)
(-0.620506468 0.292681509 3.0059275e-33)
(-0.683878406 0.322466194 -3.15852808e-26)
(-0.742551658 0.350464073 -2.32788829e-26)
(-0.796204357 0.376732483 4.64078598e-27)
(-0.844432878 0.40130084 -3.93284861e-26)
(-0.886762506 0.424162023 -3.49906017e-26)
(-0.922608325 0.445366907 -4.65783906e-26)
(-0.951360463 0.464912503 -5.40920035e-26)
(-0.972324554 0.482826887 6.21929792e-26)
(-0.984729202 0.499143009 7.09283412e-26)
(-0.987718159 0.513910596 -6.5264789e-27)
(-0.980370986 0.52717972 0)
(-0.96168195 0.539043737 -9.2448735e-26)
(-0.930472822 0.549599314 -1.10667404e-25)
(-0.885514288 0.55895044 -1.59127011e-26)
(-0.825422665 0.56724991 1.338797e-25)
(-0.748667892 0.574666125 1.63718455e-25)
(-0.653514459 0.581394244 -3.6374385e-26)
(-0.538073021 0.587649806 0)
(-0.400480825 0.593459829 1.99449911e-26)
(-0.238287444 0.599105353 2.6528729e-28)
(-0.0491462991 0.606103858 -4.73189817e-25)
(0.162857275 0.614765243 -4.07835382e-25)
(0.413327261 0.624282706 4.33572935e-25)
(0.700261964 0.634470708 4.41227507e-25)
(1.02648633 0.647286381 -1.03540767e-25)
(1.39587349 0.663521176 -5.10119332e-25)
(1.81175607 0.68352195 -3.97494216e-32)
(2.27780009 0.707973036 6.14754014e-25)
(2.79782213 0.737659055 -7.06332802e-25)
(3.37543487 0.77342823 -6.77314999e-25)
(4.01393668 0.816140724 -1.30581554e-25)
(4.71623056 0.866634791 6.73691417e-26)
(5.48419108 0.925808544 6.77656408e-26)
(6.31869768 0.994502496 -8.34126811e-25)
(7.21934452 1.07343056 -1.71389858e-24)
(8.18416815 1.16312919 -9.63670081e-25)
(9.20939528 1.26390764 -1.19066959e-24)
(10.2892227 1.37576946 -1.16658737e-24)
(11.4157032 1.49834388 0)
(12.5787616 1.63084284 1.34621395e-24)
(13.7663862 1.77198288 1.54765852e-24)
(14.9665863 1.91946004 1.65494371e-24)
(16.1620088 2.07080168 3.51640873e-24)
(17.3322159 2.22468516 3.65151378e-24)
(18.4523926 2.37699578 3.75910633e-24)
(19.5059786 2.52565349 3.80638808e-24)
(20.4658909 2.6622585 1.97430955e-24)
(21.3371857 2.78680744 5.51966972e-27)
(22.0734819 2.88667441 0)
(22.7299586 2.96877693 -3.50406117e-24)
(23.1857609 3.02515302 -5.13130684e-24)
(23.4681936 3.06102749 0)
(23.5101242 3.07499716 -2.80860658e-24)
(23.5415027 3.10336951 -9.30615212e-25)
(23.4999824 3.06907425 0)
(23.4707671 3.06745801 -1.10227173e-26)
(23.4376575 3.02927068 0)
(23.4413729 2.95974246 -8.30223388e-24)
(23.459734 2.89656042 -3.03135578e-25)
(23.4761648 2.83294054 7.01028862e-24)
(23.4593013 2.80509494 -2.15298215e-25)
(23.4482707 2.76992755 -1.47797534e-25)
(23.4427184 2.70937634 -8.14041634e-24)
(23.4467132 2.67802533 -6.03656817e-24)
(23.4638383 2.64264681 -2.53970132e-25)
(23.4782411 2.61015924 -3.36714162e-25)
(23.4812549 2.5959339 -4.79148529e-26)
(23.5159847 2.56714779 -4.47733088e-25)
(23.5884074 2.50337534 9.66118304e-24)
(23.6302459 2.47923774 1.93589143e-23)
(23.6647904 2.49228029 9.7892087e-24)
(23.6960363 2.49843724 -7.95704594e-25)
(-0.0546085466 0.0238418944 0)
(-0.155567698 0.0676422966 -1.67191769e-27)
(-0.250118142 0.108424345 1.7620567e-27)
(-0.338519491 0.146404891 -4.42175793e-27)
(-0.420959702 0.181815708 1.95914688e-27)
(-0.497556793 0.214852351 2.06463203e-27)
(-0.568324465 0.245689848 -1.49218022e-26)
(-0.633159813 0.274469696 0)
(-0.691842322 0.301290247 4.81377838e-27)
(-0.744009115 0.326251929 -3.02272276e-26)
(-0.789213691 0.349412401 -3.12694748e-26)
(-0.826901272 0.370829621 4.35148354e-26)
(-0.856420018 0.390555292 5.92012478e-27)
(-0.877027352 0.408641169 -1.1169436e-25)
(-0.887892878 0.425145455 -1.35429016e-25)
(-0.888085868 0.440146779 -6.99628202e-26)
(-0.876616889 0.453705549 -7.20339101e-27)
(-0.852317657 0.465963551 -9.66598857e-26)
(-0.813962151 0.477011257 -9.98138367e-26)
(-0.760186806 0.487008427 8.25815961e-27)
(-0.689495743 0.496131553 -8.74102157e-27)
(-0.600222601 0.504588662 -3.64682528e-26)
(-0.490550219 0.512619198 -1.52810044e-25)
(-0.358634289 0.520325948 -3.34858445e-25)
(-0.202188506 0.52799296 -1.9668399e-25)
(-0.0187078919 0.536845386 -2.17608444e-26)
(0.188498052 0.547177562 -1.51001142e-25)
(0.432796616 0.558629439 2.38090169e-26)
(0.712510886 0.571179144 -2.49827059e-26)
(1.03054403 0.586464435 -2.38263635e-25)
(1.39045964 0.605216843 0)
(1.79539294 0.627857127 -6.03771295e-25)
(2.24878766 0.65511164 -5.92662508e-26)
(2.7541984 0.68778455 7.05122091e-25)
(3.31498817 0.726721099 7.44686774e-25)
(3.93425581 0.772783892 7.86912673e-25)
(4.61474517 0.826820821 -6.89446043e-26)
(5.35833634 0.889717436 0)
(6.16602212 0.962305684 -1.45566279e-25)
(7.03765969 1.04530008 -9.11255462e-25)