/*--------------------------------*- C++ -*----------------------------------*\
  =========                 |
  \\      /  F ield         | OpenFOAM: The Open Source CFD Toolbox
   \\    /   O peration     | Website:  https://openfoam.org
    \\  /    A nd           | Version:  8
     \\/     M anipulation  |
\*---------------------------------------------------------------------------*/
FoamFile
{
    version     2.0;
    format      ascii;
    class       volScalarField;
    location    "0.039";
    object      p;
}
// * * * * * * * * * * * * * * * * * * * * * * * * * * * * * * * * * * * * * //

dimensions      [1 -1 -2 0 0 0 0];

internalField   nonuniform List<scalar> 
42400
(
101398.218
101398.208
101398.195
101398.181
101398.166
101398.15
101398.132
101398.113
101398.092
101398.07
101398.046
101398.021
101397.995
101397.966
101397.937
101397.905
101397.871
101397.836
101397.799
101397.759
101397.718
101397.674
101397.627
101397.578
101397.526
101397.471
101397.414
101397.353
101397.288
101397.22
101397.149
101397.073
101396.994
101396.91
101396.822
101396.73
101396.64
101396.55
101396.458
101396.348
101396.218
101396.082
101395.952
101395.827
101395.7
101395.569
101395.434
101395.296
101395.153
101395.007
101394.853
101394.709
101394.576
101394.421
101394.242
101394.074
101393.919
101393.769
101393.61
101393.447
101393.281
101393.109
101392.936
101392.764
101392.611
101392.476
101392.327
101392.202
101392.167
101392.044
101392.28
101393.188
101392.958
101392.226
101394.066
101395.225
101394.875
101395.208
101400.474
101404.024
101398.036
101398.028
101398.018
101398.007
101397.995
101397.981
101397.966
101397.95
101397.933
101397.914
101397.894
101397.872
101397.85
101397.825
101397.8
101397.772
101397.743
101397.713
101397.681
101397.647
101397.61
101397.572
101397.532
101397.49
101397.445
101397.397
101397.347
101397.294
101397.238
101397.18
101397.118
101397.052
101396.983
101396.914
101396.847
101396.779
101396.701
101396.607
101396.502
101396.402
101396.308
101396.211
101396.109
101396.005
101395.898
101395.787
101395.67
101395.561
101395.459
101395.363
101395.245
101395.108
101394.99
101394.883
101394.774
101394.665
101394.558
101394.453
101394.354
101394.263
101394.193
101394.149
101394.132
101394.141
101394.172
101394.258
101394.364
101394.536
101394.925
101395.33
101395.985
101397.528
101399.209
101400.125
101401.81
101405.507
101409.3
101413.721
101417.199
101418.726
101398.013
101398.007
101398
101397.991
101397.981
101397.97
101397.958
101397.945
101397.931
101397.916
101397.899
101397.882
101397.863
101397.843
101397.822
101397.8
101397.776
101397.751
101397.725
101397.697
101397.667
101397.636
101397.604
101397.569
101397.533
101397.495
101397.455
101397.412
101397.367
101397.32
101397.272
101397.224
101397.175
101397.121
101397.056
101396.983
101396.907
101396.835
101396.766
101396.694
101396.619
101396.542
101396.462
101396.375
101396.297
101396.233
101396.149
101396.044
101395.95
101395.868
101395.794
101395.716
101395.639
101395.564
101395.495
101395.434
101395.389
101395.367
101395.368
101395.393
101395.451
101395.551
101395.702
101395.927
101396.229
101396.656
101397.117
101397.645
101398.353
101399.223
101400.21
101401.213
101403.363
101407.194
101411.04
101413.95
101416.447
101419.042
101422.537
101425.427
101398.148
101398.143
101398.137
101398.13
101398.122
101398.114
101398.104
101398.093
101398.082
101398.07
101398.057
101398.043
101398.028
101398.013
101397.996
101397.979
101397.961
101397.942
101397.922
101397.901
101397.879
101397.856
101397.832
101397.807
101397.78
101397.752
101397.722
101397.692
101397.661
101397.629
101397.593
101397.551
101397.506
101397.457
101397.411
101397.367
101397.32
101397.271
101397.22
101397.165
101397.105
101397.052
101397.012
101396.954
101396.877
101396.813
101396.76
101396.706
101396.65
101396.595
101396.543
101396.498
101396.465
101396.448
101396.449
101396.469
101396.511
101396.583
101396.703
101396.875
101397.108
101397.415
101397.818
101398.325
101398.946
101399.758
101400.633
101401.61
101402.483
101403.807
101406.282
101410
101412.709
101414.012
101415.817
101418.368
101421.203
101423.423
101425.561
101428.015
101398.418
101398.414
101398.408
101398.402
101398.396
101398.389
101398.38
101398.372
101398.363
101398.353
101398.343
101398.333
101398.322
101398.311
101398.299
101398.287
101398.275
101398.262
101398.249
101398.235
101398.221
101398.206
101398.189
101398.172
101398.155
101398.138
101398.121
101398.101
101398.081
101398.058
101398.036
101398.014
101397.99
101397.965
101397.937
101397.909
101397.877
101397.841
101397.811
101397.794
101397.759
101397.708
101397.669
101397.639
101397.605
101397.57
101397.537
101397.508
101397.486
101397.475
101397.476
101397.49
101397.521
101397.575
101397.661
101397.786
101397.963
101398.195
101398.493
101398.87
101399.35
101399.914
101400.622
101401.419
101402.391
101403.447
101404.547
101406.342
101409.72
101412.855
101414.345
101415.34
101417.429
101419.873
101421.642
101423.72
101426.138
101428.73
101431.659
101434.551
101398.795
101398.79
101398.784
101398.779
101398.773
101398.766
101398.759
101398.752
101398.745
101398.737
101398.73
101398.723
101398.716
101398.708
101398.701
101398.694
101398.688
101398.681
101398.674
101398.666
101398.658
101398.652
101398.648
101398.644
101398.639
101398.633
101398.627
101398.621
101398.615
101398.608
101398.6
101398.591
101398.582
101398.571
101398.556
101398.547
101398.549
101398.536
101398.508
101398.492
101398.484
101398.472
101398.458
101398.447
101398.441
101398.439
101398.445
101398.46
101398.487
101398.53
101398.595
101398.69
101398.819
101398.989
101399.211
101399.494
101399.846
101400.282
101400.814
101401.438
101402.203
101403.042
101404.05
101404.964
101406.201
101408.785
101412.305
101414.141
101414.754
101416.397
101418.664
101420.126
101421.554
101423.701
101426.158
101428.586
101431.077
101433.515
101436.107
101438.556
101399.235
101399.23
101399.224
101399.218
101399.212
101399.206
101399.2
101399.195
101399.189
101399.184
101399.18
101399.176
101399.172
101399.169
101399.167
101399.165
101399.163
101399.163
101399.165
101399.168
101399.172
101399.175
101399.179
101399.183
101399.188
101399.193
101399.199
101399.204
101399.21
101399.217
101399.222
101399.224
101399.233
101399.251
101399.257
101399.25
101399.255
101399.267
101399.275
101399.283
101399.293
101399.305
101399.322
101399.345
101399.376
101399.418
101399.475
101399.552
101399.654
101399.786
101399.955
101400.167
101400.436
101400.767
101401.17
101401.664
101402.254
101402.95
101403.742
101404.619
101405.6
101406.665
101408.238
101411.123
101413.697
101414.975
101415.814
101417.687
101419.692
101420.77
101422.199
101424.58
101426.459
101428.303
101430.741
101433.086
101435.508
101437.984
101440.516
101442.626
101399.693
101399.687
101399.681
101399.676
101399.67
101399.666
101399.661
101399.658
101399.655
101399.653
101399.651
101399.65
101399.65
101399.652
101399.655
101399.66
101399.667
101399.674
101399.682
101399.692
101399.703
101399.715
101399.728
101399.743
101399.759
101399.775
101399.793
101399.811
101399.827
101399.849
101399.88
101399.902
101399.913
101399.934
101399.962
101399.988
101400.014
101400.042
101400.073
101400.108
101400.148
101400.196
101400.254
101400.325
101400.413
101400.521
101400.656
101400.824
101401.029
101401.281
101401.588
101401.959
101402.403
101402.939
101403.569
101404.305
101405.139
101406.124
101407.165
101408.31
101410.094
101412.851
101414.875
101415.8
101417.352
101418.816
101419.735
101421.249
101423.277
101425.038
101427.135
101429.265
101431.222
101433.491
101435.718
101437.884
101440.377
101442.818
101445.142
101447.507
101400.11
101400.105
101400.099
101400.095
101400.091
101400.088
101400.086
101400.085
101400.086
101400.088
101400.091
101400.097
101400.103
101400.111
101400.12
101400.132
101400.145
101400.159
101400.176
101400.195
101400.215
101400.237
101400.261
101400.287
101400.314
101400.34
101400.372
101400.413
101400.447
101400.472
101400.508
101400.55
101400.59
101400.632
101400.676
101400.723
101400.774
101400.831
101400.895
101400.968
101401.052
101401.152
101401.27
101401.411
101401.581
101401.785
101402.03
101402.323
101402.671
101403.082
101403.566
101404.135
101404.79
101405.544
101406.388
101407.322
101408.236
101409.441
101411.585
101413.958
101415.547
101416.546
101417.942
101419.645
101421.121
101422.664
101424.373
101425.991
101427.727
101429.658
101431.745
101433.805
101435.85
101438.045
101440.351
101442.642
101444.904
101447.637
101450.154
101452.467
101400.44
101400.436
101400.433
101400.43
101400.429
101400.43
101400.432
101400.436
101400.441
101400.448
101400.457
101400.468
101400.481
101400.496
101400.514
101400.534
101400.556
101400.58
101400.607
101400.636
101400.668
101400.702
101400.736
101400.775
101400.823
101400.865
101400.903
101400.949
101401.002
101401.055
101401.109
101401.166
101401.227
101401.292
101401.363
101401.44
101401.525
101401.621
101401.731
101401.857
101402.003
101402.176
101402.378
101402.618
101402.901
101403.234
101403.626
101404.084
101404.616
101405.235
101405.946
101406.757
101407.651
101408.623
101409.666
101411.086
101413.206
101415.246
101416.307
101417.015
101418.226
101419.917
101421.669
101423.432
101424.947
101426.597
101428.35
101430.081
101432.077
101434.089
101436.044
101438.069
101440.12
101442.199
101444.507
101446.756
101448.945
101451.468
101454.5
101457.268
101400.629
101400.628
101400.628
101400.629
101400.633
101400.638
101400.645
101400.655
101400.666
101400.68
101400.697
101400.716
101400.738
101400.763
101400.79
101400.82
101400.854
101400.89
101400.929
101400.969
101401.015
101401.068
101401.119
101401.166
101401.222
101401.284
101401.346
101401.411
101401.48
101401.552
101401.628
101401.71
101401.798
101401.893
101401.998
101402.115
101402.247
101402.396
101402.567
101402.765
101402.995
101403.263
101403.576
101403.941
101404.367
101404.86
101405.43
101406.088
101406.848
101407.717
101408.697
101409.794
101411.018
101412.333
101413.908
101415.274
101416.242
101417.412
101419.069
101420.897
101422.932
101424.706
101426.086
101427.156
101428.313
101430.173
101432.213
101434.191
101436.163
101438.094
101440.091
101442.245
101444.208
101446.173
101448.752
101452.111
101454.956
101456.784
101458.45
101460.689
101400.618
101400.622
101400.627
101400.634
101400.644
101400.655
101400.67
101400.687
101400.707
101400.73
101400.757
101400.786
101400.819
101400.855
101400.895
101400.938
101400.984
101401.034
101401.092
101401.15
101401.206
101401.27
101401.339
101401.41
101401.485
101401.563
101401.645
101401.732
101401.824
101401.922
101402.026
101402.139
101402.263
101402.398
101402.55
101402.719
101402.911
101403.13
101403.381
101403.671
101404.004
101404.39
101404.833
101405.343
101405.927
101406.591
101407.347
101408.204
101409.17
101410.256
101411.446
101412.722
101414.117
101415.616
101416.97
101418.375
101420.069
101421.589
101422.846
101424.008
101425.142
101426.526
101428.347
101430.242
101432.123
101433.947
101435.993
101438.139
101440.022
101441.943
101444.224
101447.158
101449.687
101451.916
101454.183
101455.538
101457.17
101459.866
101462.049
101463.962
101400.343
101400.353
101400.365
101400.379
101400.397
101400.417
101400.441
101400.468
101400.499
101400.534
101400.572
101400.614
101400.661
101400.71
101400.765
101400.827
101400.889
101400.953
101401.024
101401.1
101401.179
101401.262
101401.349
101401.441
101401.538
101401.639
101401.747
101401.861
101401.983
101402.114
101402.256
101402.412
101402.583
101402.774
101402.988
101403.229
101403.502
101403.812
101404.165
101404.567
101405.025
101405.542
101406.125
101406.779
101407.504
101408.303
101409.168
101410.085
101411.028
101412.117
101413.596
101415.306
101416.86
101418.368
101419.938
101421.541
101422.904
101424.059
101425.434
101426.8
101428.2
101429.857
101431.858
101434.1
101436.407
101438.454
101440.402
101442.591
101445.176
101447.589
101449.604
101451.124
101453.289
101455.615
101456.734
101458.26
101460.49
101462.44
101465.037
101466.929
101399.736
101399.753
101399.774
101399.798
101399.826
101399.857
101399.892
101399.932
101399.976
101400.023
101400.076
101400.133
101400.197
101400.264
101400.333
101400.409
101400.491
101400.576
101400.667
101400.762
101400.862
101400.968
101401.079
101401.196
101401.32
101401.452
101401.593
101401.744
101401.908
101402.087
101402.283
101402.499
101402.741
101403.012
101403.316
101403.66
101404.048
101404.486
101404.98
101405.535
101406.155
101406.843
101407.601
101408.43
101409.332
101410.299
101411.321
101412.506
101414.17
101416.106
101417.406
101418.607
101420.331
101421.752
101422.938
101424.198
101425.731
101427.781
101429.839
101431.86
101433.739
101435.468
101437.213
101438.88
101440.67
101442.514
101444.497
101446.537
101448.159
101450.084
101452.313
101454.071
101456.297
101458.67
101460.819
101462.619
101464.442
101467.027
101468.965
101470.813
101398.719
101398.745
101398.778
101398.814
101398.853
101398.898
101398.947
101399
101399.06
101399.123
101399.191
101399.265
101399.345
101399.43
101399.52
101399.615
101399.716
101399.822
101399.934
101400.053
101400.177
101400.309
101400.449
101400.597
101400.756
101400.926
101401.11
101401.311
101401.531
101401.774
101402.045
101402.347
101402.686
101403.067
101403.498
101403.983
101404.53
101405.144
101405.832
101406.598
101407.448
101408.384
101409.409
101410.527
101411.747
101413.052
101414.429
101415.806
101417.123
101418.445
101419.995
101421.534
101422.865
101424.336
101426.041
101427.586
101429.108
101430.887
101432.806
101434.778
101436.761
101438.63
101440.26
101441.821
101443.598
101445.68
101447.52
101449.315
101451.836
101454.158
101456.068
101458.048
101460.12
101462.278
101464.131
101466.327
101469.01
101471.087
101473.436
101477.121
101397.231
101397.269
101397.315
101397.365
101397.419
101397.478
101397.542
101397.611
101397.686
101397.766
101397.852
101397.944
101398.041
101398.144
101398.253
101398.369
101398.49
101398.619
101398.754
101398.897
101399.049
101399.21
101399.382
101399.567
101399.767
101399.985
101400.222
101400.484
101400.774
101401.096
101401.456
101401.859
101402.311
101402.818
101403.384
101404.016
101404.719
101405.495
101406.349
101407.282
101408.293
101409.381
101410.545
101411.784
101413.084
101414.472
101416.011
101417.753
101419.246
101420.52
101421.854
101423.235
101424.632
101426.031
101427.392
101428.852
101430.387
101432.195
101434.553
101436.838
101438.92
101441.029
101442.762
101444.44
101446.741
101449.484
101452.227
101454.528
101455.68
101457.247
101459.838
101462.319
101465.002
101466.725
101468.05
101469.927
101472.583
101474.366
101476.058
101479.309
101395.224
101395.276
101395.338
101395.403
101395.473
101395.548
101395.629
101395.715
101395.807
101395.905
101396.009
101396.119
101396.235
101396.358
101396.488
101396.624
101396.769
101396.921
101397.083
101397.255
101397.438
101397.636
101397.848
101398.079
101398.331
101398.607
101398.912
101399.25
101399.626
101400.044
101400.511
101401.031
101401.609
101402.25
101402.957
101403.734
101404.583
101405.505
101406.496
101407.558
101408.68
101409.88
101411.13
101412.387
101413.635
101414.798
101416.295
101418.141
101419.854
101421.523
101423.254
101425.104
101427.016
101428.999
101431.202
101433.68
101436.036
101437.998
101439.816
101441.419
101442.929
101444.516
101446.738
101449.599
101451.956
101454.108
101455.826
101457.361
101459.571
101461.985
101464.166
101465.888
101466.729
101468.56
101472.151
101474.702
101475.962
101477.735
101479.235
101480.269
101392.682
101392.749
101392.828
101392.91
101392.997
101393.089
101393.187
101393.291
101393.401
101393.517
101393.64
101393.77
101393.908
101394.053
101394.206
101394.369
101394.541
101394.726
101394.923
101395.136
101395.366
101395.617
101395.891
101396.193
101396.526
101396.896
101397.306
101397.763
101398.271
101398.836
101399.463
101400.154
101400.914
101401.744
101402.643
101403.61
101404.642
101405.731
101406.857
101408.025
101409.232
101410.772
101412.79
101414.995
101417.35
101419.877
101421.598
101422.813
101424.161
101425.763
101427.508
101429.098
101430.819
101432.809
101434.756
101436.674
101438.656
101440.393
101441.75
101443.586
101446.038
101448.475
101450.16
101451.905
101454.245
101456.388
101458.655
101460.854
101462.526
101463.952
101466.183
101469.264
101472.129
101473.84
101475.31
101476.61
101478.16
101481.062
101482.698
101483.332
101389.666
101389.749
101389.847
101389.947
101390.051
101390.161
101390.277
101390.4
101390.53
101390.666
101390.811
101390.963
101391.125
101391.298
101391.481
101391.678
101391.89
101392.12
101392.37
101392.643
101392.943
101393.275
101393.643
101394.053
101394.51
101395.021
101395.591
101396.228
101396.937
101397.723
101398.593
101399.55
101400.598
101401.739
101402.976
101404.308
101405.736
101407.254
101408.851
101410.589
101412.542
101414.102
101415.457
101417.025
101418.639
101420.32
101422.176
101424.307
101426.575
101428.246
101429.634
101431.333
101433.085
101434.795
101436.553
101438.306
101440.291
101442.559
101444.77
101446.701
101448.397
101449.977
101452.759
101455.525
101457.226
101458.91
101460.908
101463.225
101465.556
101468.109
101470.528
101472.659
101474.535
101476.578
101478.748
101481.018
101482.884
101483.301
101485.218
101488.41
101386.145
101386.245
101386.36
101386.477
101386.597
101386.724
101386.857
101386.997
101387.144
101387.3
101387.465
101387.64
101387.828
101388.029
101388.246
101388.481
101388.738
101389.02
101389.331
101389.675
101390.058
101390.485
101390.961
101391.495
101392.09
101392.755
101393.494
101394.314
101395.218
101396.21
101397.292
101398.465
101399.728
101401.078
101402.512
101404.024
101405.611
101407.267
101409.053
101410.844
101412.605
101414.613
101416.432
101417.966
101419.479
101421.003
101422.629
101424.265
101425.821
101427.451
101429.219
101430.973
101433.127
101435.856
101438.612
101441.222
101443.833
101446.289
101448.598
101450.922
101453.466
101455.875
101456.802
101458.034
101460.366
101462.602
101464.63
101466.528
101468.782
101470.897
101473.195
101475.719
101478.182
101480.345
101482.568
101484.891
101486.672
101488.359
101491.082
101494.154
101428.516
101428.522
101428.528
101428.535
101428.542
101428.549
101428.557
101428.565
101428.574
101428.583
101428.593
101428.603
101428.613
101428.624
101428.635
101428.647
101428.66
101428.672
101428.686
101428.699
101428.714
101428.729
101428.744
101428.76
101428.777
101428.794
101428.812
101428.83
101428.85
101428.869
101428.89
101428.911
101428.933
101428.955
101428.978
101429.002
101429.027
101429.052
101429.078
101429.104
101429.131
101429.159
101429.187
101429.216
101429.244
101429.271
101429.297
101429.324
101429.348
101429.37
101429.387
101429.403
101429.421
101429.441
101429.458
101429.466
101429.469
101429.464
101429.452
101429.428
101429.392
101429.339
101429.267
101429.166
101429.029
101428.846
101428.603
101428.289
101427.888
101427.38
101426.762
101426.033
101425.183
101424.207
101423.111
101421.846
101420.241
101418.696
101416.879
101414.979
101427.001
101427.006
101427.012
101427.017
101427.024
101427.031
101427.038
101427.046
101427.054
101427.063
101427.073
101427.083
101427.094
101427.105
101427.117
101427.13
101427.143
101427.157
101427.171
101427.187
101427.203
101427.22
101427.238
101427.256
101427.276
101427.296
101427.317
101427.34
101427.363
101427.388
101427.413
101427.44
101427.468
101427.497
101427.528
101427.56
101427.594
101427.629
101427.666
101427.703
101427.742
101427.782
101427.823
101427.867
101427.91
101427.954
101427.998
101428.044
101428.093
101428.148
101428.206
101428.262
101428.314
101428.365
101428.414
101428.461
101428.505
101428.543
101428.573
101428.593
101428.599
101428.585
101428.546
101428.473
101428.36
101428.196
101427.975
101427.69
101427.335
101426.905
101426.397
101425.791
101425.034
101424.256
101423.563
101422.477
101421.112
101419.707
101418.522
101417.39
101425.407
101425.411
101425.415
101425.42
101425.426
101425.432
101425.439
101425.446
101425.454
101425.463
101425.472
101425.482
101425.493
101425.505
101425.517
101425.53
101425.544
101425.559
101425.575
101425.591
101425.609
101425.627
101425.647
101425.668
101425.69
101425.713
101425.737
101425.763
101425.79
101425.819
101425.849
101425.881
101425.915
101425.951
101425.988
101426.027
101426.068
101426.111
101426.157
101426.206
101426.257
101426.309
101426.363
101426.422
101426.486
101426.555
101426.625
101426.696
101426.77
101426.847
101426.928
101427.012
101427.098
101427.186
101427.276
101427.366
101427.456
101427.544
101427.628
101427.704
101427.769
101427.817
101427.839
101427.827
101427.77
101427.658
101427.48
101427.226
101426.884
101426.445
101425.892
101425.192
101424.344
101423.427
101422.444
101421.659
101420.849
101419.674
101418.013
101415.783
101423.724
101423.727
101423.73
101423.734
101423.739
101423.744
101423.75
101423.757
101423.764
101423.773
101423.782
101423.791
101423.802
101423.813
101423.825
101423.839
101423.853
101423.868
101423.884
101423.901
101423.919
101423.939
101423.96
101423.982
101424.005
101424.03
101424.056
101424.085
101424.114
101424.146
101424.179
101424.215
101424.252
101424.292
101424.335
101424.381
101424.429
101424.479
101424.532
101424.589
101424.651
101424.716
101424.784
101424.856
101424.932
101425.013
101425.098
101425.188
101425.282
101425.381
101425.485
101425.593
101425.706
101425.823
101425.944
101426.069
101426.195
101426.322
101426.447
101426.567
101426.677
101426.771
101426.839
101426.872
101426.858
101426.786
101426.644
101426.42
101426.103
101425.682
101425.141
101424.452
101423.579
101422.503
101421.319
101419.92
101418.491
101416.827
101414.583
101413.382
101421.943
101421.945
101421.947
101421.95
101421.954
101421.958
101421.963
101421.969
101421.975
101421.983
101421.991
101421.999
101422.009
101422.02
101422.031
101422.044
101422.057
101422.072
101422.087
101422.104
101422.122
101422.141
101422.162
101422.184
101422.207
101422.232
101422.259
101422.287
101422.317
101422.35
101422.386
101422.424
101422.463
101422.504
101422.549
101422.596
101422.647
101422.701
101422.759
101422.821
101422.888
101422.958
101423.034
101423.113
101423.198
101423.287
101423.381
101423.481
101423.586
101423.697
101423.815
101423.938
101424.068
101424.204
101424.346
101424.493
101424.645
101424.801
101424.957
101425.111
101425.257
101425.388
101425.495
101425.566
101425.587
101425.545
101425.423
101425.207
101424.88
101424.423
101423.819
101423.064
101422.185
101421.207
101420.083
101418.629
101416.764
101415.301
101414.29
101412.874
101420.066
101420.067
101420.068
101420.07
101420.073
101420.076
101420.079
101420.084
101420.089
101420.095
101420.101
101420.108
101420.117
101420.126
101420.136
101420.146
101420.158
101420.171
101420.185
101420.2
101420.216
101420.233
101420.251
101420.272
101420.294
101420.318
101420.343
101420.369
101420.397
101420.427
101420.459
101420.494
101420.531
101420.571
101420.615
101420.661
101420.711
101420.764
101420.821
101420.881
101420.946
101421.015
101421.089
101421.167
101421.251
101421.339
101421.433
101421.533
101421.638
101421.749
101421.866
101421.99
101422.121
101422.259
101422.403
101422.553
101422.709
101422.868
101423.029
101423.187
101423.336
101423.47
101423.577
101423.645
101423.657
101423.599
101423.452
101423.197
101422.815
101422.299
101421.669
101420.957
101420.184
101419.354
101418.272
101417.002
101415.992
101414.971
101413.958
101412.385
101418.098
101418.098
101418.098
101418.099
101418.1
101418.101
101418.103
101418.106
101418.11
101418.114
101418.118
101418.123
101418.129
101418.135
101418.143
101418.151
101418.16
101418.169
101418.18
101418.192
101418.204
101418.218
101418.232
101418.248
101418.265
101418.283
101418.303
101418.324
101418.348
101418.373
101418.4
101418.43
101418.461
101418.495
101418.532
101418.571
101418.613
101418.658
101418.706
101418.758
101418.814
101418.874
101418.937
101419.005
101419.078
101419.156
101419.238
101419.325
101419.418
101419.516
101419.619
101419.728
101419.843
101419.964
101420.091
101420.223
101420.359
101420.497
101420.633
101420.761
101420.872
101420.963
101421.022
101421.035
101420.983
101420.847
101420.605
101420.241
101419.754
101419.163
101418.485
101417.721
101416.878
101415.936
101415.121
101414.425
101413.621
101412.861
101412.103
101410.16
101416.059
101416.058
101416.056
101416.056
101416.055
101416.055
101416.055
101416.056
101416.057
101416.058
101416.06
101416.063
101416.065
101416.068
101416.072
101416.076
101416.08
101416.086
101416.091
101416.098
101416.105
101416.113
101416.121
101416.131
101416.141
101416.152
101416.165
101416.178
101416.193
101416.209
101416.226
101416.245
101416.265
101416.287
101416.311
101416.337
101416.365
101416.395
101416.428
101416.463
101416.501
101416.542
101416.585
101416.632
101416.682
101416.735
101416.792
101416.852
101416.915
101416.982
101417.052
101417.125
101417.202
101417.282
101417.366
101417.451
101417.538
101417.628
101417.719
101417.81
101417.887
101417.923
101417.912
101417.837
101417.681
101417.428
101417.057
101416.557
101415.915
101415.127
101414.212
101413.201
101412.071
101410.799
101409.387
101408.036
101406.842
101405.85
101404.711
101402.677
101413.975
101413.973
101413.971
101413.969
101413.967
101413.964
101413.962
101413.96
101413.958
101413.956
101413.955
101413.953
101413.951
101413.95
101413.949
101413.948
101413.947
101413.946
101413.946
101413.946
101413.946
101413.946
101413.946
101413.947
101413.948
101413.949
101413.95
101413.952
101413.955
101413.958
101413.961
101413.965
101413.97
101413.975
101413.982
101413.988
101413.996
101414.005
101414.015
101414.025
101414.037
101414.051
101414.065
101414.081
101414.098
101414.117
101414.136
101414.154
101414.174
101414.194
101414.211
101414.229
101414.249
101414.268
101414.289
101414.309
101414.325
101414.325
101414.306
101414.26
101414.199
101414.107
101413.961
101413.745
101413.439
101413.019
101412.473
101411.79
101410.95
101409.923
101408.711
101407.338
101405.827
101404.201
101402.496
101400.724
101398.843
101396.851
101394.799
101392.439
101411.885
101411.882
101411.879
101411.875
101411.871
101411.867
101411.862
101411.857
101411.852
101411.847
101411.841
101411.835
101411.829
101411.822
101411.816
101411.809
101411.801
101411.794
101411.785
101411.777
101411.768
101411.759
101411.749
101411.739
101411.729
101411.718
101411.706
101411.694
101411.682
101411.668
101411.655
101411.64
101411.625
101411.609
101411.593
101411.575
101411.557
101411.538
101411.518
101411.496
101411.474
101411.45
101411.425
101411.398
101411.367
101411.329
101411.293
101411.257
101411.202
101411.155
101411.113
101411.058
101410.998
101410.93
101410.847
101410.752
101410.645
101410.523
101410.379
101410.199
101409.968
101409.689
101409.348
101408.928
101408.411
101407.771
101406.988
101406.049
101404.918
101403.583
101402.044
101400.308
101398.419
101396.403
101394.277
101392.059
101389.783
101387.522
101385.017
101381.998
101409.835
101409.831
101409.826
101409.821
101409.815
101409.808
101409.801
101409.793
101409.784
101409.775
101409.765
101409.754
101409.742
101409.73
101409.717
101409.704
101409.689
101409.673
101409.657
101409.639
101409.621
101409.601
101409.581
101409.559
101409.535
101409.511
101409.484
101409.457
101409.427
101409.396
101409.363
101409.328
101409.29
101409.251
101409.208
101409.163
101409.115
101409.064
101409.009
101408.951
101408.888
101408.82
101408.743
101408.664
101408.584
101408.486
101408.39
101408.296
101408.185
101408.061
101407.93
101407.785
101407.625
101407.452
101407.263
101407.052
101406.814
101406.548
101406.251
101405.919
101405.539
101405.094
101404.565
101403.932
101403.173
101402.279
101401.246
101400.07
101398.646
101396.997
101395.098
101392.987
101390.716
101388.174
101385.387
101382.54
101379.654
101376.388
101372.882
101369.983
101407.872
101407.867
101407.86
101407.853
101407.845
101407.835
101407.825
101407.814
101407.801
101407.788
101407.773
101407.758
101407.741
101407.723
101407.704
101407.683
101407.662
101407.638
101407.613
101407.587
101407.559
101407.529
101407.497
101407.463
101407.427
101407.389
101407.348
101407.305
101407.259
101407.21
101407.158
101407.102
101407.042
101406.979
101406.911
101406.838
101406.761
101406.678
101406.589
101406.494
101406.393
101406.285
101406.17
101406.045
101405.91
101405.762
101405.602
101405.434
101405.252
101405.058
101404.849
101404.622
101404.373
101404.1
101403.806
101403.49
101403.145
101402.764
101402.336
101401.854
101401.308
101400.685
101399.963
101399.124
101398.168
101397.136
101395.943
101394.466
101392.82
101390.818
101388.22
101385.562
101382.699
101379.534
101376.644
101373.865
101371.009
101368.119
101365.369
101362.927
101406.045
101406.038
101406.03
101406.02
101406.01
101405.998
101405.984
101405.97
101405.954
101405.936
101405.917
101405.897
101405.875
101405.852
101405.827
101405.8
101405.771
101405.741
101405.708
101405.673
101405.636
101405.597
101405.555
101405.51
101405.462
101405.411
101405.357
101405.3
101405.238
101405.173
101405.103
101405.028
101404.949
101404.865
101404.775
101404.68
101404.579
101404.471
101404.354
101404.227
101404.089
101403.941
101403.782
101403.613
101403.434
101403.244
101403.038
101402.816
101402.576
101402.318
101402.042
101401.746
101401.428
101401.085
101400.712
101400.307
101399.866
101399.386
101398.866
101398.289
101397.639
101396.902
101396.07
101395.147
101394.106
101392.77
101391.167
101389.467
101387.524
101385.172
101382.822
101380.529
101378.124
101375.687
101373.237
101370.734
101368.208
101365.708
101363.377
101361.396
101404.383
101404.375
101404.365
101404.353
101404.34
101404.325
101404.309
101404.291
101404.272
101404.251
101404.228
101404.203
101404.177
101404.149
101404.119
101404.086
101404.052
101404.015
101403.976
101403.934
101403.89
101403.843
101403.792
101403.739
101403.683
101403.622
101403.559
101403.491
101403.418
101403.342
101403.26
101403.173
101403.078
101402.977
101402.868
101402.752
101402.628
101402.495
101402.354
101402.205
101402.046
101401.876
101401.693
101401.497
101401.286
101401.062
101400.823
101400.569
101400.297
101400.007
101399.695