/*--------------------------------*- C++ -*----------------------------------*\
  =========                 |
  \\      /  F ield         | OpenFOAM: The Open Source CFD Toolbox
   \\    /   O peration     | Website:  https://openfoam.org
    \\  /    A nd           | Version:  8
     \\/     M anipulation  |
\*---------------------------------------------------------------------------*/
FoamFile
{
    version     2.0;
    format      ascii;
    class       surfaceScalarField;
    location    "0.039";
    object      phi;
}
// * * * * * * * * * * * * * * * * * * * * * * * * * * * * * * * * * * * * * //

dimensions      [1 0 -1 0 0 0 0];

internalField   nonuniform List<scalar> 
84340
(
-4.62577342e-08
2.74649099e-07
-2.28236396e-07
-1.97921636e-07
8.48489679e-07
-6.96575238e-07
-4.69444825e-07
1.46857348e-06
-1.19674083e-06
-8.72986148e-07
2.13843228e-06
-1.73453051e-06
-1.41873391e-06
2.85963541e-06
-2.31348195e-06
-2.11525085e-06
3.63209371e-06
-2.93512882e-06
-2.96983145e-06
4.45462245e-06
-3.59955235e-06
-3.98880265e-06
5.32552909e-06
-4.30602585e-06
-5.17775856e-06
6.24309691e-06
-5.05356422e-06
-6.54172511e-06
7.20588413e-06
-5.84129302e-06
-8.08525698e-06
8.21285033e-06
-6.66864238e-06
-9.81247359e-06
9.26335405e-06
-7.53540563e-06
-1.17270451e-05
1.03570809e-05
-8.44171708e-06
-1.38321385e-05
1.1493943e-05
-9.38799168e-06
-1.61303236e-05
1.26739677e-05
-1.03748536e-05
-1.86234635e-05
1.38972073e-05
-1.14030611e-05
-2.13125666e-05
1.516365e-05
-1.2473457e-05
-2.41976291e-05
1.64731541e-05
-1.35869108e-05
-2.72774477e-05
1.78253956e-05
-1.47442981e-05
-3.05494131e-05
1.92198222e-05
-1.59464714e-05
-3.40092809e-05
2.06556142e-05
-1.71942458e-05
-3.76509163e-05
2.2131647e-05
-1.84883866e-05
-4.1466006e-05
2.36464435e-05
-1.9829594e-05
-4.54437514e-05
2.51981285e-05
-2.12184779e-05
-4.95705149e-05
2.67843573e-05
-2.26555315e-05
-5.38294372e-05
2.84022424e-05
-2.41410882e-05
-5.82000086e-05
3.00482503e-05
-2.5675264e-05
-6.26575721e-05
3.17180853e-05
-2.72579097e-05
-6.71727542e-05
3.34065332e-05
-2.88885266e-05
-7.17107592e-05
3.51072461e-05
-3.05661882e-05
-7.62305893e-05
3.6812581e-05
-3.22894522e-05
-8.06844535e-05
3.85136531e-05
-3.40562285e-05
-8.50176643e-05
4.02005473e-05
-3.58634988e-05
-8.91642674e-05
4.18576652e-05
-3.77069203e-05
-9.30419698e-05
4.34633577e-05
-3.95811725e-05
-9.65588574e-05
4.50034432e-05
-4.14817303e-05
-9.9618951e-05
4.64647436e-05
-4.33995422e-05
-0.000102126098
4.78215977e-05
-4.53090394e-05
-0.000103936627
4.90139071e-05
-4.71975202e-05
-0.000104843629
4.99689553e-05
-4.90556185e-05
-0.000104632091
5.06499065e-05
-5.08546773e-05
-0.00010308357
5.09917319e-05
-5.25329969e-05
-9.99817099e-05
5.09116296e-05
-5.40057298e-05
-9.50595174e-05
5.03156739e-05
-5.52296005e-05
-8.79856375e-05
4.90884469e-05
-5.61535339e-05
-7.84111491e-05
4.71110388e-05
-5.66761962e-05
-6.59758268e-05
4.42488632e-05
-5.66743238e-05
-5.02613187e-05
4.03084261e-05
-5.60125303e-05
-3.0890951e-05
3.51855954e-05
-5.45450325e-05
-7.36261003e-06
2.86025918e-05
-5.21194696e-05
2.05986244e-05
2.06013721e-05
-4.85506243e-05
5.38575807e-05
1.03167186e-05
-4.35633435e-05
9.31935914e-05
-2.32253373e-06
-3.70008816e-05
0.000139487465
-1.74771206e-05
-2.88036884e-05
0.000193749335
-3.60515023e-05
-1.81968482e-05
0.000257133007
-5.84376963e-05
-4.93216123e-06
0.000330753371
-8.50822165e-05
1.14758266e-05
0.000416170058
-0.000116552463
3.1149863e-05
0.000514412596
-0.000153576976
5.53485585e-05
0.000626829473
-0.000196813809
8.44110176e-05
0.000755110875
-0.000247009227
0.000118741844
0.000900876504
-0.000304870727
0.000159118877
0.00106558417
-0.000371057279
0.000206363004
0.00125037487
-0.000445910694
0.000261133023
0.00145631232
-0.000530051168
0.0003241259
0.00168405604
-0.000623322634
0.00039558949
0.001932488
-0.000724231375
0.00047580837
0.00220478882
-0.000840207924
0.000567914496
0.00250740121
-0.000971129789
0.000668523451
0.00282652595
-0.00109632506
0.000777205087
0.00316675837
-0.00127971027
0.000939481699
0.0035972662
-0.00150975944
0.00107925486
0.00407479463
-0.00159520444
0.0011176794
0.00442884653
-0.00170545044
0.00135140264
0.00479865111
-0.0020727404
0.00170294212
0.00543800467
-0.00235294593
0.00171360165
0.00609684866
-0.00239800723
0.00173917596
0.00645053076
-0.00257861509
0.00222494884
0.00665621526
-0.00288420985
0.00267855667
-0.00308909823
0.00287747033
0.00686787729
-3.46946963e-08
3.09561735e-07
-1.50602713e-07
9.64706969e-07
-3.60486601e-07
1.6788137e-06
-6.75120099e-07
2.45346576e-06
-1.10336232e-06
3.28831902e-06
-1.65245084e-06
4.18166445e-06
-2.32839941e-06
5.13109494e-06
-3.13617623e-06
6.13387354e-06
-4.07990344e-06
7.18743827e-06
-5.16299395e-06
8.28963879e-06
-6.38822251e-06
9.43879705e-06
-7.75773792e-06
1.06336461e-05
-9.27302243e-06
1.18732053e-05
-1.09348058e-05
1.31566348e-05
-1.2742951e-05
1.44830956e-05
-1.46962949e-05
1.58516141e-05
-1.67924732e-05
1.72609779e-05
-1.90277139e-05
1.87096382e-05
-2.13966021e-05
2.01956283e-05
-2.38918231e-05
2.17164967e-05
-2.65038776e-05
2.32692397e-05
-2.92207634e-05
2.48502304e-05
-3.20276391e-05
2.64551529e-05
-3.49064468e-05
2.80789162e-05
-3.78355016e-05
2.97155494e-05
-4.07890379e-05
3.13580844e-05
-4.37366728e-05
3.29983715e-05
-4.66428314e-05
3.46269236e-05
-4.94661667e-05
3.6232754e-05
-5.21587796e-05
3.78029666e-05
-5.4663492e-05
3.93206432e-05
-5.69131058e-05
4.07668507e-05
-5.88336531e-05
4.2124903e-05
-6.03473979e-05
4.33755026e-05
-6.13750937e-05
4.44954583e-05
-6.18007706e-05
4.5433804e-05
-6.14676004e-05
4.61365666e-05
-6.01879719e-05
4.65473159e-05
-5.77709426e-05
4.66026055e-05
-5.40277894e-05
4.62319321e-05
-4.87315319e-05
4.53601691e-05
-4.16192592e-05
4.38863836e-05
-3.24064923e-05
4.17061953e-05
-2.07780587e-05
3.86949956e-05
-6.3607736e-06
3.46793346e-05
1.12024733e-05
2.95563844e-05
3.21027655e-05
2.3357593e-05
5.69594496e-05
1.54612283e-05
8.64029007e-05
5.75191753e-06
0.0001211435
-6.12799632e-06
0.000161999546
-2.02442081e-05
0.000209889143
-3.75619262e-05
0.000265827694
-5.82498177e-05
0.000331094926
-8.27328036e-05
0.000406693093
-0.000111637918
0.000493843159
-0.000145575849
0.000593976805
-0.000185203882
0.000708649224
-0.000231212858
0.000839392951
-0.000284308856
0.000987707435
-0.000345116775
0.00115510458
-0.000414395264
0.00134257987
-0.000492335384
0.00155114417
-0.00057961206
0.00178175397
-0.00067651272
0.0020355518
-0.000783843016
0.00231460815
-0.000902374784
0.00261672782
-0.00102634859
0.00293944991
-0.00116292937
0.00329359236
-0.0013252733
0.00368148872
-0.0014842242
0.00405647061
-0.00165469627
0.00444988776
-0.00190318186
0.00496960041
-0.00211492249
0.00547862561
-0.00221448076
0.00581243995
-0.0024065578
0.00614450212
-0.002685009
0.00658477224
-0.00283827424
0.00692779331
-0.00292162745
0.00709585751
-0.00305225525
-0.00320083676
0.00720762164
-2.45848747e-08
3.3438076e-07
-1.08941359e-07
1.04939418e-06
-2.63954825e-07
1.834207e-06
-4.98641764e-07
2.68857815e-06
-8.20217113e-07
3.61036325e-06
-1.23431392e-06
4.59627305e-06
-1.74510575e-06
5.64244234e-06
-2.35578601e-06
6.74515521e-06
-3.06860222e-06
7.90090468e-06
-3.88495783e-06
9.10669696e-06
-4.80545287e-06
1.03600511e-05
-5.82986774e-06
1.1658881e-05
-6.95709761e-06
1.30013211e-05
-8.18504177e-06
1.43855362e-05
-9.51045416e-06
1.58095423e-05
-1.0928765e-05
1.72710423e-05
-1.24338631e-05
1.87672833e-05
-1.40178595e-05
2.02949384e-05
-1.56708146e-05
2.18499916e-05
-1.73804412e-05
2.34276434e-05
-1.9131779e-05
2.50222183e-05
-2.09068316e-05
2.66270533e-05
-2.26841189e-05
2.82343497e-05
-2.44381608e-05
2.98350167e-05
-2.61389417e-05
3.14185483e-05
-2.77515061e-05
3.29730368e-05
-2.92340671e-05
3.4483504e-05
-3.05382714e-05
3.59338988e-05
-3.16101114e-05
3.73075674e-05
-3.23904997e-05
3.85865293e-05
-3.28180966e-05
3.97516453e-05
-3.2812647e-05
4.07650587e-05
-3.22755297e-05
4.15916856e-05
-3.1082874e-05
4.21870206e-05
-2.90805366e-05
4.24975926e-05
-2.61083778e-05
4.24664179e-05
-2.19904687e-05
4.20237677e-05
-1.65270691e-05
4.10893837e-05
-9.50910893e-06
3.95904614e-05
-6.97965765e-07
3.74269663e-05
1.0179589e-05
3.44891601e-05
2.34400543e-05
3.06328396e-05
3.93961743e-05
2.57573854e-05
5.82306188e-05
1.98682657e-05
8.05287591e-05
1.23892003e-05
0.000106836794
3.25664108e-06
0.000137815984
-7.61286166e-06
0.000174214425
-2.09280255e-05
0.000216893442
-3.69175551e-05
0.000266756971
-5.59816134e-05
0.00032504428
-7.85212864e-05
0.000392574245
-0.000105081351
0.000470562401
-0.000136227194
0.000560393216
-0.000172552607
0.000663478708
-0.000214712238
0.000781282344
-0.000263368273
0.000915319009
-0.00031922951
0.00106700301
-0.000382886075
0.00123764761
-0.000454943016
0.00142824081
-0.000535699945
0.00163958749
-0.000625733024
0.00187250238
-0.000725243075
0.00212797022
-0.000835074424
0.00240687284
-0.000955411578
0.00270987854
-0.00108684673
0.00303860185
-0.00123109792
0.00339204599
-0.00137979443
0.00376204431
-0.00153293136
0.00414182469
-0.00170505922
0.00455885096
-0.00190125792
0.00498177336
-0.00207762764
0.00534702674
-0.00226844509
0.00570876228
-0.0024766676
0.00611441241
-0.00262013963
0.00643121341
-0.00272336572
0.00659148234
-0.00284528508
0.00673592465
-0.0029827193
0.0069168483
-0.00310254796
0.00706771946
-0.00320311053
-0.00329887583
0.00716578843
-1.86622382e-08
3.53268274e-07
-8.35472702e-08
1.11459659e-06
-2.03480392e-07
1.95450397e-06
-3.85473058e-07
2.87097786e-06
-6.34819247e-07
3.86015765e-06
-9.5524232e-07
4.91718519e-06
-1.34900687e-06
6.03673771e-06
-1.81700361e-06
7.21372643e-06
-2.35906114e-06
8.44358312e-06
-2.97416617e-06
9.72247271e-06
-3.660295e-06
1.10469043e-05
-4.41437907e-06
1.24137474e-05
-5.23221107e-06
1.38199981e-05
-6.10831277e-06
1.52625505e-05
-7.03575963e-06
1.67379748e-05
-8.00596474e-06
1.82423118e-05
-9.00844104e-06
1.97709088e-05
-1.0030518e-05
2.1318256e-05
-1.10570136e-05
2.2877826e-05
-1.20698074e-05
2.44418818e-05
-1.30474167e-05
2.60013852e-05
-1.39645092e-05
2.75458247e-05
-1.47910199e-05
2.90626705e-05
-1.54924855e-05
3.05384341e-05
-1.60300469e-05
3.19582067e-05
-1.63608085e-05
3.33060459e-05
-1.64360212e-05
3.45611295e-05
-1.61943584e-05
3.56948303e-05
-1.55627584e-05
3.66787537e-05
-1.44531954e-05
3.74799555e-05
-1.27564993e-05
3.80581535e-05
-1.03560934e-05
3.83680799e-05
-7.11669963e-06
3.83559543e-05
-2.88258904e-06
3.79568384e-05
2.52477122e-06
3.7094442e-05
9.29075064e-06
3.5704931e-05
1.76237621e-05
3.3695542e-05
2.77536024e-05
3.09646356e-05
3.9965099e-05
2.73843679e-05
5.45439924e-05
2.28538094e-05
7.16680324e-05
1.73712029e-05
9.18737314e-05
1.04334906e-05
0.000115656792
1.98092668e-06
0.000143601209
-8.06914794e-06
0.00017637207
-2.03742389e-05
0.000214747669
-3.51111611e-05
0.000259763985
-5.26210262e-05
0.000312172227
-7.33277591e-05
0.000372969555
-9.7706044e-05
0.000443256875
-0.000126259765
0.000524274043
-0.000159528989
0.000617328038
-0.000198125572
0.000723812584
-0.000242701788
0.000845146828
-0.000293876827
0.000982738318
-0.000352293759
0.0011379416
-0.000418561689
0.00131195606
-0.000493234291
0.00150567739
-0.000576598001
0.00171981551
-0.000669072638
0.00195484223
-0.000770719583
0.00221117721
-0.000882062352
0.00248892285
-0.00100298447
0.0027882528
-0.0011344016
0.00310794052
-0.00127509801
0.00344727044
-0.00142617696
0.00380342586
-0.00158725533
0.00417552476
-0.00175189709
0.00456187417
-0.00191928642
0.00494068381
-0.00208387607
0.0052945872
-0.00225516983
0.00562585066
-0.00240890053
0.00589417604
-0.00253678129
0.00607410284
-0.00265660735
0.00623659345
-0.00278264199
0.00641127668
-0.00289805728
0.00656439966
-0.00299841645
0.00668602548
-0.0031043493
0.00679033004
-0.00320685014
0.0068955471
-0.00330831557
-0.003405214
0.00700190656
-1.77198667e-08
3.71213193e-07
-7.78781822e-08
1.17507033e-06
-1.87205846e-07
2.06419204e-06
-3.50576027e-07
3.03475035e-06
-5.7104428e-07
4.08106815e-06
-8.49985637e-07
5.19660839e-06
-1.18736533e-06
6.37463987e-06
-1.58160777e-06
7.60853397e-06
-2.02977872e-06
8.89236453e-06
-2.52768339e-06
1.02210364e-05
-3.07006059e-06
1.15899928e-05
-3.65029957e-06
1.2994754e-05
-4.26031491e-06
1.4430842e-05
-4.89037146e-06
1.58935013e-05
-5.52886279e-06
1.73774312e-05
-6.16203782e-06
1.88765283e-05
-6.77364639e-06
2.03836411e-05
-7.34455887e-06
2.18903805e-05
-7.8524266e-06
2.33870012e-05
-8.27130116e-06
2.48621667e-05
-8.57177933e-06
2.63033809e-05
-8.72068711e-06
2.76963646e-05
-8.67745167e-06
2.90211935e-05
-8.39481952e-06
3.02576924e-05
-7.81715206e-06
3.13825653e-05
-6.87744218e-06
3.23685145e-05
-5.49788146e-06
3.31839153e-05
-3.59370826e-06
3.37931748e-05
-1.0646625e-06
3.41524067e-05
2.20820332e-06
3.4209991e-05
6.36441751e-06
3.39050563e-05
1.15520944e-05
3.31837394e-05
1.79405716e-05
3.19710468e-05
2.57175808e-05
3.01836444e-05
3.50895169e-05
2.77265778e-05
4.63147801e-05
2.44840055e-05
5.96581551e-05
2.03567894e-05
7.52995769e-05
1.53281386e-05
9.37205649e-05
8.96854505e-06
0.000115367377
1.21239995e-06
0.000140766278
-8.02194387e-06
0.000170522718
-1.93168169e-05
0.000205342368
-3.28322502e-05
0.00024615886
-4.88788203e-05
0.000293638512
-6.7846732e-05
0.000348689714
-9.01548561e-05
0.000412340575
-0.000116264045
0.000485698895
-0.000146677888
0.0005699616
-0.000181960216
0.000666389892
-0.000222679233
0.000776308196
-0.000269438289
0.000901060346
-0.000322868582
0.00104195944
-0.000383591689
0.00120026912
-0.0004521773
0.00137711343
-0.000529128884
0.00157322946
-0.000614668646
0.00178905034
-0.000709046772
0.00202468833
-0.000812228729
0.00227992186
-0.000924300046
0.00255442488
-0.0010452176
0.00284746934
-0.00117510295
0.0031570692
-0.0013125816
0.00348144586
-0.00145877676
0.00381547365
-0.00160912559
0.00415867237
-0.00176937688
0.00450297656
-0.0019315622
0.00483751027
-0.00208643484
0.00514728954
-0.00222907095
0.00541712196
-0.002353715
0.00562653575
-0.00246459283
0.00579497092
-0.00257734802
0.00594403521
-0.00268585732
0.00607186923
-0.00278445247
0.00617865377
-0.00288944012
0.00627629657
-0.00299571107
0.00636931161
-0.00309143923
0.00645813378
-0.00319317554
0.00654588335
-0.00329459785
0.00663905161
-0.00340147406
-0.00349984428
0.00673369888
-2.07139233e-08
3.92140848e-07
-8.76430721e-08
1.24229978e-06
-2.05303521e-07
2.1821961e-06
-3.76206501e-07
3.20603721e-06
-6.0088594e-07
4.30616972e-06
-8.7800771e-07
5.47418995e-06
-1.2045027e-06
6.70163307e-06
-1.57584331e-06
7.98041323e-06
-1.98587808e-06
9.30298108e-06
-2.42653755e-06
1.06623235e-05
-2.88838011e-06
1.20525123e-05
-3.36018363e-06
1.34672875e-05
-3.82873653e-06
1.49001821e-05
-4.27859261e-06
1.63442062e-05
-4.69177277e-06
1.77915264e-05
-5.04746922e-06
1.92332116e-05
-5.32164193e-06
2.06588781e-05
-5.48654802e-06
2.2056432e-05
-5.50992718e-06
2.34116127e-05
-5.35366851e-06
2.47072348e-05
-4.97344206e-06
2.59245829e-05
-4.31762993e-06
2.70420895e-05
-3.32994281e-06
2.80351593e-05
-1.94370651e-06
2.88732327e-05
-8.05265987e-08
2.95212958e-05
2.35211452e-06
2.99379314e-05
5.46133157e-06
3.00769137e-05
9.36484462e-06
2.98920412e-05
1.41954438e-05
2.93243629e-05
2.01025689e-05
2.83056084e-05
2.72528202e-05
2.67577459e-05
3.58476886e-05
2.45920222e-05
4.6120798e-05
2.17013087e-05
5.83162925e-05
1.79917603e-05
7.26194325e-05
1.34273042e-05
8.9454604e-05
7.65291883e-06
0.000109229444
5.86253015e-07
0.000132415089
-7.85289264e-06
0.000159555967
-1.81673865e-05
0.000191280533
-3.05069023e-05
0.000228421261
-4.51570838e-05
0.000271579918
-6.24695518e-05
0.00032157727
-8.2823338e-05
0.000379341061
-0.000106635997
0.000445862388
-0.000134361087
0.000522215333
-0.000166500449
0.000609550223
-0.000203591245
0.00070907197
-0.000246191655
0.000822011694
-0.000294891718
0.000949632519
-0.000350291623
0.00109316444
-0.000412961628
0.00125370965
-0.000483405059
0.00143217431
-0.000562047492
0.0016290075
-0.000649001537
0.00184429326
-0.000744406142
0.00207783481
-0.000848202578
0.00232902728
-0.000960232515
0.00259699299
-0.00108018858
0.00287987349
-0.00120717553
0.00317571138
-0.00134105132
0.00348168728
-0.00148107557
0.00379383131
-0.00162472328
0.00410864594
-0.00177359007
0.00441860791
-0.00191908733
0.00470511193
-0.00205588172
0.00495484697
-0.00218129916
0.00516369443
-0.00229528587
0.00533138984
-0.00239677195
0.00547641987
-0.002498751
0.00560589494
-0.00259407492
0.00571794502
-0.002689409
0.00582159245
-0.00278951687
0.00591979857
-0.00288266772
0.00600284074
-0.00297249122
0.00607715479
-0.00307003385
0.0061519035
-0.00316619437
0.00622938435
-0.00327065842
0.00631659208
-0.00338180298
0.00641665197
-0.00350152399
-0.00359831637
0.00651513906
-2.54266699e-08
4.1776645e-07
-1.04026214e-07
1.32117835e-06
-2.37822645e-07
2.31631145e-06
-4.26558947e-07
3.39512956e-06
-6.67748648e-07
4.54775086e-06
-9.56771982e-07
5.76363968e-06
-1.28698122e-06
7.03230438e-06
-1.64975961e-06
8.34369116e-06
-2.03459696e-06
9.6883584e-06
-2.42898721e-06
1.10572971e-05
-2.81779363e-06
1.24419484e-05
-3.18351789e-06
1.38336915e-05
-3.50599328e-06
1.52233915e-05
-3.76210545e-06
1.66011109e-05
-3.92517521e-06
1.79554505e-05
-3.96428924e-06
1.92732477e-05
-3.84334082e-06
2.05389262e-05
-3.52154308e-06
2.17357082e-05
-2.95239523e-06
2.28436209e-05
-2.08252572e-06
2.38386107e-05
-8.49230001e-07
2.46926314e-05
8.21419895e-07
2.53728903e-05
3.01228742e-06
2.58458545e-05
5.81703783e-06
2.60701649e-05
9.34175444e-06
2.59983909e-05
1.37056873e-05
2.5575948e-05
1.90443619e-05
2.47403354e-05
2.55185202e-05
2.34201357e-05
3.33129114e-05
2.15323914e-05
4.26428847e-05
1.89782304e-05
5.37388255e-05
1.56645917e-05
6.67830637e-05
1.15507766e-05
8.21514249e-05
6.33612334e-06
0.00010020825
-6.17013733e-08
0.000121376692
-7.73752413e-06
0.000146139697
-1.71061989e-05
0.000175053643
-2.83235426e-05
0.00020885294
-4.1647763e-05
0.000248085533
-5.73952661e-05
0.000293485329
-7.5901687e-05
0.00034587623
-9.75426665e-05
0.00040614467
-0.000122732351
0.000475250477
-0.000151923169
0.000554223578
-0.000185602793
0.000644153985
-0.000224284897
0.000746170421
-0.000268510014
0.000861414238
-0.000318827945
0.000991009519
-0.000375779591
0.00113599552
-0.000439870183
0.00129724444
-0.000511532837
0.00147538476
-0.000591094043
0.00167061151
-0.00067862369
0.00188267202
-0.000774100094
0.00211090219
-0.000877224452
0.00235414247
-0.000987639821
0.00261105996
-0.00110511408
0.002879673
-0.00122884016
0.00315761276
-0.0013581235
0.00344064495
-0.00149020346
0.00372564808
-0.00162605079
0.00400781747
-0.00176324195
0.00427877945
-0.00189568309
0.0045223021
-0.00201711139
0.00473185926
-0.00212864395
0.0049015774
-0.0022256003
0.00504192252
-0.00232164582
0.00516155688
-0.00241492242
0.00526707342
-0.00250229186
0.0053639349
-0.00259561871
0.00545628904
-0.00268643583
0.00553984251
-0.00277296837
0.00561653671
-0.00286621834
0.0056908388
-0.00295697681
0.00576589098
-0.00304755007
0.00584939327
-0.00315354232
0.00593787943
-0.00325468428
0.00602507798
-0.00335785663
0.00611947833
-0.0034761986
0.00622273002
-0.00360476424
-0.00370711294
0.00633154247
-2.91679158e-08
4.47135954e-07
-1.15996707e-07
1.40829117e-06
-2.59417678e-07
2.46005789e-06
-4.55744314e-07
3.59181996e-06
-6.98691977e-07
4.79109847e-06
-9.79452539e-07
6.04483566e-06
-1.28674886e-06
7.34007208e-06
-1.6068264e-06
8.66427748e-06
-1.92336783e-06
1.00054486e-05
-2.21746489e-06
1.13519855e-05
-2.46695345e-06
1.26920736e-05
-2.6462723e-06
1.40136964e-05
-2.72602677e-06
1.53038855e-05
-2.67261241e-06
1.65484928e-05
-2.44745105e-06
1.77311453e-05
-2.00644549e-06
1.88331637e-05
-1.29893734e-06
1.98324111e-05
-2.66386774e-07
2.07042264e-05
1.15814961e-06
2.14202345e-05
3.05063551e-06
2.19473623e-05
5.49679485e-06
2.2247804e-05
8.59334143e-06
2.22777771e-05
1.24534082e-05
2.19873298e-05
1.720613e-05
2.13191014e-05
2.29992832e-05
2.0207021e-05
3.00017801e-05
1.85753682e-05
3.84095883e-05
1.63345868e-05
4.8435364e-05
1.33965751e-05
6.02582331e-05
9.7119065e-06
7.42116393e-05
5.02736478e-06
9.06216479e-05
-7.42713483e-07
0.00010986506
-7.68972198e-06
0.000132368265
-1.61639375e-05
0.000158625417
-2.63154807e-05
0.000189276143
-3.83846358e-05
0.000224822502
-5.26486887e-05
0.000265912997
-6.94098997e-05
0.000313277082
-8.90074267e-05
0.000367699703
-0.00011181317
0.000430036886
-0.000138233836
0.000501208703
-0.000168709132
0.000582184786
-0.000203702778
0.000673970101
-0.000243702539
0.00077758345
-0.000289209916
0.000894028991
-0.000340723947
0.00102424838
-0.000398722665
0.00116906574
-0.00046363833
0.00132911943
-0.000535826097
0.00150476209
-0.000615505422
0.00169593264
-0.000702695705
0.00190206778
-0.000797221529
0.00212215757
-0.000898706266
0.00235466977
-0.00100660561
0.00259773241
-0.00112028088
0.00284872777
-0.00123862941
0.00310469558
-0.00136107651
0.00336183504
-0.00148597461
0.00361750463
-0.00161378844
0.00386600901
-0.00173870361
0.00409707796
-0.00185711612
0.00429975458
-0.00196591562
0.00447056553
-0.00206649148
0.00460885096
-0.0021553946
0.00472427502
-0.00224406665
0.00482846739
-0.00232979208
0.00492407149
-0.00241725001
0.00501286156
-0.0025037134
0.00509541756
-0.00258484961
0.00517009852
-0.0026703025
0.00523924909
-0.00275558989
0.00530672065
-0.00284044359
0.00537443105
-0.00293393362
0.00544624523
-0.00302879547
0.00552399113
-0.00312529974
0.00560891548
-0.00323846923
0.00570707916
-0.00335284865
0.00580944385
-0.00346021859
0.00590980684
-0.00357655444
0.00601058415
-0.00370552934
-0.00381393264
0.00611741852
-2.8904545e-08
4.76228179e-07
-1.11708204e-07
1.49136019e-06
-2.43555971e-07
2.59221043e-06
-4.16446031e-07
3.76505122e-06
-6.19293105e-07
4.99432122e-06
-8.37974127e-07
6.26392626e-06
-1.05535697e-06
7.55789898e-06
-1.25114244e-06
8.86054302e-06
-1.40162314e-06
1.0156448e-05
-1.47932414e-06
1.14302466e-05
-1.45297936e-06
1.26663332e-05
-1.28656452e-06
1.38479342e-05
-9.38673973e-07
1.49566999e-05
-3.61778781e-07
1.59723582e-05
4.98243289e-07
1.68719442e-05
1.70312785e-06
1.7629165e-05
3.3225994e-06
1.8213895e-05
5.43679773e-06
1.85910582e-05
8.13703069e-06
1.87211128e-05
1.15274782e-05
1.85581131e-05
1.57267657e-05
1.80498081e-05
2.08699669e-05
1.71359672e-05
2.71112696e-05
1.57475257e-05
3.46272656e-05
1.38047178e-05
4.36114986e-05
1.12245247e-05
5.42399617e-05
7.94877654e-06
6.68065874e-05
3.76996044e-06
8.16059691e-05
-1.40067385e-06
9.89700723e-05
-7.6498963e-06
0.000119276229
-1.52763095e-05
0.00014295656
-2.44203787e-05
0.000170569951
-3.53002519e-05
0.000202570742
-4.8161662e-05
0.000239535907
-6.32773607e-05
0.0002821046
-8.09498146e-05
0.000330971329
-0.00010151166
0.00038689141
-0.000125325964
0.000450674605
-0.000152786339
0.000523175674
-0.000184309697
0.000605280964
-0.000220334331
0.000697890566
-0.00026131369
0.000801895635
-0.000307702561
0.000918141175
-0.000359942561
0.00104738023
-0.00041844323
0.00119022057
-0.000483558344
0.00134705992
-0.000555555876
0.00151800693
-0.000634579013
0.00170279681
-0.000720609412
0.0019006061
-0.000813308049
0.00211012676
-0.000912209948
0.00232954713
-0.00101663587
0.002556678
-0.00112583147
0.00278874897
-0.00123867122
0.00302253094
-0.00135405775
0.0032540671
-0.00147016066
0.00348021985
-0.00158722449
0.00369600153
-0.00170175183
0.00389165379
-0.00180943673
0.00406231345
-0.00190935959
0.00420413612
-0.0019989351
0.00431948437
-0.00208126011
0.0044167136
-0.0021637177
0.00450584209
-0.00224452074
0.00458791445
-0.00232613661
0.00466549243
-0.00240736834
0.00473440444
-0.00248616107
0.00479876518
-0.00256807371
0.00486118604
-0.00264727085
0.00492104191
-0.00273015943
0.00498354247
-0.00281809226
0.00505083479
-0.00290773817
0.00512033927
-0.00300344066
0.00519527859
-0.003103737
0.00527496741
-0.00320499017
0.00535084847
-0.00331435038
0.00543601042
-0.00343800881
0.00553291636
-0.00355711969
0.00562509188
-0.0036687216
0.00570668211
-0.00378710356
-0.00390396592
0.00579673477
-2.31731353e-08
4.99607661e-07
-8.4833869e-08
1.5533134e-06
-1.75238724e-07
2.68295154e-06
-2.80898476e-07
3.87108741e-06
-3.84619882e-07
5.09845692e-06
-4.65481077e-07
6.34523871e-06
-4.98738359e-07
7.5916447e-06
-4.55570075e-07
8.81790174e-06
-3.02722538e-07
1.00041685e-05
-1.99195735e-09
1.11301279e-05
4.90389213e-07
1.21746105e-05
1.22421959e-06
1.31148124e-05
2.25607102e-06
1.39256109e-05
3.65040698e-06
1.45788426e-05
5.4804953e-06
1.50427379e-05
7.83021184e-06
1.52803966e-05
1.07945429e-05
1.5250584e-05
1.44815765e-05
1.4905122e-05
1.90141202e-05
1.4189749e-05
2.45312623e-05
1.30422393e-05
3.11912038e-05
1.13912293e-05
3.91703395e-05
9.15829704e-06
4.8637033e-05
6.28240938e-06
5.98504516e-05
2.59298429e-06
7.30718551e-05
-1.99508036e-06
8.85952102e-05
-7.57264064e-06
0.000106753338
-1.43860778e-05
0.000127926467
-2.25715585e-05
0.000152598346
-3.23193667e-05
0.000181176531
-4.38519105e-05
0.000214170001
-5.74110767e-05
0.000252138912
-7.32661941e-05
0.000295694056
-9.17136268e-05
0.000345496268
-0.000113076169
0.000402254596
-0.000137704504
0.000466718215
-0.000165971404
0.000539665391
-0.000198269035
0.000621888626
-0.000235005235
0.000714175443
-0.000276591944
0.00081727928
-0.00032343337
0.000931881188
-0.000375910579
0.00105854652
-0.000434362658
0.00119767353
-0.000499064147
0.00134943476
-0.000570198841
0.00151371105
-0.000647828847
0.00169001423
-0.000731853066
0.00187738735
-0.00082194591
0.0020743369
-0.000917552801
0.00227888958
-0.0010178549
0.00248864544
-0.00112196029
0.00270076022
-0.00122874541
0.00291189697
-0.0013369632
0.00311838867
-0.00144515802
0.0033165281
-0.00155219234
0.00350278508
-0.00165641304
0.00366913118
-0.00175356634
0.00381095145
-0.0018435681
0.00392606672
-0.00192454747
0.00402067439
-0.00200396177
0.00410466243
-0.00208291839
0.00418309608
-0.00215968965
0.00425699251
-0.00223761022
0.00432491687
-0.00231244166
0.00438740957
-0.00238862595
0.00444450746
-0.0024644634
0.00450037105
-0.0025420221
0.00455659066
-0.00262429148
0.00461445398
-0.00270513331
0.00467320601
-0.0027889111
0.0047359473
-0.00288083373
0.00480259791
-0.00297438925
0.00487071831
-0.00307156168
0.00494147197
-0.00317449075
0.00501589338
-0.00327941081
0.00508859446
-0.00338704887
0.00515732783
-0.00350673742
0.00523552897
-0.00363531355
0.00532344093
-0.00375662333
0.00540517958
-0.00386882611
-0.00398357715
0.00548481156
-1.12975723e-08
5.11111543e-07
-3.23770708e-08
1.5746869e-06
-4.71140856e-08
2.69802781e-06
-3.49070938e-08
3.85926122e-06
2.93232217e-08
5.0346466e-06
1.75252005e-07
6.19976831e-06
4.37419189e-07
7.32997478e-06
8.5552144e-07
8.40033729e-06
1.47489353e-06
9.3853772e-06
2.34708524e-06
1.02585629e-05
3.53073598e-06
1.0991636e-05
5.09247077e-06
1.15538071e-05
7.10777928e-06
1.19110888e-05
9.66295806e-06
1.20245114e-05
1.28555554e-05
1.1851055e-05
1.67961349e-05
1.13408036e-05
2.16096477e-05
1.04381348e-05
2.74372094e-05
9.07870605e-06
3.44380754e-05
7.19011828e-06
4.27704173e-05
4.71122958e-06
5.26598002e-05
1.50327433e-06
6.43373067e-05
-2.51768094e-06
7.80623898e-05
-7.44102453e-06
9.4128665e-05
-1.34715113e-05
0.000112869578
-2.07340797e-05
0.000134698718
-2.9399725e-05
0.000159980385
-3.96655362e-05
0.000189158602
-5.1747406e-05
0.000222725609
-6.58838336e-05
0.000261213944
-8.23375243e-05
0.000305200193
-0.000101394411
0.000355302815
-0.000123365699
0.000412175718
-0.000148583206
0.000476499554
-0.000177396477
0.000548969602
-0.000210170821
0.00063027988
-0.000247277746
0.00072110042
-0.000289085436
0.000822045664
-0.000335946142
0.000933638914
-0.000388180669
0.00105626994
-0.000446059687
0.00119014638
-0.000509782153
0.00133523983
-0.000579451087
0.00149122823
-0.000655047386
0.00165743652
-0.000736401843
0.00183277434
-0.000823161228
0.00201565497
-0.000914728182
0.00220400556
-0.00101029114
0.0023953295
-0.00110887169
0.00258686047
-0.00120938107
0.00277547074
-0.00131056598
0.00295766717
-0.0014109374
0.00312979532
-0.00150908698
0.0032885787
-0.00160393709
0.00343038982
-0.00169399935
0.00355189588
-0.00177791467
0.00365286561
-0.00185453085
0.00373859903
-0.00192929683
0.00381637192
-0.00200231617
0.00388611652
-0.00207370181
0.0039477443
-0.00214454203
0.00400316098
-0.00221510209
0.00405352597
-0.00228797109
0.00410421729
-0.00236312838
0.00415474002
-0.00243914412
0.00420517214
-0.00251489213
0.00425878611
-0.00259563294
0.00431362845
-0.00267913126
0.00437345601
-0.00276495892
0.00443678265
-0.0028522363
0.00450120452
-0.00294525464
0.00456727961
-0.0030404635
0.00463312179
-0.00313740289
0.00469902164
-0.00324038875
0.00476686318
-0.00334724967
0.00483584721
-0.00345602864
0.00489830782
-0.00356919144
0.00494740382
-0.00368439824
0.00500102188
-0.00381022255
0.00506780855
-0.0039355875
-0.00405672801
0.00514098641
7.41524436e-09
5.03931035e-07
4.85611731e-08
1.5338754e-06
1.47638468e-07
2.59933629e-06
3.34177789e-07
3.67315469e-06
6.4310232e-07
4.72619889e-06
1.11491799e-06
5.7284723e-06
1.79608178e-06
6.64937386e-06
2.73953688e-06
7.45748986e-06
4.00540532e-06
8.12016371e-06
5.66183987e-06
8.60283366e-06
7.78585343e-06
8.86838111e-06
1.0465117e-05
8.87535928e-06
1.37983641e-05
8.57871984e-06
1.78970777e-05
7.92674289e-06
2.28873195e-05
6.86182933e-06
2.89109414e-05
5.31827505e-06
3.61141895e-05
3.23606361e-06
4.46916502e-05
5.02505846e-07
5.48463741e-05
-2.96325702e-06
6.68067197e-05
-7.24766375e-06
8.0830481e-05
-1.25189231e-05
9.72071628e-05
-1.88926833e-05
0.000116289458
-2.65215168e-05
0.000138399093
-3.55792122e-05
0.000163924108
-4.62570205e-05
0.000193292782
-5.87661754e-05
0.000226968623
-7.3338996e-05
0.000265452207
-9.02284399e-05
0.000309280367
-0.000109709264
0.000359021631
-0.000132075874
0.000415269378
-0.00015763906
0.000478632056
-0.00018672509
0.000549720449
-0.000219668122
0.00062913022
-0.000256802579
0.000717416379
-0.00029845312
0.000815064693
-0.000344922011
0.000922457287
-0.000396473799
0.00103983294
-0.000453317387
0.00116724231
-0.00051558547
0.00130449974
-0.000583312389
0.00145113304
-0.000656410593
0.00160633466
-0.00073464772
0.00176891785
-0.00081762547
0.00193728065
-0.000904759382
0.00210935598
-0.000995231271
0.00228266501
-0.00108803211
0.00245445061
-0.00118207189
0.00262184364
-0.00127626008
0.00278173734
-0.0013692703
0.00293144761
-0.00146027192
0.00306806564
-0.00154755119
0.0031893962
-0.00163041329
0.00329358419
-0.0017081207
0.00338081107
-0.00178122151
0.00345391487
-0.00185101416
0.00351911672
-0.00191972855