/*--------------------------------*- C++ -*----------------------------------*\
  =========                 |
  \\      /  F ield         | OpenFOAM: The Open Source CFD Toolbox
   \\    /   O peration     | Website:  https://openfoam.org
    \\  /    A nd           | Version:  8
     \\/     M anipulation  |
\*---------------------------------------------------------------------------*/
FoamFile
{
    version     2.0;
    format      ascii;
    class       volScalarField;
    location    "0.039";
    object      T;
}
// * * * * * * * * * * * * * * * * * * * * * * * * * * * * * * * * * * * * * //

dimensions      [0 0 0 1 0 0 0];

internalField   nonuniform List<scalar> 
42400
(
472.225382
470.658676
469.050116
467.398268
465.701714
463.959069
462.168992
460.330211
458.441536
456.501889
454.510321
452.466048
450.368478
448.217249
446.01227
443.75376
441.442299
439.078879
436.664957
434.202515
431.694119
429.142979
426.553009
423.928893
421.276129
418.601092
415.911063
413.214267
410.51988
407.838031
405.179768
402.557009
399.98246
397.4695
395.032039
392.684328
390.440748
388.315596
386.322848
384.475894
382.787212
381.268128
379.928548
378.776715
377.819081
377.060208
376.502681
376.147084
375.995161
376.038071
376.272371
376.690473
377.281132
378.029554
378.918961
379.927957
381.02844
382.176693
383.329746
384.468325
385.643225
386.414643
386.738641
386.597678
385.906259
384.966361
383.697671
382.019352
379.763599
376.903148
373.22191
369.045563
364.847915
359.48178
353.155438
347.629364
341.509973
334.782137
326.242742
321.425484
472.259547
470.761975
469.224484
467.645771
466.024559
464.359611
462.649747
460.893865
459.090959
457.240142
455.340677
453.391998
451.393751
449.345823
447.248383
445.10193
442.907331
440.665882
438.379351
436.05004
433.680839
431.275284
428.837614
426.372825
423.886719
421.385947
418.878043
416.371447
413.875512
411.400492
408.957512
406.558512
404.216158
401.943737
399.75502
397.664115
395.685262
393.832589
392.119827
390.559972
389.164944
387.945324
386.910032
386.066037
385.418092
384.968309
384.715966
384.657915
384.785986
385.093524
385.562574
386.175281
386.906091
387.718575
388.573997
389.445436
390.33667
391.018523
391.333342
391.243965
390.594424
389.718224
388.549053
387.01318
384.989792
382.400036
379.251308
375.496736
371.13251
366.261128
360.675088
354.559598
348.757364
342.692308
335.898019
329.147309
323.319123
317.296096
311.813304
306.756729
472.303128
470.893733
469.44686
467.961359
466.436113
464.870059
463.262202
461.611638
459.917572
458.179345
456.396458
454.568603
452.695694
450.777903
448.815699
446.809892
444.761678
442.672686
440.545032
438.381368
436.184939
433.959635
431.710042
429.441488
427.160092
424.872791
422.587371
420.312478
418.057607
415.833087
413.650037
411.52031
409.456394
407.471288
405.578333
403.790996
402.122593
400.585974
399.193158
397.954996
396.880776
395.977822
395.250975
394.70228
394.331119
394.132636
394.097622
394.209576
394.458725
394.810442
395.234292
395.704633
396.211993
396.597655
396.719464
396.55664
395.922567
395.004795
393.841357
392.360706
390.488584
388.082797
385.11526
381.579902
377.497174
372.896266
367.857362
362.384994
356.472882
350.277291
343.853306
337.171782
330.747891
324.814808
319.087064
313.625533
308.879285
304.792095
301.603643
300.288683
472.352877
471.044134
469.700689
468.321557
466.9058
465.452546
463.961006
462.430496
460.860459
459.250488
457.600353
455.91003
454.179734
452.409952
450.601485
448.755486
446.873506
444.957537
443.010064
441.034109
439.033282
437.011826
434.974661
432.927419
430.876478
428.82898
426.792844
424.776766
422.790186
420.843243
418.946696
417.111813
415.350211
413.673654
412.093801
410.621888
409.268413
408.042736
406.952643
406.003864
405.199648
404.540617
404.023418
403.640324
403.378998
403.222184
403.14973
403.142258
403.18775
403.132559
402.91306
402.465063
401.696996
400.688704
399.47338
397.986273
396.156929
393.877214
391.089945
387.772464
383.917553
379.550523
374.712303
369.446524
363.803263
357.850413
351.716104
345.463477
339.117737
332.780035
326.672922
320.844375
315.45071
310.669031
306.729423
303.421079
300.920524
300.069751
299.897845
299.859155
472.405032
471.201807
469.966794
468.699181
467.398222
466.063246
464.693686
463.289091
461.849155
460.373736
458.862887
457.316878
455.736235
454.121768
452.474609
450.796248
449.088577
447.353927
445.595111
443.815459
442.018864
440.209806
438.39339
436.575357
434.762098
432.960645
431.178645
429.424319
427.706373
426.033897
424.416214
422.862679
421.38245
419.984205
418.675804
417.463894
416.353473
415.347429
414.446257
413.647175
412.944205
412.32889
411.789791
411.314911
410.835086
410.303696
409.672439
408.883915
407.867871
406.724531
405.401069
403.842993
401.990299
399.756572
397.084773
393.944531
390.316861
386.200493
381.613423
376.597669
371.211725
365.50799
359.536698
353.375591
347.091533
340.787828
334.593948
328.61425
322.923888
317.612725
312.819433
308.696318
305.331752
302.69505
300.717868
300.076044
299.92753
299.888441
299.871861
299.871971
472.45541
471.354114
470.223858
469.064014
467.874023
466.653424
465.401864
464.119125
462.805139
461.460019
460.084075
458.677846
457.242126
455.777997
454.286851
452.770432
451.23086
449.670663
448.092808
446.500718
444.898297
443.289936
441.680513
440.075376
438.480316
436.901508
435.345431
433.818758
432.328209
430.880374
429.481489
428.137166
426.852099
425.629707
424.471769
423.378193
422.346534
421.371932
420.442627
419.536583
418.628893
417.689501
416.68233
415.56507
414.352991
413.022523
411.535027
409.847921
407.910661
405.650893
403.030353
400.016183
396.582707
392.715403
388.412461
383.686137
378.567005
373.103972
367.368888
361.415122
355.301019
349.101131
342.882706
336.744728
330.774441
325.077461
319.758945
314.931142
310.686921
307.136372
304.301528
302.216445
300.694963
300.043681
299.911098
299.878298
299.86873
299.865491
299.858565
299.853806
472.499422
471.487186
470.448488
469.382868
468.289949
467.169452
466.021215
464.845213
463.641571
462.410591
461.152768
459.868812
458.559671
457.226552
455.87094
454.494621
453.099692
451.688582
450.264047
448.829179
447.387387
445.942372
444.498087
443.058676
441.628383
440.211446
438.811956
437.433676
436.079844
434.752922
433.454304
432.184002
430.940356
429.719622
428.515595
427.316465
426.106831
424.867988
423.583432
422.240414
420.81696
419.287497
417.622267
415.785678
413.731697
411.420703
408.819899
405.897971
402.627784
398.988946
394.969196
390.56601
385.787647
380.654716
375.201509
369.473571
363.548843
357.484031
351.34413
345.192162
339.105653
333.175224
327.490679
322.140508
317.219056
312.819639
309.032102
305.936868
303.544222
301.829372
300.685034
300.065511
299.932319
299.894942
299.881716
299.874429
299.86321
299.850073
299.837419
299.825907
472.532319
471.586665
470.616446
469.621342
468.601116
467.555623
466.484828
465.388816
464.26781
463.122183
461.95247
460.759384
459.543824
458.306888
457.049873
455.774282
454.481818
453.174371
451.853999
450.52289
449.18332
447.837583
446.48791
445.136359
443.784688
442.434193
441.085522
439.73846
438.391695
437.042593
435.686922
434.318548
432.929193
431.508064
430.041596
428.516203
426.915357
425.218907
423.401991
421.435824
419.293418
416.946704
414.367478
411.528779
408.405423
404.975555
401.222118
397.134124
392.707903
387.948144
382.868722
377.493669
371.857841
366.008159
360.012518
353.932816
347.830712
341.775067
335.849755
330.133646
324.715867
319.681052
315.127656
311.130977
307.76581
305.065054
303.019994
301.580928
300.667287
300.143483
299.966343
299.915433
299.898562
299.883017
299.866883
299.849184
299.827264
299.811974
299.802564
299.796299
472.549769
471.639453
470.705611
469.748011
468.766485
467.76094
466.731365
465.677838
464.600535
463.499731
462.375808
461.229252
460.060655
458.870706
457.660183
456.429933
455.180851
453.913845
452.629788
451.329463
450.013484
448.682204
447.335597
445.973117
444.593521
443.194678
441.773295
440.324541
438.841835
437.317876
435.743608
434.108102
432.398402
430.599482
428.694319
426.664064
424.488256
422.145174
419.612372
416.867403
413.888782
410.656403
407.152296
403.361887
399.274984
394.886758
390.19869
385.219467
379.965926
374.463411
368.746507
362.860149
356.862016
350.825781
344.814769
338.894201
333.140708
327.641763
322.484628
317.752182
313.527876
309.877918
306.861146
304.481733
302.71072
301.480394
300.69897
300.255637
300.038132
299.959752
299.924706
299.898482
299.870149
299.840093
299.817393
299.803162
299.800318
299.798508
299.794663
299.793731
472.548997
471.637147
470.701772
469.742646
468.75959
467.752472
466.721208
465.665762
464.586145
463.482406
462.354625
461.202898
460.027316
458.827947
457.604815
456.357863
455.086904
453.791562
452.471185
451.124755
449.750761
448.347043
446.910597
445.437135
443.920643
442.355256
440.734416
439.05064
437.295442
435.457976
433.525873
431.485284
429.32098
427.016514
424.554494
421.916951
419.085803
416.04348
412.773396
409.260271
405.491176
401.456293
397.149718
392.570277
387.722356
382.616753
377.271522
371.712705
365.975191
360.102759
354.149509
348.183737
342.280455
336.509095
330.947539
325.677464
320.775553
316.325015
312.397763
309.052161
306.317531
304.182473
302.60228
301.502844
300.792766
300.369902
300.139431
300.02063
299.955775
299.910614
299.866323
299.833803
299.815495
299.809782
299.805191
299.80096
299.798926
299.797396
299.79381
299.790568
472.530598
471.581576
470.608116
469.609981
468.586949
467.538806
466.465339
465.366325
464.241525
463.090675
461.913468
460.709538
459.477622
458.216015
456.923306
455.598026
454.238361
452.842091
451.406515
449.928384
448.403841
446.828389
445.196873
443.503688
441.743131
439.907351
437.987025
435.971734
433.849961
431.609136
429.235739
426.715472
424.033503
421.174778
418.12444
414.868272
411.392801
407.686124
403.738516
399.543093
395.096522
390.399784
385.458961
380.286089
374.900038
369.327434
363.603411
357.772124
351.887108
346.01127
340.221005
334.595873
329.212501
324.150016
319.486294
315.293488
311.628524
308.531094
306.013244
304.054077
302.599601
301.575764
300.893943
300.463885
300.205003
300.052701
299.960703
299.898455
299.855182
299.825775
299.820238
299.817074
299.812919
299.809083
299.804724
299.797499
299.789816
299.785097
299.782509
299.781607
472.492977
471.467891
470.416355
469.338029
468.232538
467.099454
465.938276
464.748084
463.52757
462.275579
460.990729
459.671362
458.316322
456.924409
455.493563
454.021109
452.503924
450.938381
449.320299
447.644869
445.906581
444.0992
442.215707
440.248216
438.18798
436.025357
433.749834
431.350094
428.814123
426.129367
423.282943
420.26192
417.053685
413.646025
410.027701
406.188962
402.122095
397.822054
393.287145
388.519785
383.52732
378.322887
372.926307
367.364972
361.674695
355.900306
350.095748
344.323755
338.655187
333.16818
327.94719
323.06832
318.603682
314.616386
311.153445
308.243083
305.884329
304.043537
302.663647
301.672278
300.989468
300.537709
300.249918
300.07024
299.95861
299.890555
299.849708
299.829646
299.822521
299.820551
299.818604
299.815383
299.808577
299.799621
299.791439
299.78605
299.784156
299.781998
299.778223
299.775736
472.437619
471.300579
470.13406
468.937534
467.710375
466.45183
465.160488
463.835375
462.475535
461.079436
459.64528
458.170971
456.654081
455.091798
453.480876
451.817583
450.097657
448.316234
446.467837
444.546315
442.544788
440.45565
438.270548
435.980398
433.575413
431.045166
428.378691
425.56462
422.591372
419.447404
416.121392
412.602538
408.881027
404.948482
400.79851
396.427313
391.834387
387.023294
382.002504
376.786275
371.39555
365.858801
360.212755
354.502916
348.783745
343.11794
337.575124
332.229637
327.15872
322.437842
318.135621
314.305931
310.987988
308.198178
305.927063
304.141025
302.785327
301.793702
301.094263
300.617734
300.303553
300.102934
299.978676
299.904408
299.862176
299.839974
299.829156
299.824812
299.820716
299.814794
299.80684
299.800245
299.795243
299.792044
299.789663
299.785777
299.784264
299.784676
299.780666
299.777795
472.368956
471.093062
469.783973
468.440976
467.0632
465.649444
464.198647
462.709329
461.179739
459.607818
457.991162
456.326982
454.612066
452.842737
451.014801
449.123526
447.163589
445.129038
443.013276
440.809043
438.508411
436.1028
433.583013
430.939294
428.161425
425.238852
422.160867
418.916801
415.496214
411.889262
408.087086
404.082267
399.869361
395.445519
390.811193
385.970909
380.934113
375.716046
370.338605
364.831134
359.231045
353.584161
347.944668
342.374539
336.942201
331.719777
326.779882
322.191571
318.015809
314.298499
311.073033
308.35085
306.119967
304.346771
302.980703
301.962247
301.227869
300.71581
300.37126
300.147634
300.008253
299.925473
299.878702
299.853298
299.839339
299.829609
299.819793
299.811771
299.805745
299.800094
299.797126
299.793965
299.791559
299.790677
299.789907
299.788107
299.787478
299.789541
299.79252
299.789898
472.289944
470.854268
469.381144
467.869666
466.318711
464.726934
463.092857
461.414601
459.689948
457.916304
456.090659
454.209546
452.269011
450.264567
448.191164
446.043159
443.814296
441.497693
439.085842
436.570626
433.943349
431.194802
428.31535
425.295058
422.123863
418.791721
415.288887
411.606232
407.735625
403.670386
399.405825
394.939854
390.273686
385.412604
380.366777
375.152102
369.791008
364.313163
358.755985
353.164849
347.592878
342.100143
336.752187
331.617816
326.766075
322.261944
318.16183
314.508294
311.328592
308.63005
306.401427
304.612906
303.219279
302.165029
301.391694
300.842581
300.465855
300.216417
300.056593
299.958512
299.900097
299.865926
299.845462
299.832351
299.822859
299.81596
299.812353
299.809171
299.80417
299.800568
299.797267
299.793419
299.790183
299.787302
299.786844
299.789884
299.791787
299.791925
299.793694
299.806233
472.20247
470.589899
468.935177
467.237186
465.49455
463.705724
461.868828
459.981569
458.041254
456.044745
453.988426
451.868162
449.679274
447.416507
445.074012
442.645334
440.123412
437.500599
434.76869
431.918989
428.942391
425.82951
422.570828
419.156877
415.578503
411.827181
407.89539
403.77706
399.468104
394.967019
390.27557
385.399529
380.34946
375.141513
369.798165
364.348848
358.830367
353.287002
347.770168
342.337544
337.051581
331.977249
327.179075
322.717631
318.645854
315.005143
311.821637
309.103558
306.840327
305.003812
303.552496
302.437347
301.605309
301.00347
300.582374
300.297957
300.112645
299.996517
299.92538
299.882714
299.857195
299.841271
299.830223
299.822717
299.817537
299.814062
299.811405
299.808707
299.8044
299.800866
299.797613
299.794131
299.789474
299.787097
299.786208
299.788409
299.796131
299.794833
299.792582
299.80221
472.107697
470.303469
468.452002
466.552007
464.601912
462.599798
460.543366
458.42989
456.25618
454.018545
451.712763
449.334046
446.87703
444.335752
441.70366
438.973622
436.137964
433.188528
430.116755
426.913805
423.570704
420.07854
416.428708
412.613225
408.62509
404.458728
400.110501
395.579295
390.867173
385.980088
380.928627
375.72876
370.402526
364.97861
359.492697
353.987517
348.512461
343.122661
337.877443
332.838174
328.065645
323.616637
319.540682
315.876348
312.648527
309.866713
307.524411
305.598736
304.055223
302.850121
301.934215
301.2574
300.771976
300.434247
300.206336
300.057401
299.962627
299.902996
299.866269
299.844043
299.830603
299.822502
299.817606
299.813261
299.809309
299.805898
299.803593
299.802801
299.802441
299.801468
299.800709
299.801272
299.800618
299.794626
299.791067
299.789891
299.798813
299.800119
299.797725
299.800173
472.006642
469.998048
467.936781
465.821328
463.649828
461.420028
459.129234
456.774272
454.351454
451.856545
449.28474
446.630653
443.888315
441.051183
438.112177
435.063732
431.897878
428.606355
425.180755
421.612714
417.894147
414.01755
409.976347
405.765317
401.381084
396.822676
392.092148
387.195261
382.142184
376.948198
371.634346
366.227966
360.763028
355.280176
349.826373
344.454038
339.219608
334.181475
329.397337
324.921217
320.800611
317.072958
313.762826
310.88154
308.425712
306.37838
304.709962
303.38309
302.354369
301.578182
301.009536
300.605266
300.326114
300.138969
300.017501
299.941128
299.894343
299.86596
299.84827
299.835993
299.827002
299.820373
299.814997
299.81075
299.806597
299.803078
299.800016
299.798348
299.798248
299.798762
299.799846
299.80363
299.811547
299.814772
299.816274
299.816403
299.812938
299.8112
299.809053
299.805088
471.900156
469.6762
467.393824
465.05127
462.646383
460.176564
457.638726
455.02926
452.344003
449.578225
446.726621
443.783318
440.7419
437.595459
434.336668
430.957882
427.451279
423.809034
420.023547
416.08772
411.99529
407.741234
403.322228
398.737176
393.987801
389.079283
384.020922
378.826802
373.516407
368.115126
362.654594
357.172755
351.71359
346.326398
341.064558
335.98373
331.139511
326.584661
322.366094
318.522026
315.0793
312.051828
309.442274
307.240629
305.423595
303.958664
302.806239
301.922805
301.264137
300.78721
300.452035
300.223814
300.073435
299.97725
299.917336
299.880866
299.85907
299.84582
299.836839
299.8298
299.824409
299.820135
299.813203
299.806438
299.80155
299.798216
299.796729
299.79613
299.796055
299.796338
299.798227
299.802702
299.809438
299.816373
299.821697
299.827361
299.835473
299.836057
299.826835
299.817993
471.789261
469.341023
466.828369
464.249289
461.601331
458.881559
456.086515
453.212192
450.25402
447.206868
444.065057
440.822403
437.472276
434.007696
430.421452
426.706268
422.85501
418.860942
414.718039
410.421359
405.967476
401.354978
396.58502
391.66192
386.593795
381.393186
376.077653
370.670273
365.19999
359.701729
354.216207
348.789368
343.471374
338.315131
333.374327
328.701047
324.343106
320.341286
316.726981
313.520407
310.729247
308.347724
306.357127
304.729315
303.428877
302.414914
301.6441
301.073297
300.661857
300.373651
300.177349
300.047139
299.963214
299.909846
299.876293
299.855495
299.842682
299.834614
299.828972
299.825435
299.822493
299.819502
299.81456
299.808915
299.802533
299.798047
299.795346
299.795212
299.796416
299.797841
299.79929
299.802204
299.808551
299.815554
299.820282
299.822629
299.827804
299.839635
299.843262
299.847595
472.584996
471.745882
470.884907
470.001668
469.095755
468.166749
467.214229
466.237764
465.236919
464.211251
463.160309
462.083631
460.980746
459.851167
458.694387
457.509884
456.297105
455.055472
453.784369
452.48314
451.151081
449.787432
448.391367
446.961989
445.498314
443.999264
442.463656
440.890186
439.277418
437.623773
435.927513
434.186733
432.399346
430.563078
428.675455
426.733806
424.735259
422.676747
420.555022
418.366674
416.108159
413.775843
411.366055
408.875157
406.299633
403.636163
400.881755
398.033922
395.090933
392.0521
388.918037
385.691022
382.375443
378.978583
375.511405
371.989759
368.435164
364.875632
361.346551
357.891061
354.559383
351.406487
348.487449
345.850338
343.527452
341.527374
339.828131
338.384174
337.121376
335.961455
334.80686
333.627502
332.410696
331.166902
329.920348
328.690783
327.535274
326.449357
325.407393
324.414827
472.581045
471.733896
470.864588
469.972653
469.057615
468.118994
467.156303
466.169052
465.156741
464.118867
463.054919
461.964379
460.846717
459.701394
458.527854
457.325526
456.09382
454.832118
453.539778
452.21612
450.860426
449.47193
448.049809
446.593177
445.101073
443.57245
442.006164
440.40096
438.755461
437.068151
435.337368
433.561279
431.73788
429.864975
427.94017
425.960863
423.924246
421.827299
419.666802
417.439349
415.141368
412.76914
410.31886
407.786715
405.168997
402.462194
399.663125
396.769097
393.778219
390.689822
387.504904
384.226675
380.861149
377.418055
373.911912
370.362108
366.794203
363.241369
359.74499
356.354391
353.125119
350.115174
347.378787
344.957875
342.872193
341.110671
339.62755
338.345124
337.180538
336.050693
334.895673
333.691371
332.450212
331.206117
330.001288
328.868794
327.800617
326.740774
325.635883
324.47243
472.574608
471.714396
470.831589
469.925647
468.996027
468.042178
467.063543
466.059562
465.029668
463.973289
462.889848
461.77876
460.639432
459.471263
458.273638
457.045933
455.787505
454.497693
453.175815
451.821159
450.432984
449.010505
447.552895
446.05927
444.528681
442.960105
441.352432
439.704453
438.014844
436.282158
434.504802
432.68103
430.808923
428.886377
426.911094
424.880563
422.792053
420.64261
418.429058
416.148022
413.795944
411.369101
408.863632
406.275633
403.601286
400.837008
397.979652
395.026698
391.976639
388.829447
385.587207
382.254869
378.841132
375.359554
371.829774
368.27712
364.733108
361.237535
357.838365
354.590357
351.551787
348.778737
346.31689
344.19167
342.398858
340.899642
339.623597
338.482505
337.386521
336.267518
335.094698
333.87648
332.648188
331.451802
330.314237
329.226071
328.130247
326.969605
325.749171
324.540924
472.565701
471.687431
470.785998
469.86079
468.911189
467.936572
466.936308
465.909765
464.856303
463.775278
462.666039
461.527929
460.360287
459.162439
457.933706
456.673396
455.380806
454.055218
452.695896
451.302083
449.872993
448.407811
446.905682
445.365707
443.78693
442.168331
440.508816
438.807201
437.062203
435.272425
433.436343
431.552286
429.618424
427.632754
425.593087
423.497039
421.342018
419.125209
416.843572
414.49387
412.072695
409.576494
407.001593
404.34429
401.60098
398.768356
395.843661
392.825007
389.711846
386.505575
383.210313
379.833835
376.388661
372.893241
369.373132
365.86198
362.398605
359.029329
355.807129
352.788644
350.028974
347.574212
345.452426
343.665021
342.179161
340.930643
339.83291
338.794155
337.739169
336.627611
335.461452
334.276596
333.119638
332.018038
330.958382
329.888204
328.745354
327.535092
326.339462
325.233261
472.554266
471.652828
470.727526
469.777676
468.802583
467.80155
466.773873
465.718842
464.635744
463.523856
462.382452
461.2108
460.008157
458.773775
457.506898
456.206757
454.872577
453.503566
452.098919
450.657813
449.179402
447.662817
446.107153
444.51147
442.874783
441.196051
439.474172
437.707969
435.896184
434.037461
432.13034
430.17324
428.164447
426.102098
423.984178
421.808511
419.572755
417.274388
414.910697
412.478798
409.975671
407.398196
404.743207
402.007593
399.188448
396.283292
393.290389
390.209172
387.040826
383.789027
380.46084
377.067782
373.626974
370.162288
366.705303
363.29579
359.981435
356.81423
353.847971
351.135499
348.721577
346.63459
344.878081
343.434439
342.236151
341.202931
340.243389
339.276879
338.254592
337.172335
336.066058
334.985596
333.95679
332.959667
331.943146
330.865632
329.737791
328.629135
327.585832
326.549404
472.540146
471.610108
470.655369
469.675165
468.668728
467.635282
466.574047
465.484237
464.365059
463.215712
462.035388
460.82327
459.578535
458.300348
456.987866
455.640234
454.256589
452.836054
451.377738
449.880735
448.344121
446.766949
445.148249
443.487021
441.78223
440.032803
438.23762
436.395507
434.505234
432.565503
430.574946
428.532119
426.435487
424.283419
422.074183
419.805946
417.476776
415.08464
412.627405
410.102857
407.50873
404.842751
402.102723
399.286635
396.39285
393.420358
390.369154
387.240744
384.038818
380.770101
377.445346
374.080437
370.697489
367.325779
364.002261
360.771347
357.683583
354.792873
352.151979
349.806236
347.784489
346.093528
344.714909
343.581329
342.633323
341.778865
340.933346
340.040177
339.086337
338.101235
337.130888
336.198873
335.286474
334.352163
333.37047
332.357409
331.351018
330.329214
329.250627
328.074107
472.523071
471.558461
470.568155
469.551311
468.507081
467.434612
466.333043
465.201508
464.039129
462.845023
461.618295
460.358041
459.063345
457.733279
456.366907
454.963279
453.521432
452.040393
450.519176
448.95678
447.352193
445.704385
444.012311
442.274907
440.491092
438.659766
436.779806
434.850067
432.869381
430.836557
428.750381
426.609624
424.413039
422.159366
419.847332
417.475663
415.043087
412.548346
409.99021
407.367498
404.679111
401.924087
399.10169
396.21154
393.253824
390.229595
387.14119
383.992809
380.791252
377.546821
374.274346
370.994227
367.733344
364.525598
361.411802
358.438594
355.656053
353.113809
350.855632
348.912815
347.297148
345.99318
344.946835
344.103601
343.375658
342.677827
341.946521
341.156372
340.323405
339.485505
338.667447
337.861025
337.038972
336.188423
335.326017
334.472064
333.575837
332.5896
331.470499
330.237393
472.502699
471.496848
470.464132
469.403624
468.314395
467.195507
466.046015
464.864967
463.651398
462.404334
461.12279
459.805767
458.452251
457.061218
455.63163
454.162436
452.652574
451.100969
449.506538
447.86819
446.184825
444.455337
442.678622
440.85357
438.97908
437.054058
435.077427
433.04813
430.965144
428.827484
426.634218
424.384482
422.077491
419.712557
417.289103
414.806678
412.264976
409.663849
407.003328
404.283645
401.505274
398.66898
395.775921
392.827784
389.827016
386.777145
383.683245
380.55254
377.395177
374.22512
371.061098
367.927484
364.854871
361.880096
359.045396
356.39643
353.978978
351.834263
349.993254
348.470646
347.258064
346.31783
345.59628
345.014379
344.488097
343.947364
343.354013
342.708363
342.037028
341.36983
340.716766
340.068532
339.418218
338.774815
338.139577
337.46898
336.722129
335.861723
334.890737
333.913295
472.478692
471.424252
470.341582
469.229668
468.08749
466.914022
465.708228
464.469063
463.195472
461.886386
460.540721
459.157381
457.735254
456.273214
454.770123
453.224831
451.636178
450.002998
448.324123
446.598384
444.824618
443.001677
441.128429
439.203776
437.226655
435.196058
433.111046
430.970763
428.77446
426.521515
424.211457
421.843992
419.419029
416.93671
414.397431
411.801868
409.150998
406.446119
403.688864
400.881227
398.025589
395.124768
392.182112
389.201637
386.188259
383.14813
380.089113
377.021395
373.958236
370.916787
367.918883
364.991643
362.167635
359.484329
356.982587
354.704116
352.687668
350.964227
349.551351
348.447294
347.626695
347.044682
346.633936
346.313757
346.009108
345.664158
345.258799
344.80677
344.3412
343.892585
343.475726
343.086574
342.719616
342.369029
342.00306
341.588106
341.10874
340.575196
340.042427
339.611217
472.450849
471.340062
470.199475
469.02798
467.824462
466.587798
465.316857
464.010495
462.667561
461.286885
459.867286
458.407568
456.906522
455.362927
453.775551
452.143156
450.464503
448.738357
446.963492
445.138702
443.262807
441.334672
439.353215
437.317426
435.226386
433.079293
430.875482
428.614459
426.295931
423.919841
421.486403
418.996143
416.449934
413.849032
411.195107
408.49027
405.737093
402.938619
400.098373
397.220367
394.309111
391.369652
388.407646
385.42949
382.442543
379.455456
376.478642
373.524861
370.609896
367.753233
364.978629
362.314445
359.793348
357.451231
355.325014
353.449361
351.852707
350.553091
349.554193
348.841537
348.382416
348.123106
348.024556
347.961955
347.907489
347.78432
347.61402
347.417609
347.232108
347.089138
347.004293
346.967979
346.967701
346.990672
347.018863
347.032012
347.050395
347.130478
347.325357
347.748117
472.419229
471.244458
470.038119
468.799001
467.525891
466.217562
464.872785
463.490315
462.068898
460.607269
459.104149
457.558247
455.968266
454.3329
452.650844
450.920798
449.141474
447.311605
445.429958
443.495349
441.506656
439.462839
437.362966
435.206235
432.992004
430.719828
428.389493
426.00106
423.554903
421.051766
418.492798
415.879611
413.214313
410.499556
407.738557
404.935126
402.093666
399.219172
396.317215
393.39392
390.455951
387.510526
384.565461
381.629289
378.711458
375.822644
372.975245
370.183915
367.466151
364.842779
362.338117
359.979671
357.797401
355.822283
354.084272
352.609353
351.416241
350.513022
349.892047
349.534717
349.431537
349.4832
349.642839
349.846
350.042027
350.20213
350.329344
350.451748
350.610301
350.844528
351.174975
351.589434
352.072612
352.619438
353.238941
353.929222
354.687399
355.569132
356.623801
357.898076
472.384293
471.138836
469.859869
468.546079
467.196147
465.808748
464.382548
462.916202
461.408362
459.857665
458.262745
456.622232
454.934754
453.198949
451.413466
449.576978
447.688195
445.745876
443.748849
441.696028
439.586442
437.419257
435.19381
432.909649
430.566566
428.164648
425.704325
423.186418
420.612197
417.983435
415.302464
412.572219
409.796286
406.978932
404.125124
401.240531
398.331508
395.40506
392.468788
389.530829
386.599819
383.684883
380.795672
377.942454
375.136298
372.389293
369.714841
367.128068
364.646246
362.289166
360.079356
358.041628
356.202219
354.587195
353.220344
352.12039
351.298067
350.751481
350.479799
350.457375
350.640053
350.966425
351.385609
351.847481
352.311573
352.756042
353.183332
353.617219
354.09063
354.642269
355.297496
356.049005
356.867603
357.735959
358.670808
359.681122
360.753913
361.898674
363.122038
364.43353
472.34703
471.026191
469.669783
468.276396
466.84461
465.373
463.860136
462.304581
460.704895
459.059638
457.36737
455.626661
453.836096
451.994284
450.09987
448.151552
446.148095
444.088351
441.971288
439.796012
437.561803
435.268153
432.9148
430.501785
428.029495
425.49872
422.910714
420.267254
417.5707
414.824057
412.031028
409.196059
406.324373
403.421988
400.495725
397.553182
394.602691
391.653238
388.714375
385.796091
382.908684
380.062647
377.268632
374.5375
371.880493
369.309573
366.837717
364.479353
362.250722
360.170132
358.257975
356.53619
355.027087
353.751536
352.726544
351.962581
351.458345
351.250438
351.266513
351.49932
351.904188
352.437527
353.056493
353.721195
354.399339
355.070185
355.72657
356.377524
357.040542
357.739041
358.499081
359.336207
360.236658
361.172112
362.133122
363.11436
364.103751
365.092599
366.06096
366.962977
472.30902
470.911293
469.475916
468.001385
466.486191
464.92882
463.327754
461.681478
459.98848
458.247258
456.456323
454.614215
452.719505
450.770818
448.766841
446.706348
444.588223
442.411483
440.175316
437.87911
435.522497
433.105401
430.628085
428.09121
425.495897
422.843787
420.137113
417.378762
414.572345
411.722252
408.833705
405.912796
402.9665
400.002659
397.029934
394.057724
391.096068
388.155509
385.246946
382.381488
379.570316
376.824553
374.155215
371.573243
369.089661
366.715885
364.464072
362.34747
360.380694
358.5798
356.96197