/*--------------------------------*- C++ -*----------------------------------*\
  =========                 |
  \\      /  F ield         | OpenFOAM: The Open Source CFD Toolbox
   \\    /   O peration     | Website:  https://openfoam.org
    \\  /    A nd           | Version:  8
     \\/     M anipulation  |
\*---------------------------------------------------------------------------*/
FoamFile
{
    version     2.0;
    format      ascii;
    class       surfaceScalarField;
    location    "0.018";
    object      phi;
}
// * * * * * * * * * * * * * * * * * * * * * * * * * * * * * * * * * * * * * //

dimensions      [1 0 -1 0 0 0 0];

internalField   nonuniform List<scalar> 
84340
(
-6.96441892e-08
3.88254779e-07
-3.18632332e-07
-2.77576733e-07
1.16918615e-06
-9.6128884e-07
-6.27553591e-07
1.9777751e-06
-1.62784177e-06
-1.12377564e-06
2.81443427e-06
-2.31826301e-06
-1.7708382e-06
3.68192839e-06
-3.03492321e-06
-2.5736957e-06
4.58402403e-06
-3.7812302e-06
-3.53764248e-06
5.52462302e-06
-4.56074626e-06
-4.66827167e-06
6.50738005e-06
-5.37682756e-06
-5.97141891e-06
7.5355608e-06
-6.23249744e-06
-7.45309088e-06
8.61198558e-06
-7.13040533e-06
-9.11937691e-06
9.73902125e-06
-8.07283556e-06
-1.09763435e-05
1.09186044e-05
-9.06174758e-06
-1.30299164e-05
1.21522887e-05
-1.0098836e-05
-1.52857527e-05
1.34413024e-05
-1.11855977e-05
-1.77490981e-05
1.47865972e-05
-1.23233962e-05
-2.04246504e-05
1.61889047e-05
-1.35135106e-05
-2.33164013e-05
1.76487686e-05
-1.47571913e-05
-2.64274843e-05
1.91665761e-05
-1.60556833e-05
-2.97600051e-05
2.07425806e-05
-1.74102685e-05
-3.33148616e-05
2.23769097e-05
-1.88222819e-05
-3.70915497e-05
2.40695685e-05
-2.02931312e-05
-4.10879456e-05
2.58204317e-05
-2.18243109e-05
-4.53000575e-05
2.76292189e-05
-2.34174087e-05
-4.97217549e-05
2.94954673e-05
-2.50741007e-05
-5.43444418e-05
3.14184715e-05
-2.67961478e-05
-5.91566879e-05
3.33972171e-05
-2.85853691e-05
-6.41438103e-05
3.54302762e-05
-3.04435911e-05
-6.92873819e-05
3.75156898e-05
-3.23725978e-05
-7.45646855e-05
3.96508016e-05
-3.43740251e-05
-7.99480611e-05
4.18320339e-05
-3.64492366e-05
-8.54041383e-05
4.40546004e-05
-3.85991593e-05
-9.08930284e-05
4.63122755e-05
-4.08240836e-05
-9.63678633e-05
4.85975061e-05
-4.31234398e-05
-0.000101774761
5.0901512e-05
-4.5495458e-05
-0.000107052474
5.32135375e-05
-4.79367536e-05
-0.00011212851
5.55174998e-05
-5.04424817e-05
-0.000116913668
5.77915091e-05
-5.30074742e-05
-0.000121314753
6.00260286e-05
-5.56261743e-05
-0.000125240614
6.22109404e-05
-5.82864309e-05
-0.000128599554
6.43088967e-05
-6.09514162e-05
-0.000131227692
6.62434867e-05
-6.36169143e-05
-0.000132871427
6.79291845e-05
-6.62871763e-05
-0.000133245033
6.93207877e-05
-6.89490973e-05
-0.000132042433
7.03133903e-05
-7.1518066e-05
-0.000128938264
7.08050253e-05
-7.39114624e-05
-0.000123604637
7.06710318e-05
-7.60071259e-05
-0.000115614604
6.97684528e-05
-7.77611707e-05
-0.000104477993
6.79389509e-05
-7.90784544e-05
-8.96726549e-05
6.49978171e-05
-7.98062855e-05
-7.05631399e-05
6.06468522e-05
-7.97597324e-05
-4.66720341e-05
5.48509855e-05
-7.87457428e-05
-1.73279619e-05
4.72303156e-05
-7.65783348e-05
1.77147078e-05
3.8027906e-05
-7.30749149e-05
5.95966601e-05
2.58854713e-05
-6.77721193e-05
0.000109403079
1.06981841e-05
-6.05096157e-05
0.00016834404
-7.71128198e-06
-5.12351456e-05
0.000237867443
-2.98940494e-05
-3.96356953e-05
0.000319503227
-5.73900228e-05
-2.42530726e-05
0.000415054989
-9.04189053e-05
-5.14125254e-06
0.000526017869
-0.000129430936
1.84584748e-05
0.000655241425
-0.000175401788
4.61671573e-05
0.000804016423
-0.000229576526
8.07886705e-05
0.000974583625
-0.00029300321
0.000122421004
0.00117000445
-0.000367043885
0.00017160576
0.00139360713
-0.000453239115
0.000229617362
0.00164795357
-0.000552220118
0.000297854194
0.00193294867
-0.00066258494
0.000377570528
0.00225607041
-0.000796241098
0.000473100068
0.00261786757
-0.000932858644
0.000571042292
0.00298614052
-0.0010559826
0.000687690504
0.00338481694
-0.0012824783
0.000883782786
0.00391620212
-0.00151415649
0.000982751713
0.00444129005
-0.00155663734
0.00103152964
0.0047793718
-0.00173745386
0.00139935264
0.00519240702
-0.00218324749
0.00177019333
0.00589156026
-0.00244001738
0.00174084402
0.00657445152
-0.00245435083
0.00177144286
0.00694447727
-0.00253514162
0.00216510366
0.00709451892
-0.00280148155
0.00265143361
-0.00301445318
0.00283035483
0.00727861741
-5.65800076e-08
4.44752259e-07
-2.25035001e-07
1.33752106e-06
-5.07971567e-07
2.26057123e-06
-9.08480473e-07
3.2147843e-06
-1.429881e-06
4.20315301e-06
-2.07585236e-06
5.22980314e-06
-2.850316e-06
6.29887811e-06
-3.75736774e-06
7.41420655e-06
-4.80119938e-06
8.57914975e-06
-5.98600811e-06
9.79653323e-06
-7.31588922e-06
1.10686217e-05
-8.79471361e-06
1.23971272e-05
-1.04259892e-05
1.37832404e-05
-1.22127061e-05
1.52276715e-05
-1.41571794e-05
1.67306971e-05
-1.6260863e-05
1.82921875e-05
-1.85241667e-05
1.9911642e-05
-2.09462517e-05
2.15881993e-05
-2.3524807e-05
2.33206398e-05
-2.62558087e-05
2.51073787e-05
-2.91332541e-05
2.69464413e-05
-3.21488553e-05
2.88354175e-05
-3.52917088e-05
3.07714103e-05
-3.85479041e-05
3.275095e-05
-4.19000772e-05
3.47698767e-05
-4.53268945e-05
3.68232067e-05
-4.88024535e-05
3.89049418e-05
-5.22956316e-05
4.10079033e-05
-5.57694322e-05
4.31235588e-05
-5.91803935e-05
4.52418667e-05
-6.24779636e-05
4.7350949e-05
-6.56027316e-05
4.94357219e-05
-6.84871577e-05
5.14804945e-05
-7.10581822e-05
5.34709718e-05
-7.32333877e-05
5.53870653e-05
-7.4934307e-05
5.7216625e-05
-7.60542552e-05
5.89095009e-05
-7.64415866e-05
6.04112346e-05
-7.58729253e-05
6.16399855e-05
-7.41001824e-05
6.25336844e-05
-7.08703638e-05
6.30109935e-05
-6.59198603e-05
6.29757866e-05
-5.89173982e-05
6.2315205e-05
-4.95116071e-05
6.090426e-05
-3.73179739e-05
5.86078184e-05
-2.19230031e-05
5.52722583e-05
-2.81461948e-06
5.06560206e-05
2.04976427e-05
4.46224081e-05
4.8146427e-05
3.73444756e-05
8.10006247e-05
2.77878053e-05
0.000119964235
1.58822939e-05
0.000166026243
1.16302387e-06
0.000220302228
-1.6253837e-05
0.000284075788
-3.78943801e-05
0.00035876508
-6.39980003e-05
0.000446053349
-9.5007131e-05
0.000547699493
-0.000131548647
0.000664832571
-0.000174532559
0.000799190797
-0.000224787887
0.000952917322
-0.000283169678
0.00112829757
-0.00035079598
0.00132772942
-0.000429024272
0.00155387926
-0.000519170147
0.00180883706
-0.000622018741
0.00209462295
-0.00073904191
0.00241379328
-0.000871407316
0.00276220738
-0.00101101585
0.00313683701
-0.00117088767
0.00355602911
-0.00135206768
0.00399871994
-0.00149869053
0.00439297485
-0.00167675018
0.00483693488
-0.00195813362
0.00542567916
-0.00214539779
0.00592390793
-0.00223569707
0.00621356707
-0.00247291921
0.00648942988
-0.00271589392
0.00688058009
-0.00284551104
0.00729185363
-0.00294642101
0.00750492051
-0.00301454969
-0.00310969591
0.00760016756
-4.48681414e-08
4.89559467e-07
-1.77688189e-07
1.47025092e-06
-3.99689058e-07
2.48246565e-06
-7.12538374e-07
3.52751243e-06
-1.1181837e-06
4.60866345e-06
-1.61865104e-06
5.73012227e-06
-2.21600348e-06
6.89606877e-06
-2.91248617e-06
8.11051326e-06
-3.71026203e-06
9.37673441e-06
-4.6112967e-06
1.06973603e-05
-5.61723091e-06
1.20743304e-05
-6.72923691e-06
1.35088884e-05
-7.94786011e-06
1.50015975e-05
-9.27284278e-06
1.65523652e-05
-1.07029304e-05
1.81604708e-05
-1.22356663e-05
1.98245822e-05
-1.3867157e-05
2.15427621e-05
-1.55918283e-05
2.33124682e-05
-1.74021486e-05
2.51305233e-05
-1.92883277e-05
2.69930835e-05
-2.12379779e-05
2.88955769e-05
-2.3235706e-05
3.08325877e-05
-2.52626362e-05
3.27977355e-05
-2.72958478e-05
3.47835059e-05
-2.9307765e-05
3.67810833e-05
-3.12655239e-05
3.87801964e-05
-3.31302624e-05
4.07688475e-05
-3.48576055e-05
4.27343452e-05
-3.63974745e-05
4.46624508e-05
-3.76937299e-05
4.65370625e-05
-3.86854294e-05
4.83415099e-05
-3.93098124e-05
5.00588835e-05
-3.94784948e-05
5.16478515e-05
-3.90809529e-05
5.30719946e-05
-3.79797855e-05
5.42843465e-05
-3.59884317e-05
5.5223596e-05
-3.29037225e-05
5.58229842e-05
-2.85031786e-05
5.60087337e-05
-2.25528062e-05
5.5687489e-05
-1.47857649e-05
5.47643511e-05
-4.90729357e-06
5.31300512e-05
7.41338691e-06
5.06524506e-05
2.25725777e-05
4.71531563e-05
4.09271169e-05
4.2546656e-05
6.29514382e-05
3.65802002e-05
8.88005873e-05
2.94195623e-05
0.000119359739
2.00931217e-05
0.000155416415
8.56178337e-06
0.0001979061
-5.14952553e-06
0.000247838857
-2.21496684e-05
0.000306419867
-4.2703846e-05
0.000374826446
-6.72491498e-05
0.000454807188
-9.62407202e-05
0.000547303899
-0.000130397851
0.000653718034
-0.000170419649
0.000775726431
-0.000217023941
0.000915194844
-0.000271026509
0.00107394613
-0.000333294416
0.00125400281
-0.00040485648
0.00145754128
-0.000486721488
0.00168636731
-0.000579636057
0.00194197116
-0.000684642161
0.0022261552
-0.000803368187
0.00253903309
-0.000934910776
0.00287950219
-0.00107952526
0.00324805249
-0.00123997219
0.00364367317
-0.00140665126
0.00404710413
-0.00157433374
0.00446061927
-0.00176559796
0.00491254207
-0.00195062882
0.00534342393
-0.0021076471
0.00568471118
-0.00229943547
0.00603907565
-0.00249977578
0.00642669746
-0.00262333086
0.00667141773
-0.00271764996
0.00680274498
-0.00284723427
0.00693565499
-0.00297843041
0.00708978409
-0.00310055498
0.00727803321
-0.00320279997
-0.00327251503
0.00744085712
-3.75525226e-08
5.26976006e-07
-1.47369869e-07
1.5798715e-06
-3.29109137e-07
2.66397585e-06
-5.82747655e-07
3.78089273e-06
-9.08560319e-07
4.93419106e-06
-1.30684841e-06
6.12809955e-06
-1.7779018e-06
7.36678574e-06
-2.32156293e-06
8.65381185e-06
-2.93759404e-06
9.99237582e-06
-3.62531278e-06
1.13846607e-05
-4.38343851e-06
1.28320076e-05
-5.20992968e-06
1.43348988e-05
-6.10179294e-06
1.58929458e-05
-7.05488214e-06
1.7504903e-05
-8.06367246e-06
1.91686709e-05
-9.12100291e-06
2.08812811e-05
-1.02178033e-05
2.26388869e-05
-1.13427744e-05
2.44367166e-05
-1.24820262e-05
2.62690023e-05
-1.36186299e-05
2.81288609e-05
-1.473218e-05
3.00082434e-05
-1.57983086e-05
3.18977716e-05
-1.67882879e-05
3.37867048e-05
-1.76698678e-05
3.56640049e-05
-1.8406385e-05
3.75164428e-05
-1.89566644e-05
3.93292401e-05
-1.92751206e-05
4.10859843e-05
-1.93027307e-05
4.27605424e-05
-1.89688542e-05
4.43270643e-05
-1.81898462e-05
4.57564405e-05
-1.68647295e-05
4.7014661e-05
-1.48655341e-05
4.80578277e-05
-1.20516635e-05
4.88319877e-05
-8.25912338e-06
4.92773204e-05
-3.29731894e-06
4.93202437e-05
3.05072862e-06
4.88730729e-05
1.10107697e-05
4.78602891e-05
2.08428367e-05
4.61738233e-05
3.28365401e-05
4.36907419e-05
4.7360932e-05
4.02367071e-05
6.47892504e-05
3.56982715e-05
8.53444522e-05
3.00935614e-05
0.000109365677
2.31279824e-05
0.000137732717
1.41754784e-05
0.000171107868
3.20073959e-06
0.000210279286
-9.7564948e-06
0.000256172953
-2.58055527e-05
0.000309845317
-4.5115921e-05
0.000372759701
-6.80696019e-05
0.000445754422
-9.51504645e-05
0.000529985269
-0.000126941184
0.000626802486
-0.000164073336
0.000737769276
-0.000207215037
0.000864429605
-0.000257066298
0.00100841876
-0.000314417519
0.00117144541
-0.000380060023
0.00135530361
-0.000454894998
0.00156189037
-0.000539892257
0.00179294124
-0.000635918606
0.00204971575
-0.000743507104
0.00233233417
-0.000862265423
0.00263923575
-0.000991554769
0.00296971787
-0.00113386139
0.00332155395
-0.00128675826
0.00369172337
-0.00144970628
0.0040721841
-0.00162044493
0.00446644538
-0.00180092465
0.00486106819
-0.00196896894
0.00522937775
-0.00213391979
0.00557572348
-0.00229698592
0.00590300774
-0.00243494152
0.00615584434
-0.00255228432
0.00630755573
-0.0026514992
0.00644289955
-0.00275868417
0.00658679732
-0.00286155923
0.00670409011
-0.00296453793
0.0067971561
-0.00307150142
0.00687271538
-0.00317611807
0.00695710924
-0.00328719522
-0.00339189256
0.00707648878
-3.51914372e-08
5.62046944e-07
-1.3653021e-07
1.68103463e-06
-3.01983773e-07
2.82922397e-06
-5.29741226e-07
4.0084177e-06
-8.18050241e-07
5.22224247e-06
-1.16520716e-06
6.47497438e-06
-1.56933716e-06
7.77060871e-06
-2.02803121e-06
9.11217291e-06
-2.53791975e-06
1.0501904e-05
-3.0951527e-06
1.19415039e-05
-3.69491887e-06
1.34313524e-05
-4.33124176e-06
1.49707663e-05
-4.99675778e-06
1.65579697e-05
-5.68246491e-06
1.81900783e-05
-6.37743647e-06
1.98630679e-05
-7.06851112e-06
2.15717353e-05
-7.73993684e-06
2.33096427e-05
-8.37298293e-06
2.506904e-05
-8.9455992e-06
2.68408392e-05
-9.4327105e-06
2.86151315e-05
-9.80554151e-06
3.03801675e-05
-1.00313907e-05
3.21226457e-05
-1.00690273e-05
3.38232943e-05
-9.87103969e-06
3.54648905e-05
-9.38225436e-06
3.7026446e-05
-8.53759756e-06
3.84832824e-05
-7.25953254e-06
3.98065224e-05
-5.46129948e-06
4.09608078e-05
-3.04044143e-06
4.19045949e-05
1.25393015e-07
4.25888785e-05
4.18236575e-06
4.29558285e-05
9.30110257e-06
4.29370879e-05
1.56601255e-05
4.24708169e-05
2.34651418e-05
4.14699997e-05
3.29473635e-05
3.98355521e-05
4.43642388e-05
3.74535501e-05
5.80479408e-05
3.41737553e-05
7.43294363e-05
2.98892912e-05
9.33809273e-05
2.46359825e-05
0.000115774995
1.7839177e-05
0.0001420735
9.39618099e-06
0.000172900445
-7.37184473e-07
0.000208990663
-1.29663958e-05
0.000251246429
-2.80848103e-05
0.000300536377
-4.60940535e-05
0.000358171207
-6.73965201e-05
0.00042486601
-9.25059167e-05
0.000501689783
-0.000121945659
0.000589886
-0.000156272214
0.000690805716
-0.000196077076
0.000805859424
-0.000242002262
0.000936510229
-0.000294731993
0.00108424656
-0.000354959704
0.00125058466
-0.00042341332
0.00143704174
-0.000500884154
0.00164509769
-0.000588126049
0.00187584298
-0.000685650235
0.0021298363
-0.000793895195
0.00240712562
-0.000913217186
0.00270722306
-0.00104361364
0.00302810926
-0.00118316055
0.00336485402
-0.00132830851
0.00371264381
-0.00148166018
0.00406610815
-0.00164023189
0.00442562904
-0.00180923659
0.00477827996
-0.00197310539
0.00510682812
-0.00212948153
0.00540388872
-0.00226603842
0.0056564515
-0.00238649255
0.00585418927
-0.00249473327
0.00600600466
-0.00258676634
0.00613742828
-0.00268371769
0.00626103236
-0.00277511109
0.00636465401
-0.00286231449
0.00645656573
-0.00295347855
0.00653648989
-0.00304446779
0.00660737483
-0.0031423913
0.00667285664
-0.00324160301
0.00673521747
-0.0033495572
-0.00346113557
0.00680446184
-3.65557882e-08
5.98406528e-07
-1.401897e-07
1.78438822e-06
-3.07037077e-07
2.99574758e-06
-5.3328161e-07
4.234299e-06
-8.14959401e-07
5.50352048e-06
-1.14774933e-06
6.8073294e-06
-1.52679064e-06
8.14917987e-06
-1.94676932e-06
9.53164487e-06
-2.40121971e-06
1.09558095e-05
-2.88212702e-06
1.24218263e-05
-3.38024474e-06
1.39288428e-05
-3.88460428e-06
1.54744532e-05
-4.38222371e-06
1.70548684e-05
-4.85782846e-06
1.8664911e-05
-5.29348806e-06
2.0297901e-05
-5.66822092e-06
2.1945583e-05
-5.95816652e-06
2.35986404e-05
-6.13482475e-06
2.52446857e-05
-6.16507601e-06
2.68700103e-05
-6.01071782e-06
2.84596187e-05
-5.62752282e-06
2.99957356e-05
-4.96396267e-06
3.14577641e-05
-3.96268967e-06
3.28206129e-05
-2.55525997e-06
3.40559576e-05
-6.60205319e-07
3.51297884e-05
1.81883643e-06
3.60025255e-05
4.9955172e-06
3.66280053e-05
8.99454759e-06
3.69598157e-05
1.39572136e-05
3.69398352e-05
2.00449883e-05
3.64988677e-05
2.74415549e-05
3.55568753e-05
3.63533877e-05
3.40227079e-05
4.70297607e-05
3.17917273e-05
5.97666488e-05
2.87302167e-05
7.4872952e-05
2.47261596e-05
9.25369144e-05
1.97862849e-05
0.000113285969
1.34212318e-05
0.000137619426
5.55219537e-06
0.00016610614
-3.85463103e-06
0.000199373693
-1.54325634e-05
0.000238158557
-2.93931392e-05
0.000283454294
-4.60376774e-05
0.000336209414
-6.57265747e-05
0.000397026943
-8.89077269e-05
0.000466964277
-0.000116037106
0.000547185424
-0.000147623756
0.000638885232
-0.000184212194
0.000743312027
-0.000226379309
0.00086176503
-0.000274732404
0.000995560093
-0.000329879689
0.00114598117
-0.000392431218
0.00131424299
-0.00046300211
0.00150149074
-0.000542216187
0.00170875256
-0.000630684178
0.00193668978
-0.000728830135
0.00218540261
-0.000836847193
0.00245401855
-0.000954273996
0.0027404949
-0.00108037906
0.00304205106
-0.0012147805
0.00335627468
-0.00135784428
0.00367996961
-0.00150686229
0.00400850979
-0.00165685558
0.00433058315
-0.00180374037
0.00464103602
-0.00195069141
0.0049200066
-0.00208821327
0.00515820042
-0.00221130517
0.00535137886
-0.00232266628
0.00551280829
-0.00242747634
0.00565489047
-0.00252858251
0.00578538704
-0.00262523639
0.00590213312
-0.00270351888
0.00599191865
-0.00277351
0.0060706659
-0.00285386577
0.00614773474
-0.00293938921
0.00622163372
-0.00302738195
0.00629724888
-0.00312008846
0.00637024827
-0.00321539512
0.00644523734
-0.00331659508
0.00652024766
-0.00342456924
-0.00353598537
0.00659509783
-3.93051846e-08
6.37523607e-07
-1.4904386e-07
1.89385686e-06
-3.2312832e-07
3.16951909e-06
-5.55277765e-07
4.46609631e-06
-8.38771075e-07
5.78662505e-06
-1.16617836e-06
7.13431238e-06
-1.52911072e-06
8.51165214e-06
-1.9179757e-06
9.92001224e-06
-2.32216598e-06
1.13594622e-05
-2.72899394e-06
1.28280743e-05
-3.12344408e-06
1.43226676e-05
-3.48808201e-06
1.58384173e-05
-3.80262757e-06
1.73686877e-05
-4.04356659e-06
1.89050677e-05
-4.18367046e-06
2.04371639e-05
-4.1913533e-06
2.19523603e-05
-4.03014165e-06
2.34364531e-05
-3.65840401e-06
2.48719005e-05
-3.02823826e-06
2.62387212e-05
-2.08372106e-06
2.75138953e-05
-7.59216724e-07
2.86699343e-05
1.02196254e-06
2.96751912e-05
3.34578371e-06
3.04952979e-05
6.31108145e-06
3.10890584e-05
1.003047e-05
3.14086836e-05
1.46320133e-05
3.13991438e-05
2.02611622e-05
3.09968893e-05
2.70902807e-05
3.01285929e-05
3.5317568e-05
2.87102992e-05
4.51684564e-05
2.66455762e-05
5.69074124e-05
2.38153566e-05
7.08201939e-05
2.01071872e-05
8.71047233e-05
1.55042687e-05
0.000106231302
9.60055006e-06
0.000128645213
2.30900283e-06
0.000154844459
-6.41644704e-06
0.000185390452
-1.71285056e-05
0.000220940326
-3.00016779e-05
0.000262402402
-4.53209665e-05
0.000310393224
-6.34279286e-05
0.000365704948
-8.47096971e-05
0.000429249506
-0.00010958739
0.000502040738
-0.000138523292
0.000585137038
-0.000172009887
0.00067966225
-0.000210568529
0.000786773767
-0.000254741841
0.000907624856
-0.000305070187
0.00104332808
-0.000362089809
0.00119490413
-0.000426316062
0.00136325691
-0.000498240487
0.00154911951
-0.000578302272
0.00175307957
-0.000666970966
0.00197529202
-0.00076443722
0.00221528314
-0.000870683435
0.00247179662
-0.000985351216
0.00274273669
-0.00110779447
0.00302508025
-0.00123662432
0.00331425802
-0.00136956332
0.00360478858
-0.00150531718
0.00389171266
-0.00164477431
0.0041724769
-0.0017876321
0.00443897576
-0.00192335961
0.00467724945
-0.00204201869
0.00487876338
-0.00215221032
0.00503790495
-0.0022473603
0.00516573196
-0.00233913808
0.00527530529
-0.00243224539
0.00537604296
-0.00252821979
0.00546869142
-0.00262123739
0.00555562974
-0.00271217998
0.00564950689
-0.00279739983
0.00573834034
-0.00286234896
0.00581619688
-0.00293172676
0.0058909173
-0.00301411368
0.00596731557
-0.00310378486
0.00604688507
-0.00319966172
0.0061333596
-0.00330187276
0.00621902086
-0.0034022589
0.00630178844
-0.00350733845
-0.00362109581
0.0063868988
-4.03235605e-08
6.77608372e-07
-1.50423576e-07
2.003618e-06
-3.21467285e-07
3.34017298e-06
-5.44187334e-07
4.68837997e-06
-8.08503003e-07
6.05046084e-06
-1.10317594e-06
7.42846329e-06
-1.41547351e-06
8.82338537e-06
-1.73083158e-06
1.02347622e-05
-2.03248035e-06
1.16604566e-05
-2.30137985e-06
1.30962706e-05
-2.51516071e-06
1.45356929e-05
-2.64806042e-06
1.59705051e-05
-2.67013652e-06
1.73898923e-05
-2.54676107e-06
1.87807572e-05
-2.23806597e-06
2.01274674e-05
-1.69843109e-06
2.14116519e-05
-8.74750759e-07
2.26116213e-05
2.93632203e-07
2.37022842e-05
1.87617358e-06
2.46548593e-05
3.95280166e-06
2.54358541e-05
6.61461702e-06
2.60066079e-05
9.9650803e-06
2.6323111e-05
1.41244361e-05
2.63342133e-05
1.92302152e-05
2.5981432e-05
2.54395863e-05
2.51973403e-05
3.2931839e-05
2.39047861e-05
4.19110205e-05
2.20154626e-05
5.261452e-05
1.94227011e-05
6.53062445e-05
1.60160235e-05
8.01830601e-05
1.17660354e-05
9.76615998e-05
6.33394634e-06
0.000118137588
-3.71819602e-07
0.000142050246
-8.41161797e-06
0.000169899492
-1.82521567e-05
0.000202259139
-3.00543221e-05
0.000239913376
-4.40745947e-05
0.000283411067
-6.06303465e-05
0.000333473318
-8.00683338e-05
0.000390916
-0.000102768314
0.000456629832
-0.000129146713
0.00053156124
-0.000159646351
0.000616704504
-0.000194736199
0.000713080705
-0.000234905308
0.000821707192
-0.000280642478
0.000943563233
-0.00033243094
0.00107954561
-0.000390730876
0.00123042988
-0.00045596138
0.00139681558
-0.000528482754
0.00157906551
-0.000608573558
0.00177732518
-0.000696508077
0.00199132704
-0.000792311963
0.00222020112
-0.000895852467
0.0024623183
-0.00100656135
0.00271515765
-0.00112352937
0.00297535287
-0.0012455526
0.00323894407
-0.00137139152
0.0035015146
-0.00149920029
0.00375734121
-0.00162539508
0.00400193005
-0.00174991077
0.00422627399
-0.00186912266
0.00441940002
-0.00198076186
0.00458025504
-0.00208421831
0.00471605369
-0.00217782186
0.00483068351
-0.00226684456
0.00493542472
-0.00235210514
0.00502966116
-0.00243337815
0.00510762096
-0.00251020898
0.00516847755
-0.00258908174
0.0052222152
-0.00267497958
0.00527445034
-0.0027644197
0.00533233204
-0.002855287
0.00540499281
-0.00293501431
0.00548186074
-0.00300859837
0.00556393583
-0.00309619323
0.00565110931
-0.00319096213
0.00573616585
-0.00328472134
0.0058237609
-0.00338947096
0.00591918475
-0.00349768579
0.00601670473
-0.00360486022
-0.00371805
0.00611365872
-3.65560448e-08
7.13924455e-07
-1.32757373e-07
2.09947814e-06
-2.76498295e-07
3.48352082e-06
-4.54760955e-07
4.86620192e-06
-6.5320713e-07
6.24842165e-06
-8.55727075e-07
7.63045441e-06
-1.04398023e-06
9.01106586e-06
-1.19690223e-06
1.03870656e-05
-1.29018744e-06
1.17530748e-05
-1.2957659e-06
1.31011308e-05
-1.18157868e-06
1.44207319e-05
-9.10495711e-07
1.56985888e-05
-4.39750699e-07
1.69182508e-05
2.7963454e-07
1.80604079e-05
1.30381553e-06
1.910225e-05
2.69723208e-06
2.00171213e-05
4.53322771e-06
2.07744296e-05
6.89596743e-06
2.13382608e-05
9.88172122e-06
2.16677276e-05
1.36004486e-05
2.17156483e-05
1.81774434e-05
2.14280286e-05
2.37557323e-05
2.07431248e-05
3.04975572e-05
1.95905718e-05
3.8587241e-05
1.78898046e-05
4.82372954e-05
1.55452101e-05
5.96887645e-05
1.24510971e-05
7.31341792e-05
8.56767264e-06
8.89396925e-05
3.61467547e-06
0.000107454382
-2.5013155e-06
0.000129068808
-9.85122955e-06
0.000154225521
-1.88258083e-05
0.000183424379
-2.95739167e-05
0.000217338138
-4.23288202e-05
0.000256461593
-5.73792725e-05
0.000301437841
-7.50344535e-05
0.000352993078
-9.56339536e-05
0.000411908778
-0.000119550414
0.000479016731
-0.000147180923
0.000555190212
-0.000178946685
0.000641326053
-0.000215287698
0.000738321101
-0.000256646787
0.000847043054
-0.0003034638
0.000968291766
-0.000356159912
0.00110276221
-0.000415119082
0.00125099172
-0.000480666852
0.0014133028
-0.000553048633
0.00158974918
-0.000632414729
0.00178007631
-0.000718817256
0.00198366842
-0.000812173108
0.00219933789
-0.000912184728
0.00242521384
-0.00101819471
0.00265860122
-0.00112924634
0.00289616399
-0.00124413026
0.00313408735
-0.00136145863
0.00336783223
-0.00147930304
0.00359305576
-0.00159662047
0.00380497206
-0.0017111216
0.00399904283
-0.00181947034
0.00416736194
-0.00191823395
0.00430716474
-0.00200892914
0.00441698309
-0.00209058377
0.00450381664
-0.00217105566
0.00458163382
-0.00225564226
0.00465598558
-0.00234119999
0.00472800294
-0.00242412584
0.00479876652
-0.00250414479
0.00486781758
-0.00257926362
0.00492497383
-0.00264624178
0.00497297154
-0.0027229806
0.00501268058
-0.00280413236
0.00505058481
-0.00289319491
0.00509943565
-0.00298386883
0.00516169772
-0.00307086419
0.00522828683
-0.0031627855
0.00530227118
-0.0032649505
0.00538693411
-0.00336938835
0.00547539488
-0.0034779344
0.00557513987
-0.0035974335
0.00568866077
-0.00371838242
-0.00383314452
0.00580375578
-2.73650807e-08
7.41026586e-07
-9.24782278e-08
2.1642196e-06
-1.7876221e-07
3.56937821e-06
-2.68150209e-07
4.95511269e-06
-3.40533455e-07
6.32028004e-06
-3.73173106e-07
7.6625229e-06
-3.40149596e-07
8.97742443e-06
-2.11763683e-07
1.02580128e-05
4.61397896e-08
1.14944529e-05
4.72752389e-07
1.26737452e-05
1.11294422e-06
1.37797088e-05
2.01805751e-06
1.47925818e-05
3.24658366e-06
1.56887641e-05
4.86548696e-06
1.64404725e-05
6.9508494e-06
1.70157797e-05
9.59004738e-06
1.73767347e-05
1.28826743e-05
1.74805265e-05
1.69422591e-05
1.72773063e-05
2.18981263e-05
1.67103918e-05
2.78960912e-05
1.57161098e-05
3.51021188e-05
1.42203156e-05
4.37042874e-05
1.21391532e-05
5.39195852e-05
9.37334391e-06
6.5933771e-05
5.87355036e-06
8.00677924e-05
1.40899582e-06
9.66286882e-05
-4.11211939e-06
0.000115961358
-1.07674842e-05
0.000138454339
-1.88809724e-05
0.000164541381
-2.85911989e-05
0.000194801305
-4.011418e-05
0.000229677012
-5.37047325e-05
0.000269737613
-6.96379381e-05
0.000315621616
-8.82164511e-05
0.000368010833
-0.000109772339
0.000427632346
-0.000134660044
0.000495250211
-0.000163256125
0.000571650488
-0.00019595521
0.000657622141
-0.000233157315
0.000753933146
-0.000275262633
0.000861298836
-0.000322658545
0.000980350609
-0.000375703913
0.00111159158
-0.000434710331
0.00125534598
-0.000499920062
0.00141170272
-0.000571481773
0.00158045729
-0.000649427576
0.00176106388
-0.000733661663
0.00195263416
-0.000823991639
0.00215381372
-0.00092000336
0.00236265972
-0.00102102534
0.00257651515
-0.00112604614
0.00279215616
-0.00123384143
0.0030058895
-0.00134298519
0.00321370707
-0.0014519531
0.003411769
-0.00155952564
0.00359697936
-0.00166451812
0.00376350483
-0.00176315017
0.0039061878
-0.00185380824
0.00402550935
-0.00193879602
0.00412437079
-0.00201709884
0.00420947363
-0.00209403499
0.00428708332
-0.00216819676
0.00435557082
-0.00223954584
0.00441085066
-0.00231092478
0.00445527281
-0.00238562549
0.00449619546
-0.00246505264
0.00453828419
-0.00254623788
0.004588632
-0.00262961479
0.00464562218
-0.0027032361
0.00470000028
-0.00277736365
0.00475024572
-0.00285438359
0.00479607982
-0.00293903432
0.00484202416
-0.00302981746
0.00489588371
-0.00312472763
0.00495448334
-0.00322138909
0.00501965282
-0.00333012378
0.00509946169
-0.00344920083
0.00519156337
-0.00357003905
0.00528905887
-0.00369493147
0.00539616317
-0.00382548745
-0.00394540562
0.00550842536
-1.16926511e-08
7.52453939e-07
-2.55599878e-08
2.17771237e-06
-1.92057924e-08
3.56259431e-06
3.20481064e-08
4.90337808e-06
1.55863787e-07
6.19593551e-06
3.83541454e-07
7.43426937e-06
7.50661166e-07
8.6096812e-06
1.29778017e-06
9.71022079e-06
2.07116367e-06
1.07203442e-05
3.12353737e-06
1.16205908e-05
4.51510821e-06
1.23872978e-05
6.31457099e-06
1.29922153e-05
8.59975223e-06
1.34026118e-05
1.14600393e-05
1.35791425e-05
1.49970416e-05
1.34776564e-05
1.93262289e-05
1.30463424e-05
2.45787895e-05
1.22266723e-05
3.09037638e-05
1.09509443e-05
3.84686281e-05
9.1440406e-06
4.74403865e-05
6.74275533e-06
5.80424526e-05
3.61653618e-06
7.0527565e-05
-3.47781888e-07
8.51620017e-05
-5.26302788e-06
0.000102249754
-1.12162791e-05
0.000122133087
-1.84765662e-05
0.000145188544
-2.71699565e-05
0.000171910541
-3.74920204e-05
0.000202693534
-4.96666734e-05
0.000238038451
-6.39389974e-05
0.000278499411
-8.05782059e-05
0.000324669944
-9.98785234e-05
0.000377183375
-0.000122154831
0.000436705542
-0.000147742279
0.000503922882
-0.000176993539
0.000579527385
-0.000210268598
0.00066419731
-0.000247930296
0.000758571503
-0.000290333835
0.000863223414
-0.000337813845
0.00097862479
-0.000390668803
0.00110510376
-0.000449142491
0.00124279769
-0.000513402979
0.00139160167
-0.00058351961
0.00155111531
-0.000659439161
0.00172059191
-0.000740964037
0.00189890429
-0.000827745849
0.00208457468
-0.000919338037
0.00227566066
-0.00101508341
0.00246967909
-0.00111402737
0.00266362003
-0.00121497164
0.00285416236
-0.00131659368
0.00303776659
-0.0014174507
0.00321100958
-0.00151623318
0.00337048789
-0.00161143622
0.00351362227
-0.0017026645
0.00363668171
-0.00178758171
0.00373970686
-0.00186617928
0.00382484901
-0.00193895452
0.00389558121
-0.00200953165
0.00396122455
-0.00208274504
0.00402335062
-0.00215616408
0.00408296159
-0.00222781018
0.00414085534
-0.0022974422
0.00419424995
-0.00236432234
0.00424036298
-0.00243174133
0.00428012944
-0.00250482176
0.00431518399
-0.00258129592
0.00434790947
-0.00266234387
0.00439024304
-0.00274557401
0.00443808616
-0.0028252118
0.00449162436
-0.00290792754
0.00454740948
-0.00299482458
0.00460580493
-0.00308821749
0.00467152459
-0.0031904522
0.00474205551
-0.00329192474
0.00481345878
-0.00340153113
0.00489120791
-0.00352695354
0.00497977925
-0.00365861306
0.00506944271
-0.00378459679
0.00515007173
-0.00390611616
-0.00402354255
0.00522821096
1.09942121e-08
7.41195841e-07
7.02990339e-08
2.11803692e-06
2.07607005e-07
3.42486246e-06
4.55846679e-07
4.65466517e-06
8.51990183e-07
5.79927203e-06
1.43780046e-06
6.84789319e-06
2.26065589e-06
7.78621325e-06
3.37440375e-06
8.59581192e-06
4.84029557e-06
9.25374012e-06
6.72789169e-06
9.73222757e-06
9.11636757e-06
9.99799704e-06
1.20957489e-05
1.00119472e-05
1.57682125e-05
9.72919412e-06
2.02495584e-05
9.09676993e-06
2.56714697e-05
8.0546418e-06
3.21821888e-05
6.53443706e-06
3.99315355e-05
4.47604943e-06
4.91208858e-05
1.76022867e-06
5.9962257e-05
-1.69878645e-06
7.26928186e-05
-5.98936977e-06
8.7579576e-05
-1.12719034e-05
0.000104919008
-1.76890174e-05
0.000125037312
-2.53832616e-05
0.000148353305
-3.4534338e-05
0.000175214885
-4.53403537e-05
0.000206059612
-5.80170428e-05
0.000241366758
-7.28016813e-05
0.000281651289
-8.99538871e-05
0.000327462206
-0.000109752773
0.00037937675
-0.000132495788
0.000437992016
-0.000158497
0.000503913178
-0.000188079381
0.000577738202
-0.000221570864
0.000660037065
-0.000259296136
0.000751330765
-0.0003015662
0.000852061985
-0.000348665584
0.000962561014
-0.000400837083
0.00108300704
-0.000458264238
0.00121338542
-0.000521051693
0.00135344294
-0.00058920466
0.001502643
-0.000662607796
0.00166012426
-0.000741005742
0.00182466721
-0.000823987134
0.00199467905
-0.0009109811
0.00216824451
-0.00100131653
0.0023430736
-0.00109417219
0.00251651787
-0.00118853255
0.00268570025
-0.0012832145
0.00284759762
-0.00137687362
0.0029992691
-0.00146826969
0.00313869187
-0.0015568779
0.00326356605
-0.00164111174
0.00337215542
-0.00172002951
0.0034636465
-0.00179415913
0.00353871319
-0.0018626514
0.00360373191
-0.00193120153