/*--------------------------------*- C++ -*----------------------------------*\
  =========                 |
  \\      /  F ield         | OpenFOAM: The Open Source CFD Toolbox
   \\    /   O peration     | Website:  https://openfoam.org
    \\  /    A nd           | Version:  8
     \\/     M anipulation  |
\*---------------------------------------------------------------------------*/
FoamFile
{
    version     2.0;
    format      ascii;
    class       volScalarField;
    location    "0.01";
    object      p;
}
// * * * * * * * * * * * * * * * * * * * * * * * * * * * * * * * * * * * * * //

dimensions      [1 -1 -2 0 0 0 0];

internalField   nonuniform List<scalar> 
42400
(
101274.193
101274.179
101274.163
101274.147
101274.131
101274.114
101274.096
101274.079
101274.06
101274.042
101274.023
101274.003
101273.983
101273.963
101273.942
101273.92
101273.897
101273.874
101273.85
101273.824
101273.798
101273.77
101273.741
101273.71
101273.678
101273.643
101273.607
101273.568
101273.527
101273.483
101273.436
101273.386
101273.333
101273.277
101273.218
101273.154
101273.087
101273.024
101272.971
101272.918
101272.839
101272.73
101272.614
101272.51
101272.417
101272.322
101272.224
101272.123
101272.02
101271.915
101271.804
101271.71
101271.632
101271.559
101271.464
101271.346
101271.252
101271.184
101271.131
101271.084
101271.046
101271.025
101271.027
101271.06
101271.147
101271.307
101271.534
101271.892
101272.369
101272.595
101273.262
101274.905
101275.503
101276.208
101279.366
101279.511
101281.782
101285.017
101288.643
101291.359
101274.674
101274.663
101274.65
101274.637
101274.623
101274.609
101274.594
101274.579
101274.563
101274.547
101274.53
101274.513
101274.495
101274.477
101274.458
101274.439
101274.418
101274.397
101274.376
101274.353
101274.329
101274.303
101274.277
101274.249
101274.22
101274.188
101274.155
101274.12
101274.082
101274.043
101274
101273.956
101273.907
101273.855
101273.808
101273.766
101273.725
101273.662
101273.575
101273.483
101273.4
101273.327
101273.253
101273.175
101273.094
101273.011
101272.923
101272.829
101272.752
101272.7
101272.626
101272.517
101272.417
101272.345
101272.294
101272.243
101272.198
101272.163
101272.14
101272.138
101272.165
101272.233
101272.352
101272.519
101272.749
101273.096
101273.576
101274.266
101275.205
101275.975
101276.592
101278.259
101279.594
101280.549
101285.381
101291.583
101294.607
101294.658
101297.797
101302.976
101275.237
101275.228
101275.218
101275.208
101275.196
101275.185
101275.173
101275.16
101275.147
101275.133
101275.119
101275.105
101275.09
101275.075
101275.06
101275.044
101275.027
101275.01
101274.992
101274.973
101274.954
101274.934
101274.912
101274.89
101274.866
101274.841
101274.815
101274.787
101274.756
101274.724
101274.692
101274.661
101274.632
101274.602
101274.559
101274.5
101274.436
101274.378
101274.328
101274.274
101274.217
101274.157
101274.094
101274.027
101273.962
101273.915
101273.88
101273.817
101273.726
101273.658
101273.61
101273.564
101273.519
101273.478
101273.444
101273.423
101273.42
101273.444
101273.503
101273.595
101273.728
101273.912
101274.174
101274.524
101274.983
101275.581
101276.387
101277.462
101278.888
101280.385
101281.412
101282.885
101287.607
101292.473
101293.082
101293.429
101297.232
101300.044
101303.499
101306.713
101275.897
101275.89
101275.881
101275.872
101275.863
101275.853
101275.843
101275.833
101275.822
101275.812
101275.801
101275.79
101275.779
101275.767
101275.756
101275.745
101275.733
101275.721
101275.709
101275.697
101275.685
101275.672
101275.658
101275.645
101275.63
101275.614
101275.598
101275.581
101275.565
101275.55
101275.53
101275.504
101275.473
101275.439
101275.408
101275.381
101275.352
101275.32
101275.285
101275.248
101275.208
101275.167
101275.142
101275.13
101275.08
101275.005
101274.964
101274.939
101274.909
101274.877
101274.848
101274.825
101274.811
101274.816
101274.845
101274.895
101274.97
101275.078
101275.233
101275.45
101275.751
101276.141
101276.649
101277.235
101277.952
101278.741
101279.725
101280.786
101282.122
101285.122
101289.455
101292.381
101293.339
101294.552
101295.895
101297.864
101300.954
101303.524
101306.025
101308.613
101276.642
101276.635
101276.627
101276.619
101276.611
101276.603
101276.595
101276.587
101276.579
101276.571
101276.564
101276.556
101276.55
101276.543
101276.537
101276.531
101276.526
101276.521
101276.517
101276.513
101276.509
101276.504
101276.499
101276.494
101276.49
101276.487
101276.485
101276.481
101276.475
101276.468
101276.461
101276.456
101276.45
101276.443
101276.433
101276.422
101276.41
101276.394
101276.377
101276.372
101276.382
101276.36
101276.313
101276.297
101276.293
101276.278
101276.261
101276.248
101276.24
101276.243
101276.259
101276.289
101276.334
101276.399
101276.493
101276.627
101276.81
101277.059
101277.388
101277.814
101278.351
101279.006
101279.815
101280.71
101281.767
101282.823
101284.093
101287.187
101290.517
101291.715
101292.413
101294.156
101296.621
101298.456
101300.43
101302.934
101305.428
101307.731
101310.058
101312.796
101277.436
101277.429
101277.421
101277.414
101277.407
101277.4
101277.394
101277.388
101277.382
101277.378
101277.374
101277.371
101277.369
101277.367
101277.367
101277.368
101277.37
101277.372
101277.375
101277.378
101277.382
101277.389
101277.399
101277.41
101277.42
101277.431
101277.442
101277.453
101277.465
101277.476
101277.487
101277.498
101277.508
101277.519
101277.527
101277.53
101277.542
101277.575
101277.579
101277.561
101277.568
101277.586
101277.592
101277.597
101277.606
101277.62
101277.64
101277.667
101277.704
101277.754
101277.822
101277.915
101278.038
101278.198
101278.405
101278.675
101279.022
101279.467
101280.008
101280.668
101281.442
101282.377
101283.401
101284.407
101285.994
101289.033
101291.741
101292.607
101293.265
101294.849
101296.746
101299.393
101301.574
101302.91
101304.278
101306.339
101309.116
101311.305
101313.979
101316.393
101278.23
101278.223
101278.216
101278.209
101278.203
101278.198
101278.194
101278.19
101278.188
101278.186
101278.187
101278.189
101278.192
101278.197
101278.202
101278.209
101278.217
101278.229
101278.243
101278.261
101278.279
101278.298
101278.318
101278.34
101278.363
101278.386
101278.411
101278.437
101278.464
101278.491
101278.52
101278.544
101278.567
101278.599
101278.65
101278.681
101278.69
101278.718
101278.757
101278.786
101278.815
101278.847
101278.881
101278.92
101278.963
101279.016
101279.08
101279.16
101279.261
101279.385
101279.539
101279.728
101279.963
101280.257
101280.623
101281.077
101281.612
101282.256
101282.987
101283.823
101284.669
101285.765
101287.959
101290.757
101292.557
101293.328
101294.411
101296.161
101297.949
101299.269
101300.986
101303.188
101304.84
101306.736
101308.516
101310.688
101313.196
101315.511
101317.92
101320.085
101278.961
101278.954
101278.947
101278.941
101278.937
101278.934
101278.932
101278.932
101278.934
101278.936
101278.94
101278.947
101278.957
101278.968
101278.983
101279.001
101279.021
101279.042
101279.065
101279.091
101279.119
101279.149
101279.182
101279.216
101279.253
101279.291
101279.331
101279.373
101279.412
101279.451
101279.511
101279.577
101279.614
101279.645
101279.693
101279.751
101279.802
101279.853
101279.906
101279.961
101280.02
101280.084
101280.156
101280.237
101280.332
101280.444
101280.576
101280.734
101280.922
101281.146
101281.416
101281.745
101282.146
101282.636
101283.211
101283.897
101284.663
101285.569
101286.527
101287.688
101289.848
101292.174
101293.29
101294.002
101295.341
101297.124
101298.677
101299.975
101301.653
101303.435
101304.874
101306.144
101307.956
101310.116
101312.232
101314.427
101316.751
101318.975
101321.284
101323.079
101279.556
101279.55
101279.544
101279.54
101279.538
101279.538
101279.54
101279.544
101279.551
101279.56
101279.573
101279.588
101279.604
101279.624
101279.647
101279.672
101279.701
101279.733
101279.767
101279.805
101279.845
101279.889
101279.935
101279.984
101280.035
101280.086
101280.142
101280.213
101280.285
101280.337
101280.387
101280.456
101280.528
101280.596
101280.664
101280.735
101280.809
101280.887
101280.969
101281.058
101281.156
101281.265
101281.388
101281.528
101281.691
101281.88
101282.1
101282.358
101282.66
101283.017
101283.443
101283.951
101284.537
101285.22
101285.968
101286.826
101287.691
101288.911
101291.037
101293.028
101293.899
101294.407
101295.726
101297.571
101299.416
101300.736
101302.137
101303.546
101304.701
101306.099
101308.104
101310.068
101312.041
101314.02
101315.948
101318.058
101320.623
101323.086
101325.559
101328.272
101279.946
101279.942
101279.939
101279.938
101279.94
101279.944
101279.952
101279.962
101279.975
101279.99
101280.009
101280.032
101280.057
101280.087
101280.12
101280.157
101280.197
101280.241
101280.288
101280.339
101280.394
101280.451
101280.51
101280.575
101280.653
101280.726
101280.79
101280.863
101280.945
101281.03
101281.112
101281.196
101281.283
101281.373
101281.467
101281.565
101281.669
101281.781
101281.903
101282.037
101282.186
101282.354
101282.544
101282.762
101283.013
101283.302
101283.635
101284.021
101284.472
101285.003
101285.615
101286.325
101287.107
101288.001
101288.945
101290.115
101292.085
101293.858
101294.617
101295.257
101296.593
101298.191
101299.611
101301.014
101302.022
101303.237
101305.068
101306.773
101308.439
101310.318
101312.219
101314.142
101316.107
101318.146
101320.363
101322.532
101324.225
101326.332
101328.742
101330.673
101280.054
101280.054
101280.055
101280.059
101280.066
101280.077
101280.09
101280.107
101280.128
101280.152
101280.181
101280.213
101280.25
101280.291
101280.336
101280.385
101280.438
101280.496
101280.558
101280.622
101280.693
101280.775
101280.853
101280.926
101281.01
101281.102
101281.195
101281.289
101281.387
101281.488
101281.592
101281.701
101281.814
101281.932
101282.058
101282.192
101282.337
101282.495
101282.67
101282.863
101283.081
101283.327
101283.606
101283.923
101284.285
101284.696
101285.165
101285.705
101286.317
101287.01
101287.768
101288.631
101289.561
101290.712
101292.489
101294.166
101295.095
101295.786
101296.833
101298.336
101299.872
101301.079
101302.303
101303.802
101305.33
101306.918
101308.668
101310.46
101312.182
101313.937
101315.72
101317.628
101319.589
101321.524
101323.576
101325.591
101327.523
101329.463
101331.775
101334.597
101279.8
101279.804
101279.812
101279.822
101279.837
101279.855
101279.877
101279.903
101279.934
101279.969
101280.009
101280.054
101280.103
101280.157
101280.216
101280.28
101280.347
101280.421
101280.506
101280.589
101280.67
101280.761
101280.86
101280.96
101281.064
101281.172
101281.284
101281.4
101281.521
101281.646
101281.777
101281.915
101282.061
101282.217
101282.385
101282.567
101282.767
101282.988
101283.233
101283.508
101283.817
101284.166
101284.559
101285.003
101285.501
101286.061
101286.693
101287.397
101288.17
101288.995
101289.855
101291.014
101292.744
101294.305
101295.098
101295.725
101296.96
101298.521
101300.057
101301.556
101303.051
101304.735
101306.123
101307.169
101308.456
101310.084
101311.792
101313.487
101315.211
101317.022
101318.953
101320.875
101322.781
101324.845
101326.777
101328.678
101331.4
101334.893
101337.124
101338.65
101279.104
101279.116
101279.131
101279.151
101279.174
101279.202
101279.235
101279.273
101279.316
101279.364
101279.417
101279.475
101279.539
101279.608
101279.683
101279.768
101279.854
101279.94
101280.036
101280.139
101280.246
101280.356
101280.472
101280.592
101280.717
101280.848
101280.983
101281.125
101281.274
101281.43
101281.596
101281.773
101281.964
101282.17
101282.395
101282.643
101282.918
101283.224
101283.566
101283.949
101284.378
101284.86
101285.399
101286.001
101286.673
101287.422
101288.264
101289.183
101290.191
101291.195
101292.603
101294.221
101295.228
101296.282
101297.687
101299.145
101300.451
101301.61
101302.799
101304.054
101305.238
101306.347
101307.679
101309.244
101310.688
101312.365
101314.506
101316.398
101318.158
101320.21
101322.454
101324.714
101326.697
101328.884
101331.634
101334.023
101335.547
101336.737
101338.42
101340.743
101277.884
101277.904
101277.93
101277.96
101277.995
101278.035
101278.081
101278.132
101278.188
101278.25
101278.318
101278.393
101278.476
101278.562
101278.652
101278.749
101278.854
101278.964
101279.079
101279.199
101279.325
101279.457
101279.594
101279.738
101279.888
101280.045
101280.21
101280.385
101280.57
101280.769
101280.982
101281.213
101281.464
101281.74
101282.045
101282.382
101282.757
101283.173
101283.636
101284.149
101284.716
101285.339
101286.019
101286.759
101287.558
101288.388
101289.273
101290.401
101291.953
101293.699
101294.869
101295.789
101296.883
101298.195
101299.444
101300.403
101301.332
101302.381
101303.66
101305.326
101307.143
101309.139
101311.19
101313.34
101315.715
101317.73
101319.175
101320.754
101322.633
101324.391
101325.666
101327.005
101329.028
101331.036
101332.453
101334.547
101337.215
101339.55
101341.744
101344.198
101276.066
101276.097
101276.136
101276.179
101276.227
101276.281
101276.341
101276.407
101276.48
101276.559
101276.643
101276.732
101276.83
101276.934
101277.044
101277.159
101277.282
101277.41
101277.545
101277.686
101277.833
101277.988
101278.15
101278.321
101278.502
101278.693
101278.897
101279.115
101279.351
101279.607
101279.887
101280.194
101280.533
101280.908
101281.324
101281.786
101282.298
101282.864
101283.488
101284.172
101284.919
101285.729
101286.602
101287.54
101288.55
101289.588
101290.916
101292.465
101293.655
101294.482
101295.604
101297.125
101298.643
101299.867
101301.124
101302.877
101304.705
101306.618
101308.381
101309.87
101311.295
101312.813
101314.406
101316.098
101317.895
101319.661
101321.521
101323.697
101325.362
101326.644
101328.572
101330.467
101332.308
101334.649
101336.561
101338.487
101340.81
101343.243
101345.485
101347.728
101273.594
101273.638
101273.691
101273.749
101273.812
101273.881
101273.957
101274.038
101274.126
101274.221
101274.322
101274.429
101274.543
101274.664
101274.791
101274.925
101275.066
101275.214
101275.369
101275.532
101275.704
101275.886
101276.079
101276.284
101276.504
101276.741
101276.998
101277.277
101277.584
101277.921
101278.295
101278.709
101279.168
101279.679
101280.245
101280.871
101281.561
101282.319
101283.145
101284.04
101285.003
101286.03
101287.112
101288.239
101289.38
101290.794
101292.039
101293.186
101294.55
101296.08
101297.696
101299.047
101300.565
101302.425
101303.944
101305.257
101306.919
101308.695
101310.23
101311.688
101313.214
101314.749
101316.328
101317.981
101319.808
101321.665
101323.399
101325.18
101327.353
101329.368
101330.989
101333.42
101335.8
101337.463
101339.483
101341.674
101343.693
101345.622
101347.566
101349.84
101270.444
101270.503
101270.573
101270.647
101270.726
101270.811
101270.902
101270.999
101271.103
101271.213
101271.33
101271.453
101271.583
101271.72
101271.864
101272.016
101272.175
101272.343
101272.521
101272.709
101272.909
101273.123
101273.353
101273.602
101273.872
101274.167
101274.491
101274.848
101275.243
101275.682
101276.168
101276.707
101277.304
101277.964
101278.69
101279.485
101280.353
101281.293
101282.31
101283.402
101284.573
101285.825
101287.155
101288.599
101290.182
101291.675
101293.086
101294.35
101295.588
101297.028
101298.479
101300.001
101301.449
101302.738
101304.251
101306.068
101307.794
101309.549
101311.233
101312.856
101314.451
101315.987
101317.707
101319.542
101321.749
101324.226
101326.521
101328.242
101330.429
101333.727
101335.461
101335.937
101337.172
101339.423
101341.244
101343.92
101346.25
101348.093
101349.738
101351.944
101266.656
101266.731
101266.819
101266.909
101267.004
101267.105
101267.212
101267.325
101267.444
101267.57
101267.702
101267.842
101267.988
101268.142
101268.305
101268.476
101268.658
101268.852
101269.059
101269.281
101269.52
101269.78
101270.064
101270.376
101270.719
101271.099
101271.521
101271.99
101272.51
101273.088
101273.729
101274.436
101275.214
101276.065
101276.991
101277.993
101279.068
101280.215
101281.429
101282.707
101284.044
101285.427
101286.842
101288.281
101289.804
101291.358
101292.948
101294.438
101295.724
101296.93
101297.985
101299.381
101301.414
101303.386
101305.461
101307.59
101309.726
101311.904
101314.099
101316.371
101318.66
101321.072
101323.548
101325.88
101327.261
101328.449
101330.01
101331.992
101333.537
101334.304
101335.824
101338.066
101340.233
101342.687
101344.936
101347.022
101349.114
101351.341
101353.046
101354.854
101262.296
101262.387
101262.493
101262.6
101262.711
101262.828
101262.95
101263.078
101263.213
101263.354
101263.502
101263.658
101263.823
101263.997
101264.182
101264.38
101264.592
101264.82
101265.068
101265.338
101265.635
101265.961
101266.322
101266.723
101267.168
101267.663
101268.213
101268.824
101269.5
101270.245
101271.062
101271.954
101272.923
101273.967
101275.085
101276.274
101277.527
101278.829
101280.194
101281.601
101282.997
101284.288
101285.693
101287.435
101289.378
101291.323
101293.281
101295.423
101297.911
101300.651
101303.686
101305.61
101306.852
101308.29
101309.969
101311.599
101313.118
101314.768
101316.605
101318.487
101320.391
101322.453
101324.668
101326.581
101328.314
101330.382
101332.704
101334.246
101336.079
101338.674
101340.436
101341.981
101343.622
101345.25
101348.021
101350.486
101353.246
101356.647
101359.516
101360.379
101257.582
101257.689
101257.812
101257.937
101258.064
101258.197
101258.336
101258.481
101258.633
101258.793
101258.963
101259.142
101259.333
101259.537
101259.757
101259.995
101260.255
101260.539
101260.852
101261.199
101261.583
101262.01
101262.486
101263.015
101263.604
101264.257
101264.979
101265.774
101266.643
101267.589
101268.611
101269.707
101270.873
101272.103
101273.389
101274.726
101276.086
101277.575
101279.525
101281.927
101284.39
101286.941
101289.498
101291.295
101292.571
101294.143
101296.091
101297.915
101299.578
101301.297
101303.067
101305.2
101307.665
101309.556
101311.028
101312.681
101314.506
101316.367
101318.334
101320.281
101322.22
101324.173
101326.258
101328.629
101330.85
101332.937
101335.122
101337.239
101339.233
101342.029
101344.536
101346.129
101348.486
101350.863
101352.184
101354.473
101356.872
101358.84
101361.17
101363.396
101257.572
101257.577
101257.582
101257.584
101257.586
101257.585
101257.583
101257.579
101257.574
101257.566
101257.557
101257.546
101257.533
101257.518
101257.501
101257.481
101257.459
101257.435
101257.408
101257.379
101257.346
101257.311
101257.273
101257.231
101257.186
101257.138
101257.086
101257.03
101256.97
101256.906
101256.837
101256.764
101256.685
101256.602
101256.514
101256.419
101256.319
101256.213
101256.1
101255.981
101255.854
101255.72
101255.578
101255.427
101255.268
101255.099
101254.921
101254.732
101254.531
101254.318
101254.09
101253.848
101253.59
101253.315
101253.02
101252.705
101252.365
101252
101251.603
101251.172
101250.7
101250.18
101249.605
101248.965
101248.251
101247.453
101246.562
101245.567
101244.455
101243.204
101241.799
101240.235
101238.725
101237.051
101235.312
101233.082
101230.347
101227.772
101225.034
101222.252
101258.059
101258.063
101258.067
101258.07
101258.071
101258.07
101258.068
101258.065
101258.06
101258.054
101258.046
101258.036
101258.024
101258.011
101257.995
101257.978
101257.959
101257.937
101257.913
101257.887
101257.858
101257.827
101257.793
101257.756
101257.716
101257.673
101257.627
101257.578
101257.524
101257.467
101257.406
101257.341
101257.272
101257.198
101257.12
101257.036
101256.948
101256.854
101256.754
101256.649
101256.537
101256.418
101256.292
101256.16
101256.019
101255.87
101255.712
101255.545
101255.368
101255.18
101254.979
101254.765
101254.536
101254.292
101254.03
101253.75
101253.447
101253.121
101252.766
101252.379
101251.954
101251.485
101250.965
101250.386
101249.742
101249.027
101248.234
101247.355
101246.375
101245.287
101244.1
101242.829
101241.47
101240.108
101238.508
101236.715
101234.784
101232.655
101230.177
101227.613
101258.765
101258.768
101258.772
101258.774
101258.775
101258.775
101258.774
101258.772
101258.768
101258.763
101258.756
101258.748
101258.739
101258.728
101258.716
101258.702
101258.686
101258.669
101258.649
101258.627
101258.604
101258.578
101258.55
101258.52
101258.487
101258.451
101258.413
101258.372
101258.328
101258.28
101258.23
101258.176
101258.118
101258.057
101257.992
101257.923
101257.849
101257.771
101257.688
101257.6
101257.507
101257.408
101257.304
101257.193
101257.075
101256.951
101256.819
101256.678
101256.53
101256.372
101256.203
101256.023
101255.83
101255.622
101255.4
101255.161
101254.904
101254.626
101254.326
101253.999
101253.642
101253.25
101252.819
101252.343
101251.818
101251.239
101250.599
101249.888
101249.098
101248.225
101247.27
101246.231
101245.091
101243.822
101242.401
101240.822
101239.076
101237.112
101234.947
101232.88
101259.663
101259.666
101259.67
101259.672
101259.673
101259.674
101259.673
101259.672
101259.67
101259.667
101259.663
101259.657
101259.651
101259.643
101259.635
101259.625
101259.614
101259.601
101259.587
101259.571
101259.554
101259.535
101259.514
101259.492
101259.467
101259.441
101259.412
101259.382
101259.349
101259.313
101259.276
101259.235
101259.192
101259.147
101259.098
101259.046
101258.99
101258.931
101258.869
101258.803
101258.733
101258.659
101258.581
101258.497
101258.409
101258.316
101258.217
101258.112
101258.001
101257.883
101257.758
101257.624
101257.481
101257.328
101257.164
101256.988
101256.799
101256.595
101256.375
101256.137
101255.878
101255.594
101255.28
101254.931
101254.542
101254.105
101253.612
101253.054
101252.426
101251.726
101250.953
101250.101
101249.163
101248.145
101247.058
101245.902
101244.642
101243.254
101241.659
101239.33
101260.71
101260.713
101260.716
101260.718
101260.72
101260.721
101260.722
101260.722
101260.722
101260.721
101260.719
101260.717
101260.714
101260.71
101260.705
101260.7
101260.694
101260.686
101260.678
101260.669
101260.659
101260.647
101260.635
101260.621
101260.606
101260.59
101260.572
101260.552
101260.531
101260.509
101260.485
101260.46
101260.433
101260.404
101260.372
101260.339
101260.303
101260.266
101260.226
101260.183
101260.138
101260.091
101260.04
101259.987
101259.93
101259.87
101259.806
101259.738
101259.666
101259.59
101259.509
101259.422
101259.33
101259.231
101259.125
101259.012
101258.89
101258.759
101258.618
101258.464
101258.297
101258.113
101257.909
101257.682
101257.427
101257.137
101256.805
101256.424
101255.987
101255.491
101254.933
101254.317
101253.649
101252.938
101252.189
101251.397
101250.558
101249.703
101248.809
101247.386
101261.869
101261.872
101261.874
101261.877
101261.879
101261.881
101261.882
101261.884
101261.885
101261.886
101261.887
101261.888
101261.888
101261.888
101261.887
101261.886
101261.885
101261.884
101261.882
101261.879
101261.876
101261.872
101261.868
101261.863
101261.857
101261.851
101261.844
101261.836
101261.828
101261.821
101261.812
101261.8
101261.787
101261.775
101261.762
101261.748
101261.732
101261.716
101261.699
101261.681
101261.662
101261.641
101261.619
101261.597
101261.572
101261.546
101261.519
101261.49
101261.459
101261.426
101261.391
101261.354
101261.315
101261.273
101261.228
101261.181
101261.131
101261.079
101261.024
101260.967
101260.905
101260.838
101260.764
101260.68
101260.58
101260.459
101260.31
101260.124
101259.894
101259.618
101259.293
101258.926
101258.52
101258.077
101257.599
101257.093
101256.553
101256.013
101255.454
101254.576
101263.089
101263.091
101263.094
101263.096
101263.098
101263.1
101263.103
101263.105
101263.108
101263.111
101263.114
101263.117
101263.12
101263.124
101263.127
101263.13
101263.134
101263.137
101263.141
101263.144
101263.147
101263.151
101263.154
101263.157
101263.161
101263.165
101263.17
101263.174
101263.176
101263.178
101263.181
101263.184
101263.187
101263.19
101263.194
101263.197
101263.201
101263.204
101263.208
101263.213
101263.217
101263.222
101263.227
101263.233
101263.238
101263.245
101263.251
101263.258
101263.265
101263.272
101263.28
101263.288
101263.296
101263.305
101263.315
101263.325
101263.337
101263.351
101263.369
101263.39
101263.415
101263.445
101263.48
101263.518
101263.556
101263.592
101263.618
101263.626
101263.609
101263.556
101263.463
101263.322
101263.133
101262.899
101262.647
101262.391
101262.109
101261.702
101261.347
101260.999
101264.334
101264.335
101264.336
101264.338
101264.34
101264.342
101264.345
101264.348
101264.352
101264.356
101264.36
101264.365
101264.371
101264.376
101264.383
101264.389
101264.397
101264.404
101264.412
101264.422
101264.431
101264.441
101264.451
101264.462
101264.472
101264.483
101264.493
101264.505
101264.519
101264.532
101264.546
101264.561
101264.577
101264.593
101264.611
101264.629
101264.649
101264.67
101264.692
101264.715
101264.74
101264.767
101264.795
101264.825
101264.857
101264.891
101264.927
101264.965
101265.005
101265.047
101265.091
101265.139
101265.188
101265.241
101265.296
101265.355
101265.417
101265.485
101265.558
101265.639
101265.727
101265.825
101265.937
101266.063
101266.203
101266.357
101266.521
101266.689
101266.853
101267
101267.12
101267.219
101267.294
101267.299
101267.253
101267.106
101266.882
101266.846
101266.902
101266.304
101265.557
101265.557
101265.557
101265.557
101265.559
101265.56
101265.563
101265.566
101265.57
101265.575
101265.581
101265.587
101265.593
101265.601
101265.609
101265.618
101265.627
101265.637
101265.648
101265.659
101265.671
101265.684
101265.698
101265.713
101265.729
101265.746
101265.764
101265.782
101265.802
101265.823
101265.845
101265.868
101265.893
101265.919
101265.947
101265.976
101266.007
101266.041
101266.076
101266.113
101266.153
101266.196
101266.241
101266.288
101266.339
101266.393
101266.449
101266.509
101266.572
101266.639
101266.71
101266.784
101266.862
101266.945
101267.034
101267.127
101267.228
101267.337
101267.46
101267.603
101267.768
101267.951
101268.152
101268.374
101268.621
101268.899
101269.208
101269.541
101269.886
101270.222
101270.524
101270.791
101270.987
101271.158
101271.218
101271.163
101271.082
101271.034
101270.956
101270.54
101266.733
101266.731
101266.729
101266.728
101266.728
101266.728
101266.73
101266.732
101266.734
101266.738
101266.743
101266.748
101266.755
101266.762
101266.771
101266.78
101266.79
101266.801
101266.813
101266.826
101266.84
101266.855
101266.871
101266.888
101266.907
101266.926
101266.947
101266.968
101266.992
101267.016
101267.042
101267.07
101267.099
101267.13
101267.163
101267.198
101267.235
101267.275
101267.317
101267.361
101267.409
101267.459
101267.512
101267.569
101267.628
101267.691
101267.758
101267.829
101267.905
101267.987
101268.073
101268.165
101268.261
101268.364
101268.474
101268.591
101268.718
101268.852
101268.988
101269.127
101269.278
101269.462
101269.691
101269.96
101270.263
101270.611
101271.006
101271.448
101271.928
101272.431
101272.928
101273.318
101273.549
101273.658
101273.649
101273.591
101273.582
101273.682
101273.808
101273.513
101267.829
101267.825
101267.821
101267.818
101267.815
101267.814
101267.813
101267.814
101267.815
101267.817
101267.82
101267.824
101267.83
101267.836
101267.843
101267.851
101267.86
101267.87
101267.881
101267.893
101267.907
101267.921
101267.937
101267.953
101267.971
101267.99
101268.011
101268.032
101268.055
101268.08
101268.106
101268.133
101268.163
101268.195
101268.229
101268.264
101268.302
101268.342
101268.385
101268.43
101268.481
101268.536
101268.594
101268.656
101268.724
101268.797
101268.872
101268.949
101269.029
101269.113
101269.2
101269.292
101269.386
101269.483
101269.583
101269.684
101269.788
101269.903
101270.037
101270.188
101270.345
101270.514
101270.686
101270.875
101271.106
101271.38
101271.697
101272.057
101272.447
101272.847
101273.297
101273.763
101274.155
101274.273
101274.232
101274.214
101274.288
101274.48
101274.748
101274.722
101268.837
101268.83
101268.824
101268.818
101268.813
101268.809
101268.806
101268.803
101268.802
101268.802
101268.802
101268.804
101268.806
101268.809
101268.814
101268.819
101268.826
101268.833
101268.842
101268.851
101268.862
101268.873
101268.886
101268.899
101268.914
101268.93
101268.947
101268.965
101268.985
101269.005
101269.027
101269.051
101269.077
101269.104
101269.132
101269.162
101269.196
101269.23
101269.27
101269.315
101269.358
101269.401
101269.446
101269.494
101269.544
101269.597
101269.658
101269.727
101269.801
101269.877
101269.955
101270.036
101270.118
101270.202
101270.288
101270.375
101270.463
101270.553
101270.636
101270.72
101270.817
101270.927
101271.053
101271.192
101271.349
101271.531
101271.741
101271.981
101272.244
101272.517
101272.769
101273.001
101273.201
101273.283
101273.293
101273.37
101273.543
101273.864
101274.369
101274.643
101269.745
101269.736
101269.726
101269.717
101269.71
101269.702
101269.696
101269.69
101269.685
101269.682
101269.679
101269.676
101269.675
101269.675
101269.675
101269.677
101269.679
101269.682
101269.686
101269.691
101269.696
101269.703
101269.71
101269.718
101269.727
101269.737
101269.748
101269.759
101269.772
101269.785
101269.8
101269.816
101269.833
101269.852
101269.873
101269.893
101269.912
101269.932
101269.953
101269.975
101270.003
101270.037
101270.072
101270.108
101270.146
101270.185
101270.225
101270.265
101270.305
101270.35
101270.398
101270.448
101270.501
101270.554
101270.609
101270.664
101270.72
101270.775
101270.83
101270.879
101270.925
101270.968
101271.01
101271.052
101271.095
101271.144
101271.204
101271.273
101271.346
101271.415
101271.486
101271.524
101271.512
101271.471
101271.445
101271.531
101271.82
101272.415
101273.259
101273.863
101270.556
101270.543
101270.53
101270.518
101270.507
101270.496
101270.486
101270.476
101270.468
101270.46
101270.453
101270.446
101270.44
101270.435
101270.431
101270.428
101270.425
101270.422
101270.421
101270.42
101270.42
101270.421
101270.422
101270.424
101270.426
101270.429
101270.433
101270.437
101270.442
101270.446
101270.45
101270.453
101270.456
101270.459
101270.462
101270.469
101270.477
101270.486
101270.495
101270.504
101270.511
101270.518
101270.527
101270.538
101270.551
101270.566
101270.583
101270.602
101270.622
101270.641
101270.661
101270.68
101270.698