/*--------------------------------*- C++ -*----------------------------------*\
  =========                 |
  \\      /  F ield         | OpenFOAM: The Open Source CFD Toolbox
   \\    /   O peration     | Website:  https://openfoam.org
    \\  /    A nd           | Version:  8
     \\/     M anipulation  |
\*---------------------------------------------------------------------------*/
FoamFile
{
    version     2.0;
    format      ascii;
    class       surfaceScalarField;
    location    "0.01";
    object      phi;
}
// * * * * * * * * * * * * * * * * * * * * * * * * * * * * * * * * * * * * * //

dimensions      [1 0 -1 0 0 0 0];

internalField   nonuniform List<scalar> 
84340
(
-6.71822485e-08
3.29215975e-07
-2.61380855e-07
-2.77491358e-07
1.04733096e-06
-8.35965688e-07
-6.41678314e-07
1.84349786e-06
-1.47800569e-06
-1.16841046e-06
2.71064801e-06
-2.18239479e-06
-1.86521868e-06
3.64251606e-06
-2.94399493e-06
-2.73890091e-06
4.63421578e-06
-3.75864136e-06
-3.79580144e-06
5.68217442e-06
-4.62320545e-06
-5.04195893e-06
6.7839871e-06
-5.53558091e-06
-6.48316417e-06
7.93824679e-06
-6.49460355e-06
-8.12495562e-06
9.14430648e-06
-7.49987521e-06
-9.97257231e-06
1.04020168e-05
-8.55154323e-06
-1.20308768e-05
1.17114776e-05
-9.65008206e-06
-1.43042574e-05
1.30728353e-05
-1.07961103e-05
-1.67965165e-05
1.44861318e-05
-1.19902543e-05
-1.95107355e-05
1.59511904e-05
-1.32330566e-05
-2.24491449e-05
1.74675551e-05
-1.45249109e-05
-2.56129619e-05
1.903444e-05
-1.58660421e-05
-2.90022356e-05
2.06507069e-05
-1.72564791e-05
-3.26156664e-05
2.23148554e-05
-1.86960678e-05
-3.64504191e-05
2.40250121e-05
-2.01844686e-05
-4.050192e-05
2.57789246e-05
-2.1721165e-05
-4.47636373e-05
2.75739504e-05
-2.33054709e-05
-4.92268293e-05
2.94070318e-05
-2.49365352e-05
-5.38802791e-05
3.12746725e-05
-2.66133351e-05
-5.87099788e-05
3.31728822e-05
-2.83346674e-05
-6.36987923e-05
3.50971204e-05
-3.0099118e-05
-6.88260798e-05
3.70422125e-05
-3.19050114e-05
-7.40672844e-05
3.90022702e-05
-3.37503744e-05
-7.93934728e-05
4.09705713e-05
-3.56328564e-05
-8.4770783e-05
4.29393908e-05
-3.75496587e-05
-9.01598866e-05
4.48999474e-05
-3.94974598e-05
-9.55158368e-05
4.68426806e-05
-4.14723261e-05
-0.000100788161
4.87573551e-05
-4.34695375e-05
-0.000105915177
5.0627044e-05
-4.54833603e-05
-0.000110823331
5.24338276e-05
-4.75076747e-05
-0.000115423147
5.41566223e-05
-4.9537322e-05
-0.000119617596
5.57830404e-05
-5.15680297e-05
-0.000123315338
5.73086201e-05
-5.35892831e-05
-0.000126410215
5.86686539e-05
-5.5550352e-05
-0.000128733257
5.97856049e-05
-5.74371189e-05
-0.000130010402
6.05821288e-05
-5.92777186e-05
-0.00012996879
6.10193335e-05
-6.10317809e-05
-0.000128343064
6.10226401e-05
-6.26170033e-05
-0.000124886473
6.04924242e-05
-6.39152971e-05
-0.000119281984
5.93197916e-05
-6.48881404e-05
-0.000111160353
5.73741803e-05
-6.54570685e-05
-0.000100096844
5.45278621e-05
-6.55498993e-05
-8.56499302e-05
5.06290356e-05
-6.50315886e-05
-6.72899154e-05
4.54415421e-05
-6.37541933e-05
-4.45521749e-05
3.88502364e-05
-6.15374736e-05
-1.7253608e-05
3.09586971e-05
-5.82034739e-05
1.53101688e-05
2.09776412e-05
-5.34839029e-05
5.40319469e-05
8.64299193e-06
-4.73041043e-05
9.99410213e-05
-6.50879706e-06
-3.93366558e-05
0.000154083334
-2.45038296e-05
-2.9570398e-05
0.00021766169
-4.64552827e-05
-1.70499323e-05
0.000291998181
-7.2706276e-05
-1.55252449e-06
0.000378340683
-0.000103715945
1.7455647e-05
0.00047838872
-0.000140151704
4.01905714e-05
0.000593399316
-0.000182791391
6.78726961e-05
0.000724870837
-0.000232338347
0.000100963995
0.000874685386
-0.000289647543
0.00013993548
0.00104454161
-0.000355495889
0.000185746705
0.00123569951
-0.000430257363
0.000239211121
0.00144974726
-0.000515234581
0.000301298593
0.00168884947
-0.000611979366
0.00037298155
0.00195451462
-0.000720441905
0.000454872137
0.00225242301
-0.000848063256
0.000550242126
0.00258780755
-0.000983348541
0.000648043692
0.00293434204
-0.00109270318
0.000746241392
0.00328446665
-0.00126929563
0.000919237145
0.00374290582
-0.0015248436
0.00106646603
0.00426281351
-0.00162138055
0.00110153064
0.00463411484
-0.0017497775
0.00137853184
0.00500747611
-0.00215736576
0.00178406091
0.00561443783
-0.00247935465
0.00187244571
0.00636264447
-0.00248343592
0.00173528186
0.00680161398
-0.002575224
0.00213631478
0.0069570742
-0.00278621053
0.0026308465
-0.00301379392
0.00285250503
0.00711846553
-5.14584605e-08
3.81627439e-07
-2.14974436e-07
1.21220163e-06
-5.00067216e-07
2.13015343e-06
-9.14116295e-07
3.12645277e-06
-1.46311828e-06
4.19345646e-06
-2.15219325e-06
5.32540904e-06
-2.98595342e-06
6.51823625e-06
-3.96855319e-06
7.7690802e-06
-5.10374141e-06
9.07613198e-06
-6.39485061e-06
1.04383309e-05
-7.84473897e-06
1.18550555e-05
-9.45570079e-06
1.33258436e-05
-1.12293506e-05
1.48501636e-05
-1.31664851e-05
1.64272408e-05
-1.52669369e-05
1.80559365e-05
-1.75293942e-05
1.97346515e-05
-1.99512185e-05
2.14612755e-05
-2.25282382e-05
2.32331384e-05
-2.52545172e-05
2.50469778e-05
-2.81221092e-05
2.68989118e-05
-3.11207849e-05
2.87844076e-05
-3.42377272e-05
3.06982368e-05
-3.74572111e-05
3.2634437e-05
-4.07602444e-05
3.45862468e-05
-4.41241765e-05
3.6546021e-05
-4.75222668e-05
3.85051312e-05
-5.09231615e-05
4.04537938e-05
-5.42904288e-05
4.23810449e-05
-5.75823905e-05
4.42749168e-05
-6.07509893e-05
4.6121324e-05
-6.37386015e-05
4.79019255e-05
-6.64756956e-05
4.95951346e-05
-6.88879234e-05
5.11859908e-05
-7.08941808e-05
5.26509504e-05
-7.24174516e-05
5.39760687e-05
-7.33517011e-05
5.5111172e-05
-7.35447889e-05
5.59978673e-05
-7.27699952e-05
5.655712e-05
-7.08112213e-05
5.67348138e-05
-6.74554038e-05
5.64566472e-05
-6.24746783e-05
5.56303268e-05
-5.55992106e-05
5.41748351e-05
-4.65129349e-05
5.19694918e-05
-3.48706628e-05
4.88855391e-05
-2.02786473e-05
4.47655523e-05
-2.39835549e-06
3.95341635e-05
1.91953454e-05
3.29771076e-05
4.46901717e-05
2.51800364e-05
7.49255189e-05
1.52543589e-05
0.000110622269
3.20383227e-06
0.000152654827
-1.10201618e-05
0.000202038111
-2.83479807e-05
0.000259954243
-4.92117859e-05
0.00032751667
-7.40061658e-05
0.00040619481
-0.000103113167
0.000497045965
-0.000137233754
0.000601415469
-0.000176999176
0.000720929338
-0.000223148926
0.000857263914
-0.000276401521
0.00101202647
-0.00033746603
0.00118677067
-0.000406991517
0.00138280874
-0.000485591474
0.00160145508
-0.000574050897
0.00184354758
-0.000672267056
0.00211021643
-0.000781828817
0.00240432668
-0.000906022394
0.00272807542
-0.00104413018
0.00307998941
-0.00119992258
0.00347363962
-0.00137694899
0.00390678474
-0.00152580243
0.00430668768
-0.00166915558
0.00470869214
-0.00192680696
0.00525309538
-0.00216574515
0.00577643933
-0.00227308476
0.0060716836
-0.00245257413
0.00627805231
-0.00268568069
0.00663018068
-0.00283549844
0.00699754906
-0.00294252508
0.00722301291
-0.00301160172
-0.00313162843
0.00734093752
-3.92841788e-08
4.21928887e-07
-1.65648392e-07
1.34001218e-06
-3.86993526e-07
2.35316646e-06
-7.09005462e-07
3.45033745e-06
-1.13591623e-06
4.62243375e-06
-1.67088402e-06
5.86263362e-06
-2.31610991e-06
7.16591205e-06
-3.07340806e-06
8.52902948e-06
-3.9440031e-06
9.94959123e-06
-4.9285024e-06
1.14259221e-05
-6.02682285e-06
1.29567122e-05
-7.23808367e-06
1.45407036e-05
-8.56047372e-06
1.61764359e-05
-9.99109533e-06
1.78620492e-05
-1.15257858e-05
1.95951415e-05
-1.31589251e-05
2.13726577e-05
-1.48832115e-05
2.31908073e-05
-1.66894275e-05
2.50450062e-05
-1.85661723e-05
2.69298105e-05
-2.04995734e-05
2.88388684e-05
-2.24729662e-05
3.07648575e-05
-2.44665085e-05
3.26993734e-05
-2.64567046e-05
3.46328032e-05
-2.84159105e-05
3.65542394e-05
-3.03121157e-05
3.84516703e-05
-3.21083913e-05
4.03115521e-05
-3.37604525e-05
4.21167606e-05
-3.52171583e-05
4.38494789e-05
-3.64223896e-05
4.54927063e-05
-3.73155193e-05
4.70278361e-05
-3.783424e-05
4.84349832e-05
-3.78983383e-05
4.9674643e-05
-3.74024114e-05
5.07065783e-05
-3.62181986e-05
5.14844349e-05
-3.41696631e-05
5.19464719e-05
-3.10713459e-05
5.20331036e-05
-2.67231297e-05
5.16714269e-05
-2.09156647e-05
5.07730742e-05
-1.34249921e-05
4.92692078e-05
-3.99027297e-06
4.70487428e-05
7.67676719e-06
4.39919341e-05
2.19244424e-05
3.99577756e-05
3.90658737e-05
3.48607101e-05
5.94839423e-05
2.85022287e-05
8.32718195e-05
2.10148146e-05
0.000111327107
1.15179155e-05
0.00014431131
3.37044061e-08
0.000182997374
-1.34621683e-05
0.00022827672
-2.99777726e-05
0.000281163268
-4.96324508e-05
0.000343012887
-7.28163849e-05
0.000414766279
-0.000100044696
0.000497524062
-0.000131909588
0.000592567782
-0.000168986392
0.000701432217
-0.000211910391
0.000825628955
-0.000261359829
0.000966672941
-0.000317969746
0.00112613553
-0.000382535337
0.00130534642
-0.000455533451
0.00150556746
-0.000537606783
0.00172806007
-0.000629407549
0.00197399488
-0.000731456672
0.00224462347
-0.000844616604
0.00254032356
-0.000967910261
0.00286044444
-0.00110189835
0.00320396132
-0.00124949272
0.0035744766
-0.00141460321
0.0039625747
-0.00158798197
0.00436758813
-0.00178192665
0.00481204029
-0.00197022084
0.00526440236
-0.00212148599
0.00562274074
-0.00228511723
0.00593274807
-0.0024757232
0.00627293779
-0.00261323586
0.00654718714
-0.00272678311
0.00669297626
-0.00283142827
0.00679991312
-0.00294238293
0.00692653066
-0.00306908464
0.00707589455
-0.0031608844
-0.00324477457
0.00718913359
-3.26520959e-08
4.55615038e-07
-1.37715507e-07
1.44654066e-06
-3.21116903e-07
2.53825319e-06
-5.86444894e-07
3.71755442e-06
-9.35846482e-07
4.97391722e-06
-1.37029723e-06
6.2993567e-06
-1.8897338e-06
7.68781489e-06
-2.49293456e-06
9.13489815e-06
-3.17821412e-06
1.06377524e-05
-3.94303641e-06
1.21938544e-05
-4.78391598e-06
1.38009472e-05
-5.69629362e-06
1.54567005e-05
-6.67437225e-06
1.71584181e-05
-7.71093935e-06
1.89028258e-05
-8.79716163e-06
2.06859024e-05
-9.92235043e-06
2.25027388e-05
-1.10737151e-05
2.43474445e-05
-1.22360767e-05
2.62130481e-05
-1.33915395e-05
2.80913914e-05
-1.45190681e-05
2.99729842e-05
-1.55940415e-05
3.18469189e-05
-1.65879018e-05
3.37008573e-05
-1.74669367e-05
3.55200423e-05
-1.81933607e-05
3.72894944e-05
-1.87256848e-05
3.89934614e-05
-1.90183607e-05
4.0614351e-05
-1.90193872e-05
4.21286365e-05
-1.86615704e-05
4.35033196e-05
-1.78646204e-05
4.47082712e-05
-1.65316435e-05
4.57082568e-05
-1.45420857e-05
4.64597909e-05
-1.17642542e-05
4.69122119e-05
-8.0499816e-06
4.70087795e-05
-3.22650988e-06
4.66786719e-05
2.90178951e-06
4.58372112e-05
1.05340635e-05
4.44212163e-05
1.98957615e-05
4.23315435e-05
3.12290073e-05
3.94631458e-05
4.48502933e-05
3.56728478e-05
6.10541506e-05
3.08714789e-05
8.02106921e-05
2.48637393e-05
0.000102421576
1.77772455e-05
0.000128496838
8.81731591e-06
0.000159019629
-1.98736269e-06
0.000194685571
-1.46153963e-05
0.000236403684
-3.01615412e-05
0.000285043062
-4.85644882e-05
0.000341826354
-7.02016424e-05
0.000407482073
-9.55869538e-05
0.000483128448
-0.000125229441
0.000570015195
-0.000159650781
0.00066945684
-0.000199430729
0.000782819384
-0.000245213558
0.000911540475
-0.000297646355
0.0010570103
-0.000357316779
0.00122060431
-0.000424887926
0.00140358212
-0.000500879103
0.00160700556
-0.000585889699
0.00183190721
-0.000680369736
0.00207919489
-0.000784834595
0.00234952511
-0.000899683247
0.00264328588
-0.00102516766
0.00296021985
-0.00116150522
0.00329863697
-0.00130628583
0.00365545501
-0.00145867829
0.00402261399
-0.00161661642
0.00440066779
-0.00179262426
0.00478506446
-0.00197234871
0.00514756443
-0.00214440025
0.00547634902
-0.00229898038
0.00578647246
-0.00243158415
0.00603906766
-0.00253768621
0.00620636938
-0.00264298926
0.00634947912
-0.00275630585
0.00648843896
-0.00286570778
0.00662260423
-0.00296555241
0.0067336339
-0.00305335801
0.00681530889
-0.00315069668
0.00690549279
-0.00325099539
-0.0033452223
0.00700601153
-3.12666128e-08
4.87991331e-07
-1.30158357e-07
1.54700127e-06
-3.00291161e-07
2.71018801e-06
-5.42883049e-07
3.9621634e-06
-8.57514765e-07
5.29076855e-06
-1.24250687e-06
6.68676733e-06
-1.69521183e-06
8.14314156e-06
-2.21167229e-06
9.65419114e-06
-2.78644941e-06
1.12155835e-05
-3.41341458e-06
1.28241091e-05
-4.08515281e-06
1.44762269e-05
-4.79280018e-06
1.61681592e-05
-5.5258551e-06
1.78955736e-05
-6.2719548e-06
1.96533361e-05
-7.01660731e-06
2.14352978e-05
-7.74287364e-06
2.32341034e-05
-8.43100927e-06
2.50410591e-05
-9.05813347e-06
2.68460567e-05
-9.59796413e-06
2.86375434e-05
-1.0020529e-05
3.04023392e-05
-1.0292422e-05
3.21260835e-05
-1.03761508e-05
3.37923695e-05
-1.02252262e-05
3.53774685e-05
-9.78591432e-06
3.68591223e-05
-8.99496086e-06
3.82120445e-05
-7.77661688e-06
3.94062228e-05
-6.04338727e-06
4.04063788e-05
-3.70265343e-06
4.11743235e-05
-6.43686205e-07
4.16618482e-05
3.26592552e-06
4.18120873e-05
8.18215465e-06
4.15579899e-05
1.42720418e-05
4.08377723e-05
2.17181574e-05
3.95791877e-05
3.07230191e-05
3.7691477e-05
4.15053094e-05
3.5073798e-05
5.43321549e-05
3.16145431e-05
6.95172612e-05
2.71679518e-05
8.74037529e-05
2.15996041e-05
0.000108115752
1.4985433e-05
0.000132373116
6.63994609e-06
0.000160688361
-3.42455245e-06
0.000193688309
-1.51936699e-05
0.000232179711
-2.96426915e-05
0.000276958785
-4.67329346e-05
0.000329193515
-6.68144267e-05
0.000389424787
-9.03547855e-05
0.000458705924
-0.000117805186
0.000538193246
-0.000149645929
0.000629076648
-0.000186424524
0.000732608255
-0.000228712536
0.000850072965
-0.00027706465
0.000982783868
-0.000332088532
0.00113200349
-0.000394377962
0.0012989319
-0.000464517207
0.00148463309
-0.000542957896
0.00168996166
-0.000630155851
0.00191554458
-0.000726404519
0.00216174516
-0.000832037112
0.00242845606
-0.000947031681
0.00271534572
-0.00107167902
0.00302098399
-0.00120527977
0.00334339363
-0.00134753851
0.00367891684
-0.00149699237
0.00402370764
-0.00165104275
0.00437272135
-0.00180766011
0.00471702892
-0.00196089482
0.00503010054
-0.00210567067
0.0053004493
-0.00224267435
0.00551902284
-0.00236294725
0.00569288411
-0.00247280719
0.00584167237
-0.00258034231
0.00598435386
-0.00268033925
0.00611884054
-0.00277743257
0.0062331152
-0.00287053848
0.00632777812
-0.00296033857
0.0064131338
-0.00305086842
0.00650538363
-0.00314554844
0.00659450429
-0.00323975291
0.00668560555
-0.00334204158
-0.00343943827
0.00677987534
-3.3228635e-08
5.22294547e-07
-1.35329178e-07
1.65061842e-06
-3.07236196e-07
2.88383499e-06
-5.4740431e-07
4.204278e-06
-8.52509051e-07
5.59801487e-06
-1.21771627e-06
7.05430713e-06
-1.63682193e-06
8.5647748e-06
-2.10258174e-06
1.01226837e-05
-2.6059968e-06
1.1721948e-05
-3.1361808e-06
1.33574723e-05
-3.68095675e-06
1.50244282e-05
-4.22617963e-06
1.67170716e-05
-4.75547298e-06
1.84288403e-05
-5.24995256e-06
2.01520928e-05
-5.68795799e-06
2.18779063e-05
-6.04445347e-06
2.35955546e-05
-6.29116737e-06
2.52931081e-05
-6.39543514e-06
2.69560517e-05
-6.31972478e-06
2.85679776e-05
-6.01956327e-06
3.01087783e-05
-5.44356984e-06
3.15571776e-05
-4.53266943e-06
3.28890718e-05
-3.2236524e-06
3.4076604e-05
-1.44120297e-06
3.5085407e-05
9.03807408e-07
3.58763981e-05
3.9164124e-06
3.64036805e-05
7.71733682e-06
3.66162603e-05
1.24371833e-05
3.646605e-05
1.82228312e-05
3.58885957e-05
2.52385203e-05
3.48096698e-05
3.36660389e-05
3.3144674e-05
4.37186337e-05
3.08003659e-05
5.56449316e-05
2.76691303e-05
6.97341851e-05
2.36195604e-05
8.63074669e-05
1.85190648e-05
0.000105535725
1.24061757e-05
0.000128018426
4.70616779e-06
0.000154239148
-4.59922439e-06
0.000184750026
-1.55018629e-05
0.000220256647
-2.88411896e-05
0.000261463982
-4.46046697e-05
0.000309434575
-6.31352148e-05
0.00036466778
-8.48449188e-05
0.000428111402
-0.000110143544
0.000500808331
-0.000139476178
0.000583818446
-0.000173327355
0.000678269148
-0.000212216068
0.000785336774
-0.000256671625
0.000906206334
-0.000307250121
0.00104205037
-0.000364510603
0.00119402245
-0.000428988843
0.00136314886
-0.000501164888
0.00155020769
-0.000581384379
0.00175567765
-0.000669933986
0.00197970239
-0.000766931849
0.00222208187
-0.000872487937
0.00248213864
-0.000986417194
0.00275870926
-0.00110856653
0.00304938013
-0.00123766403
0.00335146314
-0.0013737257
0.00366074326
-0.00151452559
0.00397416703
-0.00166092957
0.00428448571
-0.00180728
0.00458225442
-0.00194878299
0.00484931312
-0.00207469338
0.0050790529
-0.00219061037
0.00526288543
-0.00228947619
0.00540582549
-0.00238558228
0.005527655
-0.00248474478
0.00563661412
-0.00258173989
0.0057291946
-0.00267289865
0.0058168653
-0.00276797994
0.00590292593
-0.00286345875
0.00598689471
-0.00295446151
0.00607244788
-0.00304584405
0.00615391689
-0.0031322914
0.00624164767
-0.00323322419
0.00633371563
-0.00333176925
0.00643774057
-0.00344601465
-0.00355040872
0.00654876022
-3.61890714e-08
5.59615629e-07
-1.43993373e-07
1.76001943e-06
-3.210879e-07
3.06276028e-06
-5.62541298e-07
4.44777796e-06
-8.61456571e-07
5.89917994e-06
-1.20917788e-06
7.40447644e-06
-1.59537014e-06
8.95361489e-06
-2.00799028e-06
1.05381605e-05
-2.43357942e-06
1.21506162e-05
-2.85614552e-06
1.37833525e-05
-3.25720205e-06
1.54290484e-05
-3.61564151e-06
1.70793427e-05
-3.90759157e-06
1.87249094e-05
-4.10574056e-06
2.03546591e-05
-4.17866484e-06
2.19555645e-05
-4.08987259e-06
2.35118515e-05
-3.79754013e-06
2.50062456e-05
-3.25524633e-06
2.64196138e-05
-2.40975555e-06
2.77287498e-05
-1.19983808e-06
2.89055677e-05
4.46521007e-07
2.99180137e-05
2.61389212e-06
3.07294161e-05
5.39545933e-06
3.13032971e-05
8.89602832e-06
3.15936795e-05
1.3233757e-05
3.15481326e-05
1.85410303e-05
3.11065311e-05
2.49679734e-05
3.02001445e-05
3.2694673e-05
2.87509242e-05
4.19229903e-05
2.66726489e-05
5.28822015e-05
2.38636657e-05
6.58732062e-05
2.01677458e-05
8.10830643e-05
1.56055653e-05
9.88052596e-05
9.96308513e-06
0.000119527406
2.91443656e-06
0.000143684201
-5.61983776e-06
0.000171782491
-1.56728482e-05
0.000204403832
-2.78943993e-05
0.000242190267
-4.23634578e-05
0.000286085907
-5.93737877e-05
0.000336562342
-7.92922989e-05
0.000394475416
-0.000102490724
0.000460741805
-0.000129372762
0.000536312146
-0.000160384442
0.000622199014
-0.000195997631
0.000719457019
-0.00023669955
0.000829170089
-0.000283003933
0.000952411836
-0.000335419501
0.00109021883
-0.000394438487
0.00124352636
-0.000460515741
0.00141309016
-0.000534030498
0.00159939136
-0.000615243934
0.00180254282
-0.000704269165
0.00202227431
-0.00080107026
0.0022578744
-0.000905491176
0.00250809457
-0.00101711174
0.00277121408
-0.00113556949
0.0030445331
-0.00125970037
0.0033248915
-0.00138889082
0.00360743332
-0.00152017318
0.00388792012
-0.00165418084
0.00416154396
-0.00178811974
0.00441484201
-0.00191420085
0.00463644357
-0.00202885645
0.00482114835
-0.00213346168
0.00497105315
-0.00222456881
0.00509406779
-0.0023135972
0.00520646761
-0.00240184946
0.00530764434
-0.00248673132
0.00539400846
-0.00257108244
0.00547541314
-0.0026631185
0.00554841686
-0.00274587555
0.0056156941
-0.00283521975
0.00567918906
-0.00292691566
0.00574676892
-0.00302200119
0.00581946536
-0.00311849714
0.00590474502
-0.00321753124
0.00599205824
-0.00332048473
0.00608211663
-0.00342176722
0.00617997101
-0.00354381679
-0.00366449428
0.00629410208
-3.78995786e-08
5.98582103e-07
-1.46904441e-07
1.8705277e-06
-3.20740991e-07
3.23831956e-06
-5.50368938e-07
4.6793313e-06
-8.24500923e-07
6.17542877e-06
-1.12972276e-06
7.71200275e-06
-1.45048553e-06
9.2768723e-06
-1.76899697e-06
1.08593647e-05
-2.06497812e-06
1.2449501e-05
-2.31579007e-06
1.40372923e-05
-2.49499739e-06
1.5611626e-05
-2.57253906e-06
1.71605164e-05
-2.51432636e-06
1.86706065e-05
-2.28139801e-06
2.01259307e-05
-1.82944064e-06
2.15081175e-05
-1.10811875e-06
2.27953856e-05
-5.8976263e-08
2.3962329e-05
1.38464536e-06
2.49816063e-05
3.29861415e-06
2.58208082e-05
5.76852027e-06
2.6442131e-05
8.89031841e-06
2.68031625e-05
1.27723666e-05
2.6854824e-05
1.75418425e-05
2.65418175e-05
2.3343403e-05
2.580069e-05
3.03409114e-05
2.45598076e-05
3.87185902e-05
2.27386884e-05
4.86954108e-05
2.02338482e-05
6.05205871e-05
1.69370159e-05
7.43864181e-05
1.28189296e-05
9.05807574e-05
7.68220393e-06
0.000109519778
1.24219208e-06
0.000131595363
-6.45570211e-06
0.00015726763
-1.56936314e-05
0.000187044202
-2.68453702e-05
0.000221490937
-4.00486418e-05
0.000261412912
-5.55756494e-05
0.00030729082
-7.37518134e-05
0.000359864358
-9.49151052e-05
0.000419946365
-0.000119432407
0.000488386217
-0.000147707136
0.000566090882
-0.00018016874
0.000654007707
-0.000217261346
0.000753100246
-0.000259447145
0.000864324535
-0.00030719047
0.000988600942
-0.000360942901
0.00112675683
-0.000421125153
0.00127947698
-0.000488103396
0.00144723609
-0.000562159606
0.00163022673
-0.0006434664
0.00182820832
-0.000731970665
0.00204053397
-0.00082752884
0.0022660962
-0.000929792743
0.00250324961
-0.00103818706
0.0027498222
-0.00115202894
0.00300270705
-0.00126996338
0.00325848739
-0.00139131787
0.00351260934
-0.0015137914
0.00376179494
-0.00163804625
0.00400008671
-0.00175843602
0.0042155933
-0.00186966147
0.00439971099
-0.00197221408
0.00454843764
-0.00206290049
0.00466912359
-0.00214950862
0.00477045099
-0.0022347594
0.00486479088
-0.00231888217
0.0049519152
-0.00240068877
0.00503147504
-0.00248137256
0.00510876782
-0.00256399144
0.00518075848
-0.00264304236
0.00524402791
-0.00272635256
0.00531240088
-0.00281421623
0.00537971638
-0.00290250142
0.00544866387
-0.00299582408
0.00551947503
-0.00309277134
0.00559632632
-0.00319530576
0.00568463319
-0.003305792
0.00578209342
-0.00341789081
0.00588245163
-0.00352207161
0.00597833442
-0.00363964741
-0.00376574968
0.00607963794
-3.57103158e-08
6.35421354e-07
-1.34046571e-07
1.97045512e-06
-2.84070795e-07
3.39016703e-06
-4.71753758e-07
4.86905125e-06
-6.80417957e-07
6.3863311e-06
-8.90736885e-07
7.92475559e-06
-1.08061205e-06
9.46937875e-06
-1.22484525e-06
1.10064358e-05
-1.29477197e-06
1.25224825e-05
-1.25796125e-06
1.40037648e-05
-1.07781451e-06
1.54350098e-05
-7.12507922e-07
1.67990047e-05
-1.14168481e-07
1.80763409e-05
7.7145373e-07
1.92446801e-05
2.00603945e-06
2.02782232e-05
3.65924504e-06
2.11472129e-05
5.80934452e-06
2.18176232e-05
8.5471404e-06
2.22495876e-05
1.1975273e-05
2.23988685e-05
1.62103133e-05
2.22137269e-05
2.13844973e-05
2.16360843e-05
2.76477362e-05
2.05991904e-05
3.51703753e-05
1.90273169e-05
4.41497176e-05
1.68300478e-05
5.47986757e-05
1.39201619e-05
6.72963354e-05
1.02510265e-05
8.19544752e-05
5.58633697e-06
9.9099227e-05
-1.96566398e-07
0.000119089155
-7.1591011e-06
0.000142333476
-1.55492655e-05
0.0001692495
-2.56600142e-05
0.000200442103
-3.76335155e-05
0.000236487439
-5.17231382e-05
0.000277876156
-6.82171532e-05
0.000325265978
-8.74203606e-05
0.000379374153
-0.000109664465
0.000440954841
-0.00013531178
0.000510809848
-0.000164747997
0.000589775944
-0.000198375011
0.000678704049
-0.000236610349
0.000778437124
-0.000279875501
0.00088978645
-0.00032858291
0.0010134893
-0.000383120786
0.00115016374
-0.000443834229
0.00130025558
-0.00051100262
0.00146397653
-0.000584812512
0.00164122947
-0.000665321043
0.00183151023
-0.000752403139
0.00203385277
-0.000845771563
0.00224683799
-0.00094492018
0.002468535
-0.00104919183
0.00269657306
-0.00115779827
0.00292788537
-0.00126946818
0.00315905412
-0.00138316753
0.00338572593
-0.0014966057
0.00360431064
-0.0016098735
0.00381014154
-0.00171959541
0.00399317538
-0.0018210551
0.00415024938
-0.00191548368
0.00427962032
-0.00199900553
0.00438414335
-0.00207671297
0.00447609059
-0.00215482359
0.0045594386
-0.00223283133
0.0046340845
-0.00230937932
0.00470183202
-0.00238660082
0.00476412431
-0.002462951
0.00482427844
-0.00254149599
0.00488402027
-0.00262369411
0.00494908645
-0.00270807193
0.00501508302
-0.0027923188
0.00508502575
-0.00288412291
0.00515927152
-0.0029767092
0.00523574971
-0.00307226236
0.00531329029
-0.00317026993
0.00539448284
-0.00327645444
0.00547727229
-0.00338853512
0.00556744769
-0.00350801963
0.00566586439
-0.00362043931
0.00576055399
-0.00373428495
-0.00384588225
0.00584073611
-2.85216734e-08
6.64983851e-07
-1.00040916e-07
2.04343986e-06
-1.97666367e-07
3.4894707e-06
-3.01011409e-07
4.97427106e-06
-3.86455198e-07
6.47383635e-06
-4.26987727e-07
7.96753269e-06
-3.91976733e-07
9.43679773e-06
-2.46681978e-07
1.08637658e-05
4.82903133e-08
1.22303414e-05
5.37650058e-07
1.35174553e-05
1.27184222e-06
1.47041027e-05
2.30778003e-06
1.57666035e-05
3.70997134e-06
1.66779569e-05
5.55161375e-06
1.74071359e-05
7.91573906e-06
1.79185044e-05
1.08963686e-05
1.81713188e-05
1.46000039e-05
1.81190826e-05
1.91473295e-05
1.77077417e-05
2.4674773e-05
1.68773132e-05
3.13356787e-05
1.55591458e-05
3.93042598e-05
1.3674291e-05
4.87731422e-05
1.11375993e-05
5.99176566e-05
7.89064365e-06
7.30250841e-05
3.73097854e-06
8.83781974e-05
-1.42407521e-06
0.000106291194
-7.65243537e-06
0.000127115965
-1.52281594e-05
0.000151241219
-2.43107989e-05
0.000179184088
-3.50901507e-05
0.000211438001
-4.77905096e-05
0.000248454466
-6.2662904e-05
0.000290816215
-7.99807273e-05
0.000339150763
-0.000100042119
0.000394121483
-0.000123171192
0.000456432462
-0.000149713505
0.000526817705
-0.000180030717
0.000606024687
-0.000214498593
0.000694796506
-0.000253498436
0.000793850314
-0.000297406205
0.000903843584
-0.000346579744
0.00102533617
-0.000401342941
0.0011587466
-0.000461966916
0.00130430169
-0.000528648172
0.0014619806
-0.000601484166
0.00163145454
-0.000680446157
0.00181201974
-0.000765345657
0.00200249672
-0.000855765031
0.00220124626
-0.000951120262
0.00240613653
-0.00105063072
0.0026146669
-0.00115342058
0.00282382041
-0.0012583164
0.00303032082
-0.00136427053
0.00323046304
-0.00146958276
0.00342080865
-0.00157348571
0.00359737934
-0.00167315016
0.00375287487
-0.001765346
0.00388438919
-0.00185108677
0.00399164826
-0.00192828503
0.00408041578
-0.00200422304
0.00416149251
-0.00208005742
0.0042370928
-0.00215228601
0.00430684448
-0.00222454829
0.00437033594
-0.00229629524
0.00443134139
-0.0023703511
0.00449065933
-0.00244588687
0.00454744246
-0.00251970653
0.00460327432
-0.00259729577
0.00466181086
-0.00268219767
0.00472328008
-0.00276950717
0.0047907257
-0.00285972906
0.00485995163
-0.00295331209
0.00493230783
-0.00304902699
0.00500741366
-0.00314732827
0.00508439301
-0.00324720764
0.00515674683
-0.00334876532
0.00522579452
-0.00345753907
0.00529831863
-0.00358049889
0.00538304483
-0.00370511244
0.00546995742
-0.0038211455
-0.00393501709
0.00555912928
-1.42519603e-08
6.80348011e-07
-3.70402457e-08
2.06779391e-06
-4.4066291e-08
3.49828949e-06
-6.96180763e-09
4.9391686e-06
1.0661776e-07
6.36245676e-06
3.33326889e-07
7.74321709e-06
7.14605395e-07
9.05810789e-06
1.29713528e-06
1.02840265e-05
2.13346405e-06
1.13970156e-05
3.28288947e-06
1.23712584e-05
4.81233668e-06
1.31781245e-05
6.79738114e-06
1.37852826e-05
9.32349677e-06
1.41558361e-05
1.24871066e-05
1.42478147e-05
1.63971648e-05
1.401305e-05
2.11765378e-05
1.33968844e-05
2.69637304e-05
1.23371863e-05
3.39144759e-05
1.07626716e-05
4.2203691e-05
8.59418545e-06
5.19980358e-05
5.77133375e-06
6.3547291e-05
2.13199584e-06
7.7100951e-05
-2.40865411e-06
9.29364366e-05
-7.93688427e-06
0.000111363499
-1.46875315e-05
0.000132734094
-2.27855097e-05
0.000157497703
-3.2406231e-05
0.000186038527
-4.37584736e-05
0.00021880474
-5.70657567e-05
0.000256298239
-7.2571598e-05
0.000299062514
-9.05418796e-05
0.000347678257
-0.000111264818
0.000402761097
-0.000135048766
0.000464952626
-0.000162217861
0.000534907594
-0.000193109358
0.000613279397
-0.000228067455
0.000700701896
-0.00026743428
0.000797762775
-0.000311539423
0.000904972343
-0.000360686814
0.00102272754
-0.000415139054
0.00115127037
-0.000475099055
0.00129064161
-0.000540689485
0.00144063103
-0.000611930467
0.0016007265
-0.000688716605
0.00177006482
-0.000770794079
0.00194738296
-0.000857734336
0.00213095516
-0.00094888746
0.00231865137
-0.00104343171
0.00250794902
-0.00114038934
0.00269598851
-0.00123864249
0.0028796498
-0.00133705473
0.00305568759
-0.00143432744
0.0032214405
-0.00152999697
0.00337321281
-0.00162132991
0.00350574257
-0.0017059917
0.00361810962
-0.00178549396
0.0037104295
-0.00185764332
0.00378665479
-0.00192728555
0.00385576266
-0.00199736376
0.00391795904
-0.00206639256
0.00397380204
-0.00213587314
0.00402765089
-0.00220610433
0.00408058198
-0.00227744634
0.00413458273
-0.00235026702
0.00418721534
-0.00242295896
0.00423782886
-0.00249647067
0.00429055159
-0.00257239883
0.00434498221
-0.00265169737
0.00440029455
-0.00273747613
0.00445739586
-0.00282657359
0.00451693591
-0.00291923294
0.00457822274
-0.00301456152
0.00464144474
-0.00311221012
0.00470744526
-0.00321328858
0.00477760377
-0.00331732452
0.00485118737
-0.00342230598
0.00492687585
-0.00353318319
0.00499927963
-0.00365285827
0.0050747536
-0.00378054148
0.00515856213
-0.00390491101
-0.00401669005
0.00524027587
8.12094672e-09
6.73222712e-07
5.95882327e-08
2.01772665e-06
1.87724383e-07
3.37175576e-06
4.3059552e-07
4.69808778e-06
8.31105658e-07
5.96391524e-06
1.4374707e-06
7.13899622e-06
2.30389383e-06
8.19400774e-06
3.49129409e-06
9.099136e-06
5.06816954e-06
9.82284794e-06
7.1116248e-06
1.03307205e-05
9.7085764e-06
1.05843148e-05
1.29567811e-05
1.05404646e-05
1.69662616e-05
1.01500062e-05
2.18605244e-05
9.3574846e-06
2.777849e-05
8.09931901e-06
3.48763713e-05
6.30356579e-06
4.33097966e-05
3.90868012e-06
5.32931765e-05
7.84563087e-07
6.50459216e-05
-3.15291627e-06
7.88132756e-05
-7.989934e-06
9.48704826e-05
-1.39186451e-05
0.000113524922
-2.10560323e-05
0.000135156702
-2.95610715e-05
0.000160093072
-3.96157416e-05
0.000188734807
-5.14184777e-05
0.000221524929
-6.51869375e-05
0.000258934851
-8.11582841e-05
0.000301468469
-9.95885142e-05
0.000349660381
-0.000120751853
0.000404068651
-0.000144937676
0.00046526504
-0.000172447892
0.000533822895
-0.000203592432
0.000610302236
-0.000238682105
0.000695228953
-0.000278020039
0.000789069571
-0.000321891073
0.000892202124
-0.000370548843
0.00100488229
-0.00042420059
0.00112720543
-0.000482989935
0.00125906514
-0.000546977727
0.00140011041
-0.00061612224
0.00154970303
-0.00069025901
0.00170687928
-0.000769082592
0.00187031958
-0.000852131555
0.00203832986
-0.000938777691
0.00220881734
-0.00102819487
0.00237939282
-0.00111943668
0.00254750186
-0.00121151515
0.00271036647
-0.00130322888
0.00286518173
-0.0013934328
0.00300909649
-0.00148094448
0.00314004472
-0.00156525208
0.00325398161
-0.00164391282
0.00335039615
-0.00171772325
0.00342998188
-0.0017855516
0.00349779163
-0.00185327881
0.00356028331
-0.00192011281