/*--------------------------------*- C++ -*----------------------------------*\
  =========                 |
  \\      /  F ield         | OpenFOAM: The Open Source CFD Toolbox
   \\    /   O peration     | Website:  https://openfoam.org
    \\  /    A nd           | Version:  8
     \\/     M anipulation  |
\*---------------------------------------------------------------------------*/
FoamFile
{
    version     2.0;
    format      ascii;
    class       volScalarField;
    location    "0.01";
    object      T;
}
// * * * * * * * * * * * * * * * * * * * * * * * * * * * * * * * * * * * * * //

dimensions      [0 0 0 1 0 0 0];

internalField   nonuniform List<scalar> 
42400
(
472.042444
470.106537
468.12057
466.083983
463.996326
461.857276
459.666664
457.424496
455.130983
452.786569
450.391964
447.94818
445.456563
442.918839
440.337147
437.714084
435.052743
432.356752
429.630309
426.878214
424.105891
421.319409
418.525489
415.731496
412.945423
410.175862
407.43195
404.723304
402.059941
399.452179
396.910518
394.445524
392.067687
389.787298
387.614306
385.558191
383.627846
381.831496
380.176674
378.670118
377.317698
376.124379
375.094225
374.230369
373.534988
373.009401
372.65407
372.468651
372.452393
372.601888
372.913939
373.383728
374.004841
374.766876
375.65563
376.655317
377.744455
378.891573
380.050294
381.195633
382.367532
383.26874
383.73355
383.687445
383.188672
382.319692
381.114328
379.486154
377.298517
374.532161
370.838383
366.508844
362.00126
355.962118
348.805454
342.885188
337.038312
330.359491
322.173673
316.707718
472.084688
470.234212
468.335955
466.389436
464.394282
462.350253
460.257258
458.115382
455.924915
453.686375
451.40054
449.068485
446.691615
444.271704
441.810931
439.311924
436.777796
434.212184
431.619289
429.0039
426.371431
423.727932
421.080107
418.43531
415.801538
413.187401
410.602089
408.055311
405.557224
403.118352
400.749481
398.461547
396.265505
394.172207
392.192274
390.335995
388.613206
387.033149
385.604311
384.334247
383.229419
382.295041
381.535045
380.951969
380.546802
380.318781
380.265451
380.381536
380.662415
381.097516
381.673519
382.374781
383.182239
384.067777
384.989422
385.914526
386.835431
387.69969
388.19657
388.246429
387.885394
387.099573
386.034779
384.608817
382.719405
380.210246
377.034846
373.144949
368.620309
363.660574
357.917373
351.396668
345.05538
338.425824
331.121384
324.050714
318.286795
312.763113
308.176615
303.51246
472.137553
470.393985
468.605477
466.771642
464.892207
462.967036
460.996147
458.979739
456.918214
454.812205
452.66261
450.470617
448.237742
445.965869
443.657277
441.314689
438.941303
436.540832
434.117537
431.676262
429.222455
426.762197
424.302209
421.849855
419.413138
417.00068
414.621685
412.28589
410.003504
407.785122
405.641644
403.584181
401.623923
399.772011
398.039372
396.436539
394.973432
393.659116
392.501513
391.507231
390.681313
390.026948
389.545182
389.2347
389.091415
389.108653
389.275486
389.580391
390.00485
390.523157
391.102278
391.71197
392.328498
392.95157
393.299666
393.311296
393.013609
392.204437
391.1681
389.823944
388.09961
385.851177
383.012749
379.562877
375.478912
370.749056
365.394326
359.482177
353.130797
346.674885
340.09945
333.229315
326.560115
320.501273
314.923002
309.927537
305.807147
302.495873
300.442311
300.033305
472.19862
470.578537
468.916775
467.213047
465.467191
463.679187
461.849182
459.977511
458.064719
456.111596
454.119196
452.088874
450.022315
447.921572
445.789096
443.627778
441.440978
439.232565
437.006944
434.769087
432.524557
430.279525
428.040778
425.815721
423.612365
421.439307
419.305695
417.221187
415.195868
413.240165
411.364734
409.580323
407.897591
406.326903
404.878089
403.560147
402.380976
401.347061
400.463117
399.731781
399.153154
398.724449
398.440271
398.290772
398.261391
398.329277
398.478843
398.682153
398.92191
399.13567
399.169278
399.005936
398.517797
397.6393
396.568303
395.233303
393.566573
391.461916
388.830576
385.639135
381.866472
377.519977
372.619528
367.214734
361.355185
355.098297
348.509249
341.770588
335.039104
328.575271
322.538468
316.976294
311.992727
307.750201
304.467631
301.984372
300.311032
299.957599
299.870918
299.855648
472.265071
470.779346
469.255474
467.693268
466.092676
464.453802
462.776928
461.062537
459.311339
457.524293
455.702638
453.84792
451.962025
450.047209
448.106129
446.141878
444.158011
442.158578
440.148146
438.131819
436.115257
434.104681
432.106874
430.129167
428.17941
426.265933
424.397486
422.583149
420.832219
419.154074
417.55799
416.052928
414.647279
413.348598
412.163279
411.09618
410.150275
409.326188
408.621755
408.032011
407.547706
407.156195
406.843266
406.592009
406.387665
406.12381
405.7539
405.222987
404.465279
403.465988
402.294549
400.893953
399.202954
397.140998
394.623411
391.615509
388.092178
384.043451
379.477473
374.422708
368.919588
363.023819
356.812365
350.392096
343.871567
337.359468
330.963176
324.84683
319.170656
314.105339
309.760314
306.251158
303.57263
301.644831
300.331627
299.971592
299.886026
299.865584
299.85545
299.855044
472.333084
470.984868
469.602113
468.184727
466.732764
465.246446
463.726184
462.172602
460.586556
458.969165
457.321831
455.646267
453.944526
452.219025
450.47257
448.708385
446.93013
445.141916
443.348324
441.554403
439.765672
437.988098
436.228076
434.492376
432.788083
431.122509
429.503078
427.937177
426.431988
424.994278
423.630154
422.34477
421.142024
420.024221
418.991676
418.042332
417.171782
416.372633
415.634908
414.94288
414.255734
413.539693
412.756116
411.859929
410.799716
409.625194
408.293768
406.760856
404.976413
402.872981
400.388078
397.487772
394.144878
390.342588
386.077883
381.361132
376.217494
370.689374
364.830152
358.699149
352.378002
345.958886
339.55669
333.298465
327.323419
321.726355
316.6272
312.118788
308.304738
305.256249
302.978191
301.430415
300.397116
299.993538
299.900845
299.873641
299.863966
299.858297
299.850364
299.847984
472.397304
471.178925
469.929413
468.648763
467.337117
465.994791
464.622292
463.220338
461.789879
460.332117
458.848531
457.34089
455.811283
454.262125
452.696183
451.11658
449.526801
447.930694
446.332458
444.736623
443.148012
441.571692
440.012902
438.476964
436.969161
435.494602
434.058038
432.663665
431.314892
430.014071
428.762204
427.558613
426.400611
425.283368
424.199402
423.135035
422.071139
420.98437
419.847857
418.636786
417.346879
415.950551
414.416929
412.710794
410.789455
408.593895
406.089631
403.24439
400.030371
396.426927
392.422747
388.016788
383.219505
378.053364
372.553503
366.767711
360.754389
354.577708
348.318841
342.059947
335.902454
329.960705
324.348516
319.168558
314.540406
310.533175
307.216455
304.602997
302.663279
301.327641
300.515409
300.04525
299.929795
299.891684
299.87725
299.867628
299.858527
299.844918
299.832302
299.822654
472.451016
471.341228
470.203161
469.036869
467.84255
466.620561
465.371435
464.095896
462.794877
461.469529
460.121237
458.751631
457.362593
455.956261
454.535027
453.101531
451.658639
450.209421
448.757108
447.305039
445.856585
444.415062
442.983614
441.565084
440.161846
438.775622
437.407258
436.056485
434.721626
433.399371
432.084498
430.769533
429.443596
428.093808
426.704462
425.259005
423.740063
422.126856
420.394592
418.51289
416.444921
414.160784
411.630439
408.824969
405.718187
402.288317
398.519278
394.401963
389.935423
385.127919
379.997434
374.572222
368.891222
363.003634
356.97026
350.854433
344.732764
338.68741
332.814999
327.213973
321.972959
317.191439
312.958786
309.343524
306.392613
304.101058
302.420497
301.274086
300.558005
300.167438
299.978558
299.925812
299.900739
299.881527
299.862837
299.846272
299.832504
299.820003
299.807895
299.805778
472.487224
471.450642
470.387702
469.298479
468.183163
467.042075
465.875674
464.684565
463.469506
462.231412
460.971357
459.69057
458.390432
457.072454
455.738263
454.38957
453.028124
451.655664
450.273846
448.884159
447.48782
446.085655
444.67795
443.26429
441.843399
440.413315
438.970746
437.510704
436.025958
434.508034
432.946457
431.328603
429.64049
427.865161
425.98287
423.97273
421.812286
419.477912
416.945384
414.190637
411.19071
407.924951
404.375886
400.53025
396.380007
391.92332
387.165426
382.119394
376.806652
371.257575
365.511521
359.616873
353.632702
347.624358
341.666745
335.837403
330.225679
324.925355
320.020962
315.601731
311.729393
308.455126
305.803993
303.762281
302.273527
301.256734
300.613824
300.243247
300.051394
299.957861
299.916919
299.883018
299.854017
299.831851
299.81747
299.808149
299.804779
299.803671
299.801058
299.801385
472.50028
471.490083
470.454171
469.392565
468.305361
467.192741
466.05497
464.892395
463.705445
462.494619
461.260482
460.003641
458.724728
457.42437
456.103146
454.761538
453.399866
452.018227
450.616421
449.19385
447.749385
446.281196
444.786535
443.261477
441.70055
440.096295
438.441225
436.72664
434.942903
433.078172
431.118892
429.049937
426.85476
424.515604
422.013831
419.33036
416.446185
413.342966
410.003939
406.414563
402.563282
398.442335
394.048564
389.384208
384.457663
379.284218
373.886753
368.296206
362.551927
356.701805
350.802608
344.919418
339.125655
333.499325
328.126787
323.092706
318.474075
314.346526
310.765972
307.77403
305.375688
303.533205
302.186306
301.257171
300.655817
300.291893
300.085076
299.972321
299.904389
299.861467
299.833018
299.819412
299.814921
299.811859
299.807609
299.802886
299.800012
299.798757
299.79738
299.794766
472.489549
471.457654
470.399448
469.314871
468.203898
467.066529
465.902785
464.712696
463.496281
462.253535
460.984411
459.688793
458.36646
457.017042
455.639967
454.234394
452.797888
451.327191
449.819224
448.27087
446.678291
445.036889
443.341274
441.585259
439.762111
437.864354
435.882045
433.804045
431.618087
429.31084
426.868048
424.274735
421.515493
418.574821
415.437534
412.089437
408.51784
404.712103
400.664287
396.36984
391.828313
387.044104
382.027209
376.793975
371.36786
365.780153
360.070535
354.287286
348.487218
342.734726
337.10182
331.66502
326.506291
321.705484
317.334111
313.457124
310.116919
307.337425
305.112323
303.403705
302.151406
301.277035
300.696735
300.330568
300.10992
299.979832
299.902207
299.853983
299.830808
299.822836
299.818605
299.815603
299.813122
299.810664
299.8066
299.802489
299.796614
299.792129
299.791905
299.79203
472.456307
471.357222
470.230075
469.074718
467.890974
466.678631
465.437418
464.166992
462.866616
461.534573
460.16974
458.77073
457.33585
455.863046
454.349843
452.793297
451.191175
449.541046
447.83916
446.080496
444.259279
442.368977
440.402231
438.350772
436.205449
433.956219
431.592173
429.101618
426.472214
423.691155
420.745395
417.621931
414.308263
410.792874
407.065596
403.11814
398.944689
394.542547
389.912835
385.061252
379.998855
374.74287
369.317472
363.754505
358.094074
352.384853
346.68399
341.056567
335.573744
330.310146
325.341785
320.743395
316.578774
312.902714
309.747836
307.12989
305.033955
303.41533
302.213075
301.35652
300.771948
300.389656
300.149731
300.00455
299.919432
299.870303
299.843648
299.832127
299.827024
299.82258
299.818109
299.813858
299.809549
299.805177
299.800572
299.796097
299.793231
299.790058
299.788729
299.787029
472.401221
471.190736
469.949165
468.676139
467.371187
466.0337
464.662384
463.255882
461.812986
460.333029
458.814253
457.254576
455.651552
454.002331
452.303611
450.551605
448.741993
446.869844
444.929592
442.91497
440.818951
438.63377
436.35091
433.961127
431.454493
428.82047
426.048027
423.125794
420.042249
416.786014
413.346321
409.713244
405.878141
401.834153
397.576778
393.104519
388.419594
383.528715
378.4439
373.183308
367.77202
362.242724
356.636191
351.001448
345.395462
339.882151
334.531021
329.415167
324.606433
320.172579
316.170657
312.64608
309.624374
307.112141
305.089904
303.515574
302.33217
301.474128
300.874637
300.471265
300.209542
300.045733
299.947358
299.891081
299.860347
299.84506
299.836557
299.829135
299.821794
299.815157
299.809473
299.804328
299.7999
299.797035
299.793716
299.789677
299.785448
299.783172
299.783886
299.783181
472.330345
470.976539
469.587809
468.163576
466.703084
465.205264
463.668974
462.092914
460.475378
458.814339
457.107407
455.351788
453.544248
451.68107
449.758004
447.770247
445.712399
443.578418
441.361616
439.054646
436.649503
434.137548
431.509553
428.755766
425.866021
422.82987
419.636761
416.27645
412.739187
409.016063
405.099427
400.983387
396.664378
392.141818
387.418821
382.502986
377.407202
372.150467
366.75863
361.265007
355.710757
350.144897
344.623842
339.210315
333.97135
328.975599
324.290229
319.978595
316.091384
312.668106
309.727658
307.270547
305.277391
303.708332
302.511151
301.627827
300.997539
300.563103
300.274489
300.089944
299.976312
299.908791
299.870073
299.848354
299.834939
299.825054
299.817125
299.810576
299.804087
299.798157
299.793744
299.790302
299.787672
299.785132
299.785354
299.786307
299.784921
299.783907
299.785469
299.786087
472.248628
470.729589
469.171255
467.57286
465.933395
464.251555
462.526004
460.754919
458.93612
457.067032
455.144648
453.16549
451.125576
449.020382
446.844809
444.593162
442.259131
439.835786
437.315585
434.690392
431.951524
429.08982
426.095741
422.959497
419.671306
416.221651
412.601509
408.802704
404.818324
400.643215
396.274551
391.712476
386.96082
382.027857
376.927091
371.678017
366.306808
360.846836
355.338939
349.83133
344.379011
339.042584
333.886415
328.975997
324.374483
320.139026
316.31608
312.939439
310.027243
307.579622
305.579032
303.986672
302.754527
301.829638
301.156746
300.682765
300.360044
300.147742
300.013139
299.930997
299.882503
299.854163
299.837199
299.826354
299.821031
299.816725
299.811687
299.806814
299.802792
299.798422
299.794019
299.788941
299.786479
299.785258
299.785032
299.786272
299.786669
299.786888
299.789148
299.795803
472.158613
470.457565
468.712416
466.922207
465.085667
463.201329
461.267456
459.281819
457.241765
455.144185
452.985472
450.761492
448.467551
446.098375
443.648094
441.110235
438.477728
435.742933
432.897681
429.933347
426.840943
423.611253
420.235134
416.703662
413.008413
409.14181
405.097538
400.871028
396.460013
391.865159
387.090749
382.145411
377.042862
371.802609
366.450575
361.019538
355.549317
350.086594
344.684264
339.400238
334.295626
329.432234
324.869649
320.661631
316.852853
313.475632
310.545396
308.062062
306.009861
304.357899
303.063935
302.078879
301.350327
300.827701
300.464685
300.220919
300.062781
299.963704
299.903718
299.868464
299.848175
299.83642
299.829522
299.824802
299.820865
299.816684
299.811617
299.805533
299.801147
299.798037
299.794547
299.788644
299.785601
299.784207
299.784117
299.784993
299.789242
299.792275
299.796843
299.801279
472.061773
470.164905
468.218766
466.222236
464.173893
462.071954
459.914216
457.698027
455.420253
453.077243
450.6648
448.178157
445.611958
442.960255
440.216513
437.373635
434.424002
431.359547
428.171845
424.852287
421.392289
417.78348
414.017975
410.088716
405.989876
401.717324
397.269166
392.646344
387.853293
382.898628
377.79584
372.563957
367.228105
361.819908
356.377636
350.946
345.575503
340.321254
335.241232
330.393998
325.835934
321.617985
317.782799
314.361147
311.370735
308.814471
306.678528
304.935114
303.545702
302.467441
301.653651
301.057396
300.633603
300.341623
300.146957
300.020938
299.941824
299.893357
299.864093
299.846483
299.83565
299.828531
299.823444
299.81845
299.813683
299.809334
299.804924
299.798771
299.79441
299.792322
299.791858
299.789799
299.786493
299.785399
299.786792
299.788332
299.790842
299.794983
299.79715
299.800812
471.959286
469.85517
467.696316
465.481405
463.208738
460.876195
458.481192
456.020645
453.490938
450.887895
448.206764
445.442208
442.588308
439.638586
436.586047
433.423241
430.14236
426.735408
423.194374
419.511428
415.679186
411.691037
407.541525
403.226798
398.745116
394.097422
389.28796
384.324926
379.221117
373.994555
368.669011
363.274383
357.846837
352.428627
347.067515
341.815699
336.728199
331.860719
327.267071
322.99641
319.090386
315.580111
312.484838
309.80942
307.545359
305.671853
304.157645
302.963835
302.04602
301.358376
300.857003
300.502662
300.258805
300.095436
299.988762
299.920599
299.877729
299.850972
299.83404
299.822974
299.815328
299.809407
299.804919
299.801911
299.798567
299.795776
299.793776
299.79102
299.787428
299.786551
299.787431
299.790787
299.791678
299.792434
299.794876
299.801952
299.802887
299.798564
299.796498
299.797518
471.852099
469.531219
467.149841
464.706415
462.198962
459.625032
456.981664
454.265359
451.472051
448.597105
445.635306
442.580883
439.427545
436.168533
432.796712
429.304728
425.685162
421.930714
418.034462
413.990158
409.79259
405.438003
400.924578
396.252963
391.426854
386.453612
381.344876
376.117155
370.792341
365.398083
359.967958
354.541349
349.162963
343.881919
338.750379
333.821698
329.148092
324.777968
320.753168
317.106792
313.861102
311.025715
308.59798
306.562343
304.892147
303.552616
302.503981
301.703785
301.109137
300.678765
300.374974
300.165993
300.027231
299.937312
299.879474
299.843121
299.82185
299.809438
299.801754
299.796808
299.793633
299.791994
299.791028
299.790058
299.789167
299.787716
299.786656
299.78658
299.784581
299.782132
299.782426
299.788441
299.798583
299.802704
299.804347
299.803644
299.811917
299.811186
299.804163
299.802977
471.741236
469.196146
466.58458
463.90475
461.154397
458.330753
455.430511
452.449807
449.384212
446.228742
442.977881
439.625635
436.165602
432.591101
428.895325
425.071503
421.113136
417.014268
412.769819
408.375976
403.830635
399.133899
394.288628
389.301012
384.181167
378.943709
373.608263
368.199863
362.749174
357.292469
351.871277
346.531655
341.323026
336.296587
331.503369
326.991999
322.806145
318.981946
315.54519
312.510198
309.8798
307.645143
305.78605
304.273454
303.071014
302.137762
301.431474
300.910744
300.537131
300.276242
300.098694
299.98098
299.905382
299.859081
299.832904
299.820871
299.81352
299.807628
299.802665
299.798599
299.795396
299.793137
299.791449
299.789839
299.788295
299.786932
299.786737
299.787434
299.786489
299.782473
299.782904
299.786826
299.799779
299.806937
299.807038
299.806107
299.809384
299.823717
299.83545
299.840682
472.538707
471.605956
470.648815
469.666772
468.659307
467.625887
466.565967
465.478989
464.364377
463.221536
462.049849
460.848673
459.617339
458.355142
457.061345
455.735172
454.375801
452.982365
451.553941
450.089549
448.588142
447.048601
445.469726
443.850228
442.188715
440.483687
438.73352
436.936453
435.090578
433.19382
431.243929
429.238463
427.174775
425.050006
422.86108
420.604701
418.277365
415.875378
413.394893
410.831967
408.182638
405.443029
402.610012
399.681945
396.658299
393.538196
390.322498
387.014055
383.618118
380.129056
376.539715
372.88927
369.194841
365.480808
361.776027
358.115868
354.543868
351.109282
347.865353
344.866202
342.162141
339.79373
337.78559
336.141577
334.842897
333.84979
333.106413
332.547925
332.108375
331.727707
331.3567
330.958594
330.504988
329.966486
329.312532
328.52641
327.630129
326.69426
325.82366
325.251658
472.531566
471.584374
470.612416
469.61518
468.592145
467.542783
466.466556
465.362914
464.231296
463.071121
461.881792
460.662689
459.41317
458.132569
456.820188
455.475303
454.097153
452.684945
451.237843
449.75497
448.235401
446.678157
445.082201
443.446434
441.76968
440.050686
438.288107
436.480497
434.626298
432.723826
430.771259
428.766623
426.707775
424.592398
422.417983
420.181831
417.881044
415.512544
413.073085
410.559298
407.967746
405.295017
402.537839
399.693232
396.759057
393.735746
390.625759
387.430636
384.154276
380.803028
377.387077
373.886726
370.313609
366.716949
363.117789
359.545494
356.036386
352.633303
349.384035
346.339444
343.549987
341.061049
338.907358
337.107328
335.658676
334.536742
333.69676
333.080023
332.621798
332.258042
331.929307
331.58177
331.166725
330.642423
329.98205
329.184432
328.272546
327.27856
326.240147
325.214918
472.521627
471.554349
470.561807
469.543504
468.498935
467.427596
466.328974
465.202548
464.047789
462.864154
461.651084
460.408004
459.134324
457.829429
456.492686
455.123439
453.721006
452.284679
450.813725
449.307375
447.764831
446.185256
444.567774
442.911463
441.215352
439.478412
437.699554
435.877614
434.011351
432.099429
430.140414
428.132754
426.074772
423.96465
421.800419
419.579953
417.300957
414.960979
412.557415
410.087537
407.548534
404.93758
402.251927
399.489034
396.646747
393.723537
390.718183
387.633962
384.4761
381.251207
377.966574
374.632979
371.266305
367.846802
364.393084
360.941711
357.541981
354.222027
351.02071
347.983022
345.154795
342.58116
340.302479
338.348915
336.735184
335.456786
334.488887
333.787999
333.295332
332.941145
332.65046
332.35005
331.976059
331.482379
330.848448
330.080864
329.20644
328.260642
327.274299
326.261381
472.508264
471.513989
470.493801
469.44723
468.373812
467.273082
466.144572
464.987815
463.802334
462.587646
461.343256
460.06866
458.763338
457.426757
456.05837
454.657611
453.2239
451.756637
450.255202
448.718956
447.147236
445.539356
443.8946
442.212224
440.491449
438.731457
436.931389
435.090333
433.207323
431.28133
429.31125
427.295898
425.233998
423.124169
420.964914
418.754621
416.491542
414.173801
411.7994
409.366232
406.872119
404.314855
401.692287
399.002415
396.243535
393.414419
390.514531
387.544297
384.505374
381.401332
378.241339
375.037099
371.801236
368.547608
365.296301
362.05364
358.81854
355.620032
352.496728
349.512294
346.696887
344.089176
341.731163
339.659753
337.90345
336.477976
335.381151
334.589075
334.054535
333.709152
333.469822
333.247657
332.958502
332.534419
331.93544
331.156487
330.229983
329.217007
328.181233
327.156863
472.490715
471.46099
470.404507
469.320842
468.209582
467.07032
465.902655
464.706188
463.48052
462.225249
460.939968
459.624266
458.277723
456.899913
455.490398
454.048736
452.574471
451.067139
449.526263
447.951356
446.341916
444.697425
443.017348
441.301132
439.548198
437.757944
435.929736
434.062906
432.156746
430.210502
428.223372
426.194491
424.122928
422.007676
419.847641
417.641637
415.388374
413.086469
410.734438
408.330718
405.873686
403.361702
400.793172
398.166636
395.480889
392.735133
389.92918
387.063675
384.140374
381.162422
378.13456
375.062997
371.956539
368.831372
365.705346
362.598449
359.529505
356.523311
353.59779
350.749346
348.015545
345.430361
343.062855
340.946304
339.111763
337.589113
336.394342
335.524469
334.951431
334.619232
334.447911
334.337911
334.181723
333.876512
333.35153
332.581668
331.595097
330.465082
329.275868
328.092062
472.468195
471.392979
470.289916
469.158639
467.998796
466.810051
465.592083
464.344577
463.067228
461.759734
460.421798
459.053122
457.653413
456.222375
454.759714
453.265136
451.738346
450.179049
448.586947
446.96174
445.303124
443.610788
441.884416
440.123678
438.328234
436.497726
434.631775
432.72998
430.791908
428.817092
426.805022
424.755143
422.666836
420.539421
418.372141
416.164165
413.914577
411.622378
409.286487
406.905753
404.478979
402.004954
399.482508
396.910594
394.288389
391.615435
388.891808
386.118325
383.296782
380.430215
377.523175
374.581997
371.615096
368.633217
365.649792
362.67375
359.728227
356.836286
354.021582
351.309116
348.72413
346.297665
344.030129
341.957452
340.115104
338.572432
337.34894
336.453784
335.871744
335.553649
335.443686
335.444668
335.451858
335.306303
334.891927
334.166994
333.151106
331.928617
330.606205
329.277362
472.44005
471.307977
470.146685
468.95586
467.735221
466.484507
465.203482
463.891925
462.549636
461.176427
459.772123
458.336563
456.869597
455.37109
453.840916
452.278963
450.685132
449.059336
447.401499
445.711555
443.989449
442.235132
440.44856
438.629693
436.778483
434.89488
432.978821
431.030226
429.048989
427.034968
424.98798
422.907793
420.794111
418.646575
416.46475
414.248117
411.996069
409.707906
407.382839
405.019999
402.618457
400.177258
397.695471
395.172263
392.606997
389.999364
387.349543
384.658397
381.927699
379.160375
376.360763
373.534866
370.690568
367.837816
364.988717
362.157557
359.360808
356.616709
353.944208
351.356596
348.884535
346.556956
344.404415
342.461148
340.765157
339.31544
338.161245
337.336027
336.834737
336.62174
336.66248
336.838273
336.929132
336.91387
336.666747
336.014401
334.972984
333.651399
332.20697
330.779843
472.405942
471.204956
469.973063
468.710005
467.415561
466.089546
464.731807
463.342219
461.92069
460.46715
458.981559
457.463903
455.914197
454.332481
452.718828
451.07334
449.396148
447.687416
445.94734
444.176143
442.374078
440.541427
438.67849
436.78559
434.863059
432.911232
430.930442
428.921007
426.883223
424.817351
422.723605
420.602142
418.453051
416.276335
414.071901
411.839549
409.578958
407.289683
404.971153
402.622676
400.243458
397.832633
395.389313
392.912663
390.402002
387.856931
385.277499
382.6644
380.019199
377.344587
374.644643
371.925097
369.193564
366.459729
363.735445
361.034737
358.373704
355.770345
353.244378
350.817104
348.511273
346.350911
344.361116
342.565759
341.011438
339.745461
338.783871
338.150939
337.846018
337.874024
338.156912
338.501106
338.757011
338.83303
338.669269
338.069405
337.021059
335.664373
334.20721
332.814161
472.365992
471.084277
469.769653
468.421902
467.040855
465.626391
464.178432
462.696944
461.181936
459.633459
458.051609
456.436525
454.788397
453.107461
451.394009
449.648384
447.870987
446.062275
444.222763
442.353022
440.453678
438.525407
436.568932
434.585017
432.574457
430.538067
428.476672
426.391097
424.282146
422.150592
419.997158
417.822493
415.627158
413.411602
411.17614
408.920936
406.645987
404.351107
402.035916
399.699843
397.34214
394.961907
392.558143
390.129823
387.676004
385.195958
382.689345
380.156427
377.598314
375.017241
372.416874
369.80262
367.18192
364.564489
361.962462
359.390419
356.865282
354.406088
352.033777
349.7709
347.641354
345.670401
343.884961
342.31482
340.993446
339.956034
339.253962
338.896416
338.911398
339.272043
339.826171
340.418109
340.886714
341.072114
340.99485
340.488489
339.514066
338.249844
336.915579
335.646089
472.320865
470.94795
469.539831
468.096317
466.617273
465.102626
463.552359
461.966513
460.34519
458.688554
456.996831
455.270318
453.509382
451.714467
449.886097
448.024881
446.131516
444.206786
442.251569
440.266833
438.253633
436.213111
434.146487
432.055053
429.940162
427.803213
425.645641
423.46889
421.274401
419.063578
416.837773
414.598249
412.346153
410.082485
407.808068
405.523513
403.229194
400.92523
398.611454
396.287414
393.952364
391.605309
389.245045
386.870236
384.479523
382.071668
379.64574
377.201377
374.739056
372.26039
369.768496
367.26838
364.767305
362.275109
359.804441
357.370836
354.99268
352.690948
350.488843
348.41149
346.4854
344.738409
343.199728
341.900559
340.874627
340.154598
339.77473
339.784067
340.2049
340.939606
341.857598
342.769047
343.478165
343.844534
343.876653
343.550269
342.783952
341.751477
340.651953
339.597335
472.271757
470.799582
469.289676
467.741851
466.155987
464.532035
462.87002
461.17004
459.432274
457.656981
455.844512
453.99531
452.109918
450.188991
448.233295
446.243716
444.221269
442.167096
440.082475
437.968816
435.827662
433.660687
431.469686
429.256565
427.02333
424.772069
422.504931
420.224098
417.93176
415.630082
413.321164
411.007005
408.68946
406.370196
404.050647
401.731968
399.415
397.100231
394.787761
392.477291
390.16812
387.859176
385.549045
383.236043
380.91834
378.594121
376.261775
373.920203
371.569117
369.209441
366.843728
364.476597
362.115169
359.769462
357.4527
355.181495
352.97583
350.85892
348.856815
346.998106
345.313226
343.83378
342.59169
341.620565
340.947714
340.605141
340.637883
341.094871
341.907708
343.00613
344.266682
345.520187
346.570309
347.243143
347.448728
347.393565
347.02793
346.405631
345.692817
344.998719
472.220335
470.644208
469.027672
467.370517
465.672615
463.933918
462.154469
460.334401
458.473947
456.573447
454.633356
452.654253
450.636854
448.582016
446.490751
444.364235
442.203814
440.011016
437.787547
435.535302
433.25636
430.952982
428.627602
426.282816
423.921365
421.54611
419.160011
416.766089
414.36739
411.966941
409.567704
407.17252
404.78406
402.404764
400.03678
397.681912
395.341566
393.016698
390.707746
388.41459
386.136569
383.872493
381.620685
379.379095
377.145429
374.91734
372.692662
370.469731
368.247727
366.027151
363.810285
361.601701
359.408754
357.242061
355.115877
353.048328
351.06144
349.180944
347.435771
345.857227
344.478066
343.332355
342.447805
341.851859
341.574063
341.652564
342.153298
343.003157
344.153472
345.544085
347.074805
348.607262
349.98004
351.044981
351.714791
351.997857
352.039985
352.044123
351.921219
351.651237
472.168713
470.488214
468.764587
466.997579
465.187028
463.332864
461.435123
459.49395
457.509612
455.482506
453.413176
451.302321
449.150811
446.959703
444.730249
442.463913
440.162383
437.827577
435.461654
433.067017
430.646313
428.202431
425.738492
423.257834
420.763994
418.260679
415.751731
413.24109
410.732741
408.230663
405.738769
403.260833
400.800425
398.360822
395.94494
393.555252
391.193731
388.861782
386.560189
384.289073
382.047914
379.835548
377.650229
375.489763
373.351664
371.233369
369.132533
367.047332
364.976876
362.921667
360.884124
358.869149
356.884657
354.942067
353.056664
351.247785
349.538765
347.95653
346.530854
345.293453
344.276409
343.506732
343.02033
342.839219
342.988386
343.551824
344.412385
345.562688
346.959403
348.538652
350.218315
351.90143
353.485376
354.876164
356.002355
356.846665
357.443459
357.840995
358.101259
358.247806
472.119308
470.338911
468.512753
466.64052
464.721995
462.757066
460.745741
458.688153
456.58458
454.43546
452.2414
450.003201
447.721875
445.398657
443.035031
440.632738
438.193801
435.72053
433.215539
430.681747
428.122384
425.540989
422.941391
420.327703
417.70429
415.075741
412.446822
409.822433
407.207537
404.607099
402.026005
399.468984
396.94052
394.444764
391.985445
389.565779
387.188399
384.85527
382.567655
380.326085
378.130366
375.979584
373.872183
371.806073
369.778823
367.787901
365.830993
363.906365
362.013342
360.152779
358.327575
356.543208
354.808233