/*--------------------------------*- C++ -*----------------------------------*\
  =========                 |
  \\      /  F ield         | OpenFOAM: The Open Source CFD Toolbox
   \\    /   O peration     | Website:  https://openfoam.org
    \\  /    A nd           | Version:  8
     \\/     M anipulation  |
\*---------------------------------------------------------------------------*/
FoamFile
{
    version     2.0;
    format      ascii;
    class       surfaceScalarField;
    location    "0.06";
    object      phi;
}
// * * * * * * * * * * * * * * * * * * * * * * * * * * * * * * * * * * * * * //

dimensions      [1 0 -1 0 0 0 0];

internalField   nonuniform List<scalar> 
84340
(
-6.20255903e-08
2.95774735e-07
-2.33710327e-07
-2.44643352e-07
9.06758232e-07
-7.24078011e-07
-5.49644719e-07
1.55634052e-06
-1.25126241e-06
-9.80678561e-07
2.24463799e-06
-1.81351509e-06
-1.54287977e-06
2.97243293e-06
-2.41013179e-06
-2.2424273e-06
3.74092289e-06
-3.04126525e-06
-3.08614805e-06
4.55126318e-06
-3.70742235e-06
-4.08115254e-06
5.40439858e-06
-4.40926374e-06
-5.23452165e-06
6.30106639e-06
-5.14755622e-06
-6.55304724e-06
7.2418202e-06
-5.92314206e-06
-8.04302451e-06
8.22703637e-06
-6.73689435e-06
-9.71008762e-06
9.25690639e-06
-7.58966534e-06
-1.15590823e-05
1.03314324e-05
-8.48224582e-06
-1.35939635e-05
1.14504316e-05
-9.41534352e-06
-1.58177004e-05
1.26135398e-05
-1.03895803e-05
-1.82321975e-05
1.38202316e-05
-1.14054952e-05
-2.08381963e-05
1.50698249e-05
-1.24635697e-05
-2.36351768e-05
1.63614885e-05
-1.35642335e-05
-2.66212358e-05
1.76942435e-05
-1.47078922e-05
-2.97929438e-05
1.90669502e-05
-1.58949315e-05
-3.31451825e-05
2.0478289e-05
-1.7125722e-05
-3.66709501e-05
2.19267279e-05
-1.84006146e-05
-4.03611396e-05
2.34104738e-05
-1.97199231e-05
-4.42042882e-05
2.49274172e-05
-2.1083893e-05
-4.81862856e-05
2.64750475e-05
-2.24926637e-05
-5.22900401e-05
2.8050358e-05
-2.39462085e-05
-5.64951081e-05
2.96497135e-05
-2.54442481e-05
-6.07772351e-05
3.12686862e-05
-2.69861627e-05
-6.51078369e-05
3.29018433e-05
-2.85708553e-05
-6.94534525e-05
3.45425858e-05
-3.01965996e-05
-7.37754173e-05
3.61831488e-05
-3.18608418e-05
-7.80297459e-05
3.78145523e-05
-3.35599171e-05
-8.21667507e-05
3.94259734e-05
-3.5288715e-05
-8.61287997e-05
4.10028429e-05
-3.70406025e-05
-8.98457197e-05
4.25248196e-05
-3.88077931e-05
-9.32411811e-05
4.39766988e-05
-4.05812261e-05
-9.62334114e-05
4.53377538e-05
-4.23456325e-05
-9.87430759e-05
4.65915978e-05
-4.40821745e-05
-0.000100673774
4.76907278e-05
-4.57604358e-05
-0.000101878342
4.85733734e-05
-4.73693827e-05
-0.000102151356
4.91667775e-05
-4.88945463e-05
-0.000101275233
4.94127885e-05
-5.02898957e-05
-9.90217462e-05
4.92364406e-05
-5.149115e-05
-9.51294072e-05
4.85376947e-05
-5.24314886e-05
-8.93201882e-05
4.72061221e-05
-5.30170659e-05
-8.12798062e-05
4.51337905e-05
-5.31761289e-05
-7.06425404e-05
4.21732184e-05
-5.28127045e-05
-5.69476851e-05
3.81047648e-05
-5.18020517e-05
-3.97250427e-05
3.27749224e-05
-5.00002391e-05
-1.85755016e-05
2.60922329e-05
-4.72446219e-05
6.9189131e-06
1.78193789e-05
-4.33168941e-05
3.78761448e-05
7.19297752e-06
-3.81534593e-05
7.52420617e-05
-5.95523646e-06
-3.14141668e-05
0.000120070245
-2.18032089e-05
-2.30287177e-05
0.000173585391
-4.12876286e-05
-1.22317306e-05
0.000237175964
-6.48210324e-05
1.2257807e-06
0.000312257096
-9.29125941e-05
1.78259727e-05
0.000400737545
-0.000126264931
3.77780348e-05
0.000504149669
-0.000165719933
6.22998391e-05
0.000624433523
-0.000212086099
9.17924022e-05
0.00076369639
-0.000266187121
0.00012691172
0.000924045394
-0.000328861199
0.000168496636
0.00110763208
-0.000401103701
0.000217497565
0.00131639096
-0.000483556603
0.000274773857
0.00155202865
-0.00057690667
0.000341241729
0.00181637632
-0.000682347655
0.00041797107
0.00210868008
-0.000797518043
0.000505183544
0.00243015415
-0.000929611005
0.000608104619
0.00279272864
-0.00108496188
0.000722353417
0.0031796002
-0.00121736227
0.000830455192
0.00355280633
-0.00138074704
0.00100750436
0.00400782479
-0.00165488594
0.00119982961
0.00458242476
-0.00179673085
0.00122209229
0.00502824075
-0.00184579168
0.00139993766
0.0053124459
-0.00217416247
0.00188992062
0.00577934122
-0.00258412437
0.00211719401
0.00650887738
-0.00269518487
0.00196562096
0.00715008442
-0.00269588997
0.00205466178
0.00742210714
-0.0028594364
0.00258741451
-0.00310066215
0.00300619071
0.00751659697
-5.02976459e-08
3.46124824e-07
-1.98030979e-07
1.05456108e-06
-4.44240874e-07
1.8026272e-06
-7.91589354e-07
2.59207057e-06
-1.24393669e-06
3.4248717e-06
-1.80608921e-06
4.30317433e-06
-2.48340978e-06
5.22869034e-06
-3.28148418e-06
6.20258757e-06
-4.20582163e-06
7.22552668e-06
-5.26159745e-06
8.29772752e-06
-6.45343569e-06
9.41901501e-06
-7.78522742e-06
1.05888479e-05
-9.25997677e-06
1.1806341e-05
-1.08796624e-05
1.30702862e-05
-1.26451171e-05
1.43791734e-05
-1.4555891e-05
1.57311945e-05
-1.66101207e-05
1.71242532e-05
-1.88043743e-05
1.85559507e-05
-2.1133475e-05
2.00235618e-05
-2.35903e-05
2.15240017e-05
-2.61655504e-05
2.30537734e-05
-2.8847477e-05
2.46088955e-05
-3.16215803e-05
2.61848227e-05
-3.44702482e-05
2.77763344e-05
-3.7372346e-05
2.93773946e-05
-4.03027495e-05
3.09810092e-05
-4.32318767e-05
3.25790816e-05
-4.61252295e-05
3.41622707e-05
-4.89428993e-05
3.57197283e-05
-5.16384884e-05
3.72383709e-05
-5.41579046e-05
3.87027315e-05
-5.64408085e-05
4.00975881e-05
-5.84189248e-05
4.14041746e-05
-6.00201768e-05
4.26041293e-05
-6.11717649e-05
4.36763743e-05
-6.17612698e-05
4.45660982e-05
-6.16545728e-05
4.52308597e-05
-6.06708265e-05
4.56075609e-05
-5.86164263e-05
4.56359213e-05
-5.52865239e-05
4.52429483e-05
-5.04614379e-05
4.43410249e-05
-4.38911946e-05
4.28417455e-05
-3.52803788e-05
4.06246635e-05
-2.42909301e-05
3.75471395e-05
-1.06005082e-05
3.35144152e-05
6.21919624e-06
2.83126515e-05
2.64547247e-05
2.19360536e-05
5.08320339e-05
1.37256659e-05
8.0065615e-05
3.53937384e-06
0.000114954615
-8.79889524e-06
0.000156491497
-2.37199658e-05
0.000205862539
-4.21808481e-05
0.000264182215
-6.42781621e-05
0.000332920414
-9.0545154e-05
0.000413309407
-0.000121681163
0.000506884476
-0.000158401555
0.000615416727
-0.000201451688
0.000740754322
-0.000251610984
0.000884792697
-0.000309768956
0.00104939712
-0.000376703628
0.00123650047
-0.000453306806
0.00144796499
-0.000540345214
0.00168536068
-0.000638521298
0.00195003526
-0.000748254355
0.00224238444
-0.000869280423
0.00256329561
-0.00100328473
0.00291228629
-0.00114653601
0.00328167063
-0.00129902397
0.00367756802
-0.00148088906
0.00412264565
-0.00166247087
0.00454770016
-0.00180583331
0.00493408448
-0.00204130244
0.00543865754
-0.00230133471
0.00600259612
-0.00240975823
0.00635972913
-0.00253131886
0.00654151223
-0.00276592839
0.00678605055
-0.00293974587
0.00715086339
-0.0030607168
0.0074526186
-0.00316119683
-0.00327312376
0.00762508812
-3.84087617e-08
3.8450145e-07
-1.50639717e-07
1.16673954e-06
-3.36892896e-07
1.98881515e-06
-5.98688202e-07
2.85378985e-06
-9.38568853e-07
3.76466705e-06
-1.35972152e-06
4.72423348e-06
-1.86565964e-06
5.73452729e-06
-2.46007759e-06
6.79689704e-06
-3.14646106e-06
7.91179438e-06
-3.92784177e-06
9.0789852e-06
-4.80658108e-06
1.02976238e-05
-5.78417714e-06
1.15663057e-05
-6.86109178e-06
1.28831093e-05
-8.03658615e-06
1.42456258e-05
-9.30855958e-06
1.56509828e-05
-1.06733853e-05
1.70958467e-05
-1.21257252e-05
1.85764086e-05
-1.36583288e-05
2.00883583e-05
-1.52618014e-05
2.16268248e-05
-1.69243349e-05
2.31863109e-05
-1.86313915e-05
2.47605882e-05
-2.03653129e-05
2.63425556e-05
-2.21048822e-05
2.79241072e-05
-2.3824848e-05
2.9495989e-05
-2.54954197e-05
3.1047623e-05
-2.70815765e-05
3.2566787e-05
-2.85433866e-05
3.40404683e-05
-2.98353951e-05
3.54538054e-05
-3.09069505e-05
3.67907532e-05
-3.17019634e-05
3.80327904e-05
-3.21613431e-05
3.91614357e-05
-3.22008834e-05
4.01363623e-05
-3.1720022e-05
4.09224446e-05
-3.0594064e-05
4.14771864e-05
-2.86709009e-05
4.17520865e-05
-2.57906738e-05
4.16846002e-05
-2.17689467e-05
4.12076835e-05
-1.64035164e-05
4.02404915e-05
-9.47498354e-06
3.8705536e-05
-7.29105521e-07
3.6494998e-05
1.01270237e-05
3.3482571e-05
2.33948566e-05
2.95713367e-05
3.94492357e-05
2.4567425e-05
5.84913074e-05
1.85019166e-05
8.12638991e-05
1.07383833e-05
0.000108420659
1.15218928e-06
0.000140696617
-1.03440008e-05
0.000178929853
-2.45120616e-05
0.000224076629
-4.16123344e-05
0.000277317071
-6.20447212e-05
0.000339921932
-8.63307811e-05
0.000412817664
-0.000115083136
0.000497444188
-0.000148912043
0.000595385309
-0.000188494542
0.00070826093
-0.000234566247
0.000837745137
-0.000287896502
0.000985523085
-0.000349241998
0.00115328707
-0.000419389196
0.00134267827
-0.000499176808
0.00155531591
-0.000589359956
0.00179257162
-0.000690582343
0.00205535948
-0.000803153368
0.00234397912
-0.000927161839
0.00265839631
-0.00106269311
0.00299720398
-0.00120811043
0.00335756507
-0.00136366908
0.00373959796
-0.00152859303
0.00413664324
-0.00169609438
0.00452911173
-0.00187338346
0.00494254725
-0.00207593319
0.0053834372
-0.00224674905
0.00574031674
-0.00239820619
0.00601649124
-0.00257753435
0.00632568349
-0.00271897545
0.00662381907
-0.00282947587
0.00680796012
-0.0029500885
0.00694086269
-0.00307266218
0.00707108034
-0.00319094485
0.0072076352
-0.00329775798
-0.00340501597
0.00733952785
-2.97562633e-08
4.14255707e-07
-1.15945499e-07
1.2529225e-06
-2.57854256e-07
2.13071429e-06
-4.55735895e-07
3.05165899e-06
-7.10664712e-07
4.01958069e-06
-1.02414028e-06
5.03769116e-06
-1.39784619e-06
6.1082123e-06
-1.833159e-06
7.23218552e-06
-2.33095976e-06
8.40956673e-06
-2.89166169e-06
9.63965395e-06
-3.51479283e-06
1.0920716e-05
-4.19879655e-06
1.2250264e-05
-4.94084014e-06
1.36250997e-05
-5.73663253e-06
1.50413562e-05
-6.58023217e-06
1.64945101e-05
-7.46383269e-06
1.79793632e-05
-8.37752586e-06
1.94900043e-05
-9.30899535e-06
2.10197153e-05
-1.02431724e-05
2.25608721e-05
-1.1161865e-05
2.41048547e-05
-1.20434154e-05
2.5641968e-05
-1.28627161e-05
2.71616618e-05
-1.35908466e-05
2.86520154e-05
-1.41947843e-05
3.00996743e-05
-1.46370472e-05
3.14895996e-05
-1.4875496e-05
3.28049135e-05
-1.48561151e-05
3.4020723e-05
-1.45156242e-05
3.51129039e-05
-1.37794208e-05
3.60540878e-05
-1.25575798e-05
3.68104312e-05
-1.07400603e-05
3.73433312e-05
-8.20846067e-06
3.76041092e-05
-4.8256279e-06
3.75388794e-05
-4.32718302e-07
3.70834578e-05
5.155395e-06
3.6163054e-05
1.21296259e-05
3.47093481e-05
2.07094054e-05
3.26267655e-05
3.11408498e-05
2.9807787e-05
4.37363397e-05
2.6108648e-05
5.88346401e-05
2.13951611e-05
7.6621841e-05
1.56936646e-05
9.77595433e-05
8.4317824e-06
0.000122815804
-4.90844587e-07
0.00015244456
-1.11290561e-05
0.000187471621
-2.42911567e-05
0.000228720075
-4.00989831e-05
0.000277301489
-5.89284265e-05
0.000334060179
-8.1274072e-05
0.000400099546
-0.000107655414
0.000476691134
-0.000138640455
0.000565210362
-0.000174854726
0.000667089879
-0.000216968007
0.000783829975
-0.00026565828
0.000916970307
-0.00032164188
0.00106803465
-0.000385638689
0.00123849025
-0.000458361484
0.00142977534
-0.00054053808
0.00164312516
-0.000632751355
0.00187939499
-0.000735459702
0.00213892288
-0.000848901355
0.00242148833
-0.000973161756
0.00272614566
-0.00110782519
0.00305078425
-0.00125181546
0.00339282648
-0.00140475105
0.00374912501
-0.00156442534
0.00411314463
-0.00172770594
0.00447914084
-0.00189460719
0.00484678386
-0.00206375608
0.00519980232
-0.00222642042
0.0055078322
-0.0023839821
0.00579062342
-0.00252956023
0.00603536862
-0.00264297283
0.0062086916
-0.00275087829
0.00635025748
-0.00286056042
0.00649349888
-0.00297273488
0.0066273624
-0.00308396751
0.00674306322
-0.00318837483
0.00684253848
-0.00329042793
0.00693843054
-0.00339365314
-0.00349925508
0.00703267039
-2.58564652e-08
4.40007146e-07
-9.98343396e-08
1.32675019e-06
-2.20284669e-07
2.25099106e-06
-3.86173355e-07
3.21735309e-06
-5.96861064e-07
4.23005452e-06
-8.51908079e-07
5.29250598e-06
-1.15076226e-06
6.40681623e-06
-1.49233291e-06
7.57348759e-06
-1.87490176e-06
8.79184801e-06
-2.29550036e-06
1.00599453e-05
-2.74992184e-06
1.13748095e-05
-3.23273175e-06
1.27327239e-05
-3.73684923e-06
1.41288438e-05
-4.25329685e-06
1.55574056e-05
-4.77095586e-06
1.70117442e-05
-5.27631594e-06
1.848427e-05
-5.75322004e-06
1.99664243e-05
-6.18269122e-06
2.14486691e-05
-6.54269035e-06
2.29203171e-05
-6.80789345e-06
2.43694654e-05
-6.94724895e-06
2.57806891e-05
-6.92492895e-06
2.71386607e-05
-6.69934666e-06
2.84257001e-05
-6.22187695e-06
2.96214155e-05
-5.43548556e-06
3.07023564e-05
-4.27272675e-06
3.16412336e-05
-2.65857728e-06
3.24055743e-05
-5.0429159e-07
3.29575352e-05
2.29536168e-06
3.3253257e-05
5.86302938e-06
3.32414782e-05
1.03428536e-05
3.28621e-05
1.58861181e-05
3.20593094e-05
2.26677193e-05
3.0755598e-05
3.08860887e-05
2.8863252e-05
4.07652218e-05
2.62819098e-05
5.25898086e-05
2.28825658e-05
6.66779201e-05
1.85362478e-05
8.32340494e-05
1.3249021e-05
0.000102809643
6.53020923e-06
0.000125908487
-1.70673373e-06
0.00015311537
-1.15165761e-05
0.000185161541
-2.36180876e-05
0.000222793511
-3.81268535e-05
0.000267044913
-5.53848519e-05
0.000318587022
-7.5838055e-05
0.000378431463
-9.99486292e-05
0.000447727953
-0.000128230595
0.000527693192
-0.000161245502
0.000619624743
-0.000199593736
0.000724889858
-0.000243912919
0.000844889289
-0.000294862133
0.00098102361
-0.000353110966
0.00113467547
-0.000419319534
0.00130712148
-0.000494098169
0.00149948723
-0.000578015764
0.00171260672
-0.000671492976
0.00194688374
-0.000774827069
0.00220220216
-0.000888081529
0.00247772008
-0.00101098916
0.00277158407
-0.00114277679
0.00308123461
-0.00128282368
0.00340318345
-0.0014297855
0.00373306743
-0.00158171103
0.00406459422
-0.00173628975
0.00439335566
-0.00189319898
0.00471338299
-0.00204774589
0.00501477723
-0.00219601383
0.00528571125
-0.0023347021
0.00552265952
-0.00246338152
0.00570745774
-0.00256879542
0.00584762332
-0.00266973919
0.00597600493
-0.00277136767
0.00609548995
-0.00287037597
0.00620321601
-0.0029682961
0.00629820014
-0.00306772795
0.00638481172
-0.00317058634
0.00647366001
-0.00327722781
0.00656476519
-0.00338153573
0.00665771699
-0.00348660508
-0.00359417511
0.00675263846
-2.58685812e-08
4.65840137e-07
-9.91625954e-08
1.39999235e-06
-2.17164082e-07
2.36893173e-06
-3.7740501e-07
3.37752471e-06
-5.77410965e-07
4.42998277e-06
-8.14379712e-07
5.52938834e-06
-1.08487983e-06
6.67722058e-06
-1.38477156e-06
7.87327321e-06
-1.7088163e-06
9.11577499e-06
-2.0502028e-06
1.04012009e-05
-2.40051218e-06
1.17249732e-05
-2.74914598e-06
1.30811956e-05
-3.08328781e-06
1.44628049e-05
-3.38768326e-06
1.58615997e-05
-3.64431358e-06
1.726815e-05
-3.83200614e-06
1.86717128e-05
-3.92586596e-06
2.00600065e-05
-3.89705825e-06
2.14195529e-05
-3.71218686e-06
2.27351025e-05
-3.33253187e-06
2.39894298e-05
-2.71462861e-06
2.51623647e-05
-1.80750586e-06
2.62310724e-05
-5.512167e-07
2.71688968e-05
1.12463034e-06
2.79450022e-05
3.30244176e-06
2.85239197e-05
6.07858188e-06
2.8864405e-05
9.55872374e-06
2.89246758e-05
1.38639621e-05
2.86514676e-05
1.91329964e-05
2.79833137e-05
2.55241622e-05
2.68493185e-05
3.32167244e-05
2.51684513e-05
4.24268931e-05
2.28479562e-05
5.34095627e-05
1.97716378e-05
6.6453928e-05
1.58174821e-05
8.17621966e-05
1.09721081e-05
9.98202104e-05
4.82290671e-06
0.000121078266
-2.72357116e-06
0.000146057389
-1.17320266e-05
0.000175358448
-2.27729598e-05
0.000209657323
-3.60078969e-05
0.00024988428
-5.17460185e-05
0.000296643508
-7.03800116e-05
0.000350836065
-9.23223455e-05
0.000413478173
-0.000118030153
0.00048564766
-0.000148011034
0.000568505088
-0.000182809874
0.000663276011
-0.000223005688
0.000771230715
-0.000269204747
0.000893654205
-0.000322022184
0.00103180098
-0.000382065113
0.0011868452
-0.000449912283
0.00135981418
-0.00052608648
0.00155151837
-0.000611030942
0.00176244819
-0.000705035719
0.00199261767
-0.000808193032
0.00224145363
-0.000920336628
0.002507683
-0.00104106397
0.00278924896
-0.00116965491
0.00308328602
-0.00130503349
0.00338560244
-0.0014451004
0.00369160409
-0.00158883242
0.00399558481
-0.00173377336
0.00429407809
-0.00188021148
0.0045791208
-0.00202133968
0.00484081936
-0.00215490425
0.005069453
-0.00227638607
0.00526189674
-0.00238846476
0.00541556751
-0.00248838021
0.00553868578
-0.00258650667
0.00564860146
-0.00267871876
0.00574996808
-0.00277111244
0.00584578364
-0.00286718832
0.00593474705
-0.00295934312
0.00601820128
-0.00305175336
0.00609985004
-0.00314937878
0.00617802829
-0.00324876567
0.00625614362
-0.00335534314
0.00634154156
-0.00346693257
0.00642954982
-0.00357461168
-0.00368163214
0.00651700887
-2.77782673e-08
4.93499389e-07
-1.0546975e-07
1.47751753e-06
-2.28954317e-07
2.4922268e-06
-3.93969039e-07
3.54232857e-06
-5.9577658e-07
4.63155939e-06
-8.2880249e-07
5.76216384e-06
-1.08629989e-06
6.93444797e-06
-1.36003555e-06
8.14671871e-06
-1.63999548e-06
9.3954236e-06
-1.91443878e-06
1.06753103e-05
-2.16924992e-06
1.19794264e-05
-2.3874184e-06
1.32989805e-05
-2.54896822e-06
1.46239432e-05
-2.63059724e-06
1.59427869e-05
-2.60505166e-06
1.72421302e-05
-2.44070176e-06
1.85068544e-05
-2.10120939e-06
1.97199688e-05
-1.5446316e-06
2.08623892e-05
-7.22040823e-07
2.19118803e-05
4.23738223e-07
2.28429701e-05
1.95714548e-06
2.36282238e-05
3.95249351e-06
2.42349331e-05
6.49464104e-06
2.46258941e-05
9.68060919e-06
2.47581088e-05
1.36211315e-05
2.45823953e-05
1.84423475e-05
2.40421029e-05
2.42936885e-05
2.30721566e-05
3.13458935e-05
2.15979838e-05
3.97938063e-05
1.95340113e-05
4.98658077e-05
1.67758082e-05
6.18239529e-05
1.32086625e-05
7.58674858e-05
8.8026305e-06
9.24204189e-05
3.21677309e-06
0.000111880207
-3.6443826e-06
0.000134704619
-1.18545812e-05
0.000161417961
-2.18929331e-05
0.000192605486
-3.39138195e-05
0.000229070675
-4.82001835e-05
0.000271393394
-6.50989114e-05
0.000320362622
-8.49806441e-05
0.000376868643
-0.000108255872
0.000441862555
-0.000135378097
0.000516372395
-0.000166836732
0.00060149188
-0.000203154564
0.000698353608
-0.000244878074
0.000808103295
-0.000292565275
0.000931864479
-0.000346773002
0.0010706902
-0.00040803703
0.00122550871
-0.000476847714
0.00139705997
-0.000553623891
0.00158581999
-0.000638680397
0.00179192721
-0.000732202188
0.00201503408
-0.00083414617
0.0022542026
-0.000944212244
0.00250780544
-0.00106180346
0.00277344798
-0.0011859864
0.00304792749
-0.0013155503
0.00332732545
-0.00144905935
0.00360707652
-0.00158479066
0.00388188122
-0.00171991091
0.00414614514
-0.00185310184
0.00439521851
-0.00198285184
0.00461951086
-0.0021045083
0.00481148195
-0.00221331512
0.00496924117
-0.00231266813
0.00509909462
-0.0024062437
0.00520992576
-0.00249929943
0.00530903702
-0.00258749532
0.00539641681
-0.00267389015
0.00547822399
-0.00276052911
0.00555366242
-0.00284655355
0.00562341808
-0.00293694636
0.00569464235
-0.00303056866
0.00576763632
-0.0031247475
0.00584189771
-0.00322363913
0.00592290482
-0.00332977105
0.00600363754
-0.00343607374
0.00608258625
-0.00354587861
0.00616704259
-0.00365906579
-0.00377087691
0.00625628868
-2.80654961e-08
5.21520281e-07
-1.05213606e-07
1.55460275e-06
-2.25478534e-07
2.61241934e-06
-3.82261113e-07
3.6990295e-06
-5.67944724e-07
4.81715201e-06
-7.73489875e-07
5.9676082e-06
-9.88067106e-07
7.14891376e-06
-1.19870567e-06
8.35723408e-06
-1.38988431e-06
9.5864659e-06
-1.54313753e-06
1.08284123e-05
-1.63675383e-06
1.20728748e-05
-1.64549425e-06
1.33075346e-05
-1.53983932e-06
1.45180809e-05
-1.28535911e-06
1.5688076e-05
-8.42200291e-07
1.67987148e-05
-1.64647879e-07
1.7829017e-05
7.99821872e-07
1.87551824e-05
2.11166925e-06
1.95501903e-05
3.83953982e-06
2.01836201e-05
6.06204951e-06
2.06200291e-05
8.87003992e-06
2.0819756e-05
1.23676641e-05
2.07367813e-05
1.66742222e-05
2.03187538e-05
2.19257413e-05
1.95059483e-05
2.8277043e-05
1.82303878e-05
3.59047934e-05
1.64135773e-05
4.50143544e-05
1.39617453e-05
5.58428493e-05
1.07685566e-05
6.8583709e-05
6.79212856e-06
8.36063576e-05
1.75205142e-06
0.000101261809
-4.44798655e-06
0.000121952994
-1.18898679e-05
0.000146139526
-2.09711992e-05
0.000174333079
-3.18395041e-05
0.000207228522
-4.47517316e-05
0.000245347871
-6.00141394e-05
0.00028938924
-7.79572093e-05
0.000340134368
-9.89475079e-05
0.00039842264
-0.000123389574
0.000465159682
-0.000151720289
0.00054130749
-0.000184406507
0.000627865841
-0.000221939506
0.000725849511
-0.000264823706
0.000836257429
-0.00031356605
0.000960034681
-0.000368659176
0.00109802562
-0.000430560369
0.00125091437
-0.000499666228
0.00141915563
-0.000576283122
0.00160289645
-0.000660593783
0.00180191472
-0.000752647802
0.00201549659
-0.000852267996
0.00224233835
-0.000959049543
0.00248049223
-0.00107230545
0.00272730296
-0.00119102819
0.00297942172
-0.00131392718
0.00323285354
-0.00143942294
0.00348304511
-0.00156574628
0.00372503559
-0.00169105396
0.00395351639
-0.00181327519
0.00416431103
-0.00193070894
0.00435249537
-0.00204128912
0.00451306355
-0.00214342263
0.0046446874
-0.0022361344
0.00475474797
-0.0023233779
0.00485056731
-0.00240848915
0.00493758043
-0.00249325798
0.00501613943
-0.00257785921
0.00509006035
-0.00266141686
0.00515983587
-0.00274366603
0.00522816911
-0.00282886251
0.00529685332
-0.00291523757
0.00536415289
-0.00300424548
0.00543055326
-0.00309696805
0.00549948612
-0.00319367894
0.00556715588
-0.00329130713
0.00563296905
-0.00339558192
0.00570123723
-0.00350433916
0.00577147706
-0.00361611585
0.00584650397
-0.00373409092
-0.00385431426
0.00592994192
-2.46907546e-08
5.46115711e-07
-8.95755501e-08
1.61935605e-06
-1.85996001e-07
2.7086911e-06
-3.04118079e-07
3.81698675e-06
-4.32439727e-07
4.94529338e-06
-5.57298701e-07
6.09227159e-06
-6.62414863e-07
7.25381857e-06
-7.28450677e-07
8.42304207e-06
-7.32514252e-07
9.59028417e-06
-6.47668547e-07
1.07433024e-05
-4.42366273e-07
1.18672878e-05
-7.99183991e-08
1.29447798e-05
4.8198558e-07
1.39558459e-05
1.29196835e-06
1.4877736e-05
2.4056495e-06
1.56846478e-05
3.88676527e-06
1.6347484e-05
5.80835875e-06
1.68331377e-05
8.25396074e-06
1.71041001e-05
1.13190484e-05
1.71180029e-05
1.5112759e-05
1.68257437e-05
1.97598446e-05
1.61720462e-05
2.54024535e-05
1.50934941e-05
3.22041709e-05
1.35162984e-05
4.03405816e-05
1.13687348e-05
5.00260402e-05
8.54405361e-06
6.14427179e-05
4.99594315e-06
7.49224633e-05
4.80964406e-07
9.07731012e-05
-5.08320141e-06
0.000109347824
-1.17838228e-05
0.00013104917
-1.99506428e-05
0.00015632422
-2.97245114e-05
0.00018577021
-4.133747e-05
0.000219856228
-5.50589794e-05
0.000259196887
-7.11820891e-05
0.000304475159
-9.00321088e-05
0.000356426533
-0.000111967816
0.000415844568
-0.000137377764
0.000483572438
-0.000166678127
0.000560488652
-0.000200308771
0.000647489115
-0.000238723985
0.000745463002
-0.000282383889
0.000855260447
-0.000331740723
0.000977654078
-0.000387221395
0.00111328978
-0.000449206112
0.00126262886
-0.000518002923
0.00142588206
-0.000593818568
0.0016029369
-0.000676726424
0.00179328499
-0.000766636984
0.00199594712
-0.000863261866
0.00220937616
-0.000966082649
0.00243141954
-0.00107431697
0.00265925624
-0.00118689162
0.00288951577
-0.00130257009
0.00311831799
-0.00141983529
0.00334149828
-0.00153711205
0.0035545311
-0.00165246004
0.00375397436
-0.00176519342
0.00393551958
-0.00187260265
0.00409625726
-0.00197401583
0.00423397106
-0.00206842528
0.00434860883
-0.00215592897
0.00444256763
-0.00223738281
0.00452415528
-0.00231772281
0.00459950431
-0.00239872734
0.00466999473
-0.0024789794
0.00473555271
-0.00255881539
0.00479559443
-0.00263790016
0.00485286394
-0.00271868542
0.00491042577
-0.00280122668
0.00496841694
-0.00288685252
0.00502752977
-0.00297434896
0.00508737285
-0.00306408697
0.00514730686
-0.0031569002
0.00520897765
-0.00325534762
0.00527546617
-0.00335779325
0.00534517087
-0.00346528388
0.0054175506
-0.00357671674
0.00548636515
-0.0036849288
0.00554784142
-0.00379556664
-0.0039178624
0.00561138905
-1.60034365e-08
5.62082777e-07
-5.20890541e-08
1.65539104e-06
-9.57248043e-08
2.75226898e-06
-1.32488209e-07
3.85368507e-06
-1.45461779e-07
4.95819447e-06
-1.14637708e-07
6.06136717e-06
-1.63587905e-08
7.15545064e-06
1.77255788e-07
8.22932881e-06
4.98835993e-07
9.26859445e-06
9.86308546e-07
1.02557081e-05
1.68352212e-06
1.11699387e-05
2.64086381e-06
1.19872871e-05
3.91623093e-06
1.26803105e-05
5.57579622e-06
1.32179831e-05
7.695327e-06
1.35649078e-05
1.0361328e-05
1.36812497e-05
1.3672486e-05
1.35217196e-05
1.77411823e-05
1.30351141e-05
2.26956463e-05
1.21632165e-05
2.86822593e-05
1.08387726e-05
3.58662649e-05
8.98764319e-06
4.44120554e-05
6.54726236e-06
5.45399828e-05
3.38788149e-06
6.65068612e-05
-5.98681519e-07
8.05846451e-05
-5.53432034e-06
9.70852165e-05
-1.15052814e-05
0.000116362609
-1.87971511e-05
0.000138806827
-2.75282145e-05
0.000164928776
-3.79066462e-05
0.000195147136
-5.01699621e-05
0.000229999536
-6.45779648e-05
0.000270079522
-8.14186089e-05
0.000316028081
-0.000101008801
0.00036853719
-0.000123692581
0.000428342933
-0.000149839362
0.000496214597
-0.000179841122
0.000572940452
-0.000214105401
0.00065930853
-0.000253048135
0.000756080463
-0.000297082792
0.000863960425
-0.000346606203
0.000983555089
-0.000401980987
0.00111532635
-0.000463514607
0.0012595371
-0.000531434969
0.00141619142
-0.000605863475
0.0015849718
-0.000686786578
0.00176517717
-0.000774027493
0.0019556692
-0.000867222245
0.00215480842
-0.000965780078
0.00236042052
-0.00106887776
0.002569794
-0.00117545986
0.00277973444
-0.00128426102
0.00298662204
-0.00139378273
0.00318671815
-0.00150266953
0.00337633134
-0.00160945165
0.00355316017
-0.00171394379
0.00371359584
-0.00181289828
0.00385444834
-0.00190604795
0.00397500037
-0.00199315632
0.00407694982
-0.00207596655
0.00416257404
-0.00215405019
0.00423589702
-0.00222925207
0.00430146347
-0.00230294888
0.0043622643
-0.00237852282
0.00441899266
-0.00245545465
0.00447102955
-0.00253101446
0.00452047664
-0.00260825981
0.00457147043
-0.00268889146
0.00462314203
-0.00277035502
0.00467709888
-0.00285518157
0.00472998828
-0.00293973975
0.00478497348
-0.00302933204
0.00484237075
-0.00312148237
0.00490210715
-0.00321663478
0.00495994232
-0.00331318104
0.00501902837
-0.00341687735
0.00507818357
-0.00352443718
0.00514032808
-0.00363885973
0.00520911029
-0.00375371029
0.00527557466
-0.00386203134
-0.00396983193
0.00532754302
-1.25901025e-09
5.63281112e-07
1.05704251e-08
1.64347844e-06
5.33181186e-08
2.70942753e-06
1.47614905e-07
3.75928441e-06
3.17566819e-07
4.7881288e-06
5.91432436e-07
5.78737779e-06
1.00226429e-06
6.74448458e-06
1.5885394e-06
7.64290836e-06
2.39479967e-06
8.46217679e-06
3.47244899e-06
9.17788824e-06
4.8805744e-06
9.7616283e-06
6.68672183e-06
1.01809389e-05
8.96828548e-06
1.03985287e-05
1.18135038e-05
1.03725272e-05
1.53228356e-05
1.0055317e-05
1.96104338e-05
9.39336899e-06
2.4806187e-05
8.32565772e-06
3.10570113e-05
6.78395216e-06
3.85120668e-05
4.7077909e-06
4.73748084e-05
1.9756271e-06
5.78597198e-05
-1.49770797e-06
7.02069157e-05
-5.80041626e-06
8.46883266e-05
-1.10940613e-05
0.000101618784
-1.75297229e-05
0.00012133711
-2.52532888e-05
0.000144281418
-3.4450295e-05
0.000170812189
-4.53286966e-05
0.00020139992
-5.81167973e-05
0.000236560204
-7.30678656e-05
0.000276849939
-9.04607247e-05
0.000322869548
-0.000110598704
0.000375258031
-0.00013380833
0.000434685085
-0.00016043721
0.000501840126
-0.000190849098
0.000577417072
-0.000225417913
0.000662093463
-0.000264519256
0.000756505306
-0.000308519133
0.000861214799
-0.000357759672
0.000976671763
-0.000412541961
0.00110316903
-0.000473105846
0.00124079276
-0.000539607271
0.00138936914
-0.000612093724
0.00154841032
-0.000690479065
0.00171706359
-0.000774519895
0.00189407119
-0.000863797556
0.00207775568
-0.000957715531
0.00226598953
-0.00105545964
0.00245621638
-0.00115601042
0.00264552227
-0.00125818706
0.00283074341
-0.00136068435
0.00300864845
-0.0014621693
0.0031761314
-0.00156126886
0.00333040209
-0.00165694324
0.00346929595
-0.00174834813
0.0035895271
-0.00183417714
0.00369129265
-0.00191466585
0.00377526179
-0.0019900188
0.00384677955
-0.00206467539
0.00391049418
-0.00213968166
0.00397004462
-0.0022136004
0.00402666027
-0.00228586674
0.00408016059
-0.00235644772
0.0041296331
-0.00242799298
0.00417701029
-0.00250282855
0.00422597014
-0.00257997111
0.00427417053
-0.00265645744
0.00431966726
-0.00273438545
0.00436254807
-0.00281323307
0.00440474229
-0.00289737305
0.0044529066
-0.0029879016
0.00450473734
-0.0030811607
0.00455957149
-0.00317631442
0.00461678573
-0.00327384697
0.00467829556
-0.00337468914
0.00474319575
-0.00348177589
0.00480818114
-0.0035894213
0.00487366575
-0.00370434338
0.00494197533
-0.00382201953
0.00501374219
-0.00393379851
-0.00402915324
0.00507306252
1.98387806e-08
5.43414274e-07
9.96973517e-08
1.56357998e-06
2.64351148e-07
2.54472752e-06
5.42411146e-07
3.48117204e-06
9.67079683e-07
4.36340169e-06
1.57694564e-06
5.17744675e-06
2.41674066e-06
5.90461742e-06
3.53812676e-06
6.5214423e-06
5.00055181e-06
6.99966304e-06
6.87201957e-06
7.30632201e-06
9.23046878e-06
7.40306966e-06
1.21646434e-05
7.24664237e-06
1.57754546e-05
6.78758169e-06
2.0177667e-05
5.97016338e-06
2.5501332e-05
4.73148331e-06
3.18827139e-05
3.01179876e-06
3.94970639e-05
7.11098721e-07
4.85316745e-05
-2.25089036e-06
5.9197244e-05
-5.95803693e-06
7.1730934e-05
-1.05583505e-05
8.63988297e-05
-1.61659228e-05
0.000103521003
-2.29229432e-05
0.000123418785
-3.09922349e-05
0.000146443452
-4.05548235e-05
0.000173001185
-5.18114993e-05
0.000203535112
-6.49847476e-05
0.000238524992
-8.03191559e-05
0.00027848872
-9.80811609e-05
0.000323978393
-0.000118558235
0.000375574296
-0.000142057389
0.00043387656
-0.000168901794
0.000499493206
-0.000199425873
0.000573023912
-0.000233968886
0.000655039753
-0.000272865986
0.000746057554
-0.000316436841
0.000846508791
-0.000364971703
0.000956703226
-0.000418714865
0.00107678797
-0.000477845808
0.00120670275
-0.000542458223
0.00134613359
-0.000612538271
0.00149446718
-0.000687942551
0.00165074991
-0.000768378264
0.00181365657
-0.000853387668
0.00198147686
-0.000942342287
0.00215213968
-0.00103446258
0.00232324618
-0.00112882425
0.00249213146
-0.00122434714
0.00265598832
-0.00131986949
0.00281203333
-0.00141423423
0.00295771174
-0.0015063649
0.00309091316
-0.00159537277
0.00321022074
-0.00168057837
0.00331474685
-0.00176147106
0.00340410843
-0.00183771134
0.00347964951
-0.00190971941
0.00354667209
-0.00198168919