/*--------------------------------*- C++ -*----------------------------------*\
  =========                 |
  \\      /  F ield         | OpenFOAM: The Open Source CFD Toolbox
   \\    /   O peration     | Website:  https://openfoam.org
    \\  /    A nd           | Version:  8
     \\/     M anipulation  |
\*---------------------------------------------------------------------------*/
FoamFile
{
    version     2.0;
    format      ascii;
    class       volScalarField;
    location    "0.06";
    object      T;
}
// * * * * * * * * * * * * * * * * * * * * * * * * * * * * * * * * * * * * * //

dimensions      [0 0 0 1 0 0 0];

internalField   nonuniform List<scalar> 
42400
(
472.213294
470.622609
468.990381
467.315838
465.598258
463.836986
462.031448
460.181175
458.285822
456.345193
454.359271
452.328242
450.252534
448.132843
445.970174
443.765875
441.521675
439.239721
436.922614
434.573448
432.195841
429.793964
427.372569
424.937005
422.493233
420.047828
417.60797
415.181425
412.776514
410.402067
408.067359
405.782042
403.556048
401.399502
399.3226
397.335495
395.448171
393.670335
392.011304
390.47989
389.084259
387.831785
386.728913
385.781018
384.992261
384.365419
383.901807
383.601133
383.46388
383.481016
383.648415
383.956901
384.393127
384.939808
385.576347
386.273632
386.99658
387.721471
388.450377
388.930778
389.081342
388.900775
388.153278
387.197907
385.946353
384.326806
382.214705
379.500826
376.165889
372.287364
367.55315
362.208069
357.116382
351.13068
343.72425
337.232362
331.639669
326.468221
319.096611
313.780047
472.24373
470.7146
469.145587
467.535991
465.88517
464.192559
462.457683
460.68018
458.859826
456.996559
455.090508
453.142024
451.15171
449.120463
447.0495
444.940404
442.795158
440.616184
438.406377
436.169148
433.908447
431.628802
429.335334
427.033781
424.730503
422.432484
420.147321
417.883196
415.648846
413.453501
411.306826
409.218831
407.199777
405.260066
403.410128
401.660294
400.020635
398.500784
397.109762
395.855744
394.745844
393.785867
392.980122
392.331163
391.839489
391.503353
391.318419
391.277947
391.3698
391.58228
391.895171
392.284718
392.71871
393.165986
393.606194
393.960838
394.047237
393.854718
393.194479
392.300615
391.144558
389.654544
387.734123
385.270924
382.231903
378.597738
374.383666
369.577191
364.19519
358.505477
352.389632
345.703727
339.388682
333.441568
327.007434
320.592894
315.264655
310.52937
306.582274
302.822516
472.284505
470.837841
469.353512
467.830912
466.269505
464.668836
463.028554
461.348432
459.628392
457.868534
456.069161
454.230814
452.354303
450.440744
448.491594
446.508688
444.494277
442.451064
440.382238
438.291514
436.183152
434.061994
431.933476
429.803639
427.679139
425.567229
423.475745
421.413067
419.388071
417.410067
415.488715
413.63394
411.855798
410.164333
408.569404
407.080494
405.706459
404.455282
403.333799
402.347424
401.499838
400.792639
400.225082
399.79363
399.492062
399.310184
399.233339
399.242105
399.313177
399.42043
399.541041
399.63094
399.553897
399.235292
398.615118
397.693014
396.55744
395.141342
393.371379
391.131083
388.363798
385.037964
381.138872
376.677967
371.692431
366.231005
360.383125
354.2253
347.791864
341.3105
335.007824
328.720866
322.692449
317.411276
312.568884
308.366718
304.492628
301.5564
300.196433
299.885985
472.332482
470.982852
469.598163
468.177923
466.721714
465.229213
463.70021
462.134635
460.532577
458.894318
457.220358
455.511447
453.76862
451.993227
450.186974
448.351952
446.490673
444.606105
442.701704
440.781436
438.849805
436.91187
434.97325
433.040128
431.119243
429.217861
427.343746
425.505101
423.710492
421.968755
420.288874
418.679838
417.150446
415.709105
414.363579
413.12072
411.986179
410.964082
410.056691
409.264016
408.583413
408.009523
407.533133
407.140997
406.817747
406.545116
406.305108
406.027286
405.643999
405.105495
404.354091
403.358276
402.186124
400.778872
399.074707
396.987331
394.44447
391.409454
387.855541
383.771835
379.164761
374.059223
368.5056
362.574329
356.360922
349.965884
343.499341
337.088924
330.831856
324.83977
319.335756
314.40004
310.025239
306.338333
303.295895
300.981059
300.14464
299.961673
299.895197
299.877111
472.384051
471.138714
469.861125
468.550907
467.207774
465.831542
464.422154
462.979704
461.504457
459.996881
458.457672
456.887789
455.288478
453.661309
452.008203
450.331464
448.633807
446.918384
445.188804
443.449154
441.704005
439.958417
438.21793
436.488544
434.776681
433.089143
431.433029
429.815649
428.244398
426.72661
425.26938
423.879346
422.562453
421.323684
420.166747
419.093748
418.104821
417.197741
416.367846
415.607448
414.905993
414.251035
413.619165
412.961601
412.242124
411.418626
410.443364
409.325318
408.056408
406.590839
404.877706
402.850056
400.442307
397.617315
394.344152
390.602325
386.384505
381.697403
376.563616
371.019045
365.119684
358.940714
352.574293
346.120849
339.696369
333.421222
327.401559
321.762513
316.618506
312.063962
308.186057
305.050557
302.632044
300.790921
300.096979
299.937396
299.891065
299.877588
299.872749
299.864121
472.435184
471.293262
470.12187
468.920752
467.689747
466.428807
465.13802
463.817627
462.468049
461.089913
459.684074
458.251644
456.794018
455.312896
453.810311
452.288647
450.750656
449.199474
447.638623
446.072014
444.503934
442.939024
441.382244
439.838822
438.314178
436.813835
435.343297
433.907909
432.512683
431.162096
429.85986
428.608662
427.409883
426.263282
425.166667
424.115759
423.103757
422.118939
421.14288
420.152994
419.122901
418.022952
416.829739
415.540587
414.123726
412.543532
410.758361
408.713854
406.362045
403.667274
400.597495
397.127085
393.239439
388.92839
384.199765
379.072567
373.579431
367.765453
361.691998
355.435958
349.081292
342.725289
336.473233
330.435778
324.72132
319.43772
314.674622
310.528113
307.064176
304.323134
302.324484
300.889235
300.151388
299.977662
299.92207
299.899305
299.887349
299.875525
299.858282
299.842346
472.481334
471.432748
470.357202
469.25454
468.124708
466.967763
465.783894
464.573446
463.336929
462.075048
460.78872
459.479091
458.147553
456.795765
455.425657
454.039442
452.639616
451.228949
449.810475
448.387462
446.963373
445.541813
444.12646
442.720966
441.328853
439.953371
438.597337
437.262951
435.951579
434.663516
433.397718
432.151516
430.92039
429.697589
428.472612
427.231577
425.958205
424.637071
423.252118
421.782936
420.205495
418.49133
416.605428
414.50781
412.166232
409.548688
406.624915
403.368228
399.757297
395.777596
391.422862
386.696401
381.612229
376.195926
370.485207
364.530035
358.392383
352.146273
345.876367
339.678618
333.646812
327.8837
322.492695
317.571002
313.193938
309.434076
306.341607
303.940176
302.189842
301.04289
300.321567
300.033061
299.964027
299.933392
299.907719
299.884477
299.856911
299.833684
299.817717
299.81268
472.517579
471.542288
470.541997
469.516615
468.46614
467.390676
466.290443
465.165788
464.017206
462.845345
461.651019
460.43522
459.199118
457.944065
456.671593
455.383398
454.081327
452.767346
451.4435
450.111863
448.774468
447.433222
446.089803
444.745534
443.401238
442.057075
440.712357
439.365346
438.013052
436.651035
435.273157
433.871349
432.435432
430.952849
429.409812
427.790715
426.07649
424.243586
422.267438
420.122819
417.783352
415.222217
412.413084
409.331236
405.954686
402.265392
398.25046
393.903311
389.224775
384.224037
378.919559
373.339717
367.523386
361.520347
355.391491
349.209033
343.054183
337.015772
331.189085
325.673514
320.562744
315.945795
311.897564
308.473358
305.698581
303.570562
302.045187
301.036239
300.44176
300.12304
300.0078
299.96362
299.920192
299.87947
299.847925
299.824064
299.815125
299.81323
299.812319
299.811926
472.539133
471.607418
470.651841
469.672313
468.668817
467.641412
466.590243
465.515541
464.417631
463.296933
462.15396
460.989315
459.803678
458.597791
457.372439
456.128412
454.866466
453.587335
452.291645
450.979835
449.652073
448.308145
446.947332
445.568258
444.168707
442.745415
441.293776
439.807433
438.279311
436.70081
435.061625
433.349651
431.550898
429.649527
427.627992
425.467204
423.146802
420.645565
417.941965
415.014831
411.844078
408.411425
404.701389
400.702238
396.406945
391.81414
386.929011
381.764161
376.340372
370.687269
364.844015
358.859709
352.793184
346.713404
340.698631
334.835352
329.214731
323.929556
319.070162
314.718758
310.942187
307.781356
305.249526
303.324165
301.946848
301.030353
300.470628
300.162035
300.004857
299.930059
299.877638
299.841064
299.824466
299.819007
299.816574
299.814874
299.813032
299.812301
299.811692
299.81222
472.542255
471.616814
470.667586
469.6944
468.697128
467.675685
466.630026
465.560143
464.466062
463.347831
462.205509
461.039148
459.848769
458.634333
457.395707
456.132636
454.84469
453.531141
452.190895
450.822397
449.423498
447.991294
446.521932
445.010332
443.450184
441.835233
440.158244
438.411232
436.584147
434.665432
432.642164
430.500121
428.223908
425.797154
423.20279
420.423414
417.441737
414.241141
410.806109
407.123021
403.180893
398.972155
394.49347
389.74656
384.739058
379.485348
374.007401
368.335556
362.509181
356.577213
350.598611
344.641989
338.783257
333.105487
327.695383
322.641199
318.025808
313.920215
310.378721
307.433562
305.085032
303.298375
302.009914
301.134586
300.577524
300.244469
300.053854
299.945573
299.877972
299.840312
299.830381
299.824868
299.821649
299.818946
299.816493
299.814627
299.813072
299.81354
299.813255
299.812696
472.526782
471.570017
470.588552
469.5821
468.550378
467.493103
466.409977
465.300679
464.164846
463.002062
461.811835
460.593578
459.346571
458.069146
456.759101
455.414486
454.033143
452.612461
451.149315
449.640005
448.080219
446.46501
444.788786
443.045464
441.22835
439.328705
437.336758
435.241747
433.031923
430.694624
428.216398
425.583188
422.78057
419.794066
416.609522
413.213429
409.593459
405.739074
401.642154
397.29769
392.704527
387.866168
382.791609
377.496224
372.002635
366.341574
360.552665
354.684964
348.797106
342.957092
337.242148
331.734468
326.516998
321.671666
317.273165
313.382175
310.039673
307.264175
305.048013
303.35496
302.120885
301.263126
300.695475
300.336558
300.117215
299.985589
299.905259
299.858587
299.838353
299.832022
299.827684
299.822997
299.818572
299.815184
299.813006
299.812137
299.811998
299.81464
299.817854
299.817243
472.491859
471.464423
470.410297
469.329011
468.22005
467.082835
465.916711
464.720908
463.493778
462.234006
460.940041
459.610049
458.241857
456.8337
455.383699
453.88898
452.346015
450.75076
449.098595
447.38425
445.601791
443.74456
441.805116
439.775223
437.645843
435.407127
433.048464
430.55856
427.925559
425.137195
422.181006
419.044601
415.715914
412.183532
408.437201
404.468341
400.270618
395.840609
391.178522
386.289009
381.182023
375.87373
370.387411
364.75431
359.014318
353.216477
347.419125
341.689312
336.101392
330.735249
325.672724
320.991426
316.759341
313.02994
309.834818
307.184883
305.062477
303.426245
302.215249
301.355923
300.770435
300.386925
300.144032
299.995043
299.907804
299.860368
299.8393
299.83221
299.827749
299.82368
299.819427
299.81674
299.815271
299.813759
299.813169
299.812818
299.813241
299.816087
299.821427
299.824029
472.438293
471.302476
470.136933
468.940937
467.713651
466.454106
465.160742
463.832064
462.467066
461.06395
459.620621
458.134659
456.603283
455.023317
453.39114
451.702639
449.953152
448.137444
446.249666
444.283312
442.231207
440.085499
437.837665
435.478525
432.998295
430.386655
427.632852
424.725838
421.654463
418.407687
414.974755
411.34562
407.511359
403.464651
399.200342
394.716093
390.013115
385.096979
379.978502
374.674651
369.209452
363.614793
357.931046
352.207338
346.501358
340.87864
335.411179
330.174799
325.245515
320.695107
316.585718
312.965094
309.861478
307.279273
305.199127
303.579814
302.363648
301.482785
300.867442
300.453127
300.185239
300.019984
299.922847
299.869489
299.842893
299.832068
299.828843
299.827239
299.825811
299.82398
299.820701
299.817291
299.815271
299.814743
299.8156
299.815542
299.816629
299.818123
299.820187
299.826392
472.370358
471.097116
469.79038
468.449172
467.07235
465.65848
464.206186
462.713699
461.178966
459.599617
457.972921
456.295751
454.564546
452.775266
450.923371
449.003781
447.01084
444.938303
442.77932
440.526433
438.171583
435.706138
433.120934
430.406346
427.552382
424.548816
421.385361
418.051803
414.53829
410.835684
406.93596
402.832677
398.521543
394.001055
389.273239
384.344461
379.226297
373.936424
368.49948
362.947799
357.321939
351.670838
346.051462
340.527748
335.168769
330.046061
325.230569
320.788022
316.774443
313.230879
310.179536
307.622816
305.542504
303.900761
302.645736
301.716812
301.052103
300.593287
300.288202
300.092706
299.972602
299.902489
299.863698
299.842957
299.832744
299.826233
299.822981
299.823253
299.823603
299.822862
299.822131
299.822298
299.82293
299.822512
299.824957
299.825095
299.824897
299.82168
299.820882
299.825139
472.291501
470.858759
469.388208
467.878634
466.3286
464.736451
463.100404
461.418265
459.687495
457.905178
456.067978
454.172104
452.213281
450.186708
448.087043
445.908381
443.644241
441.287568
438.83074
436.265597
433.583481
430.775307
427.831653
424.742891
421.499325
418.091355
414.509777
410.746113
406.792996
402.644647
398.297422
393.750459
389.006395
384.072163
378.959833
373.687453
368.279847
362.769272
357.195833
351.607534
346.059821
340.614479
335.337755
330.297618
325.560211
321.185688
317.224865
313.714858
310.674834
308.106781
305.994009
304.303241
302.987968
301.994703
301.267562
300.752785
300.401071
300.1697
300.023692
299.936239
299.886676
299.859308
299.843628
299.833435
299.825219
299.820331
299.818262
299.818619
299.820936
299.822504
299.824479
299.825901
299.827354
299.828027
299.8286
299.830026
299.83338
299.832612
299.827615
299.825215
472.203788
470.593643
468.940924
467.244193
465.501771
463.711767
461.871951
459.97971
458.032038
456.02549
453.956155
451.819618
449.610936
447.324619
444.954616
442.494311
439.936537
437.273599
434.497318
431.599092
428.569997
425.400905
422.082597
418.605988
414.962391
411.143839
407.143471
402.95599
398.578213
394.009683
389.253378
384.316465
379.211095
373.955199
368.573205
363.096624
357.564382
352.022794
346.52505
341.130095
335.900822
330.901554
326.194903
321.838014
317.878543
314.350944
311.27413
308.649867
306.466492
304.697541
303.303246
302.235224
301.441423
300.870029
300.473263
300.208049
300.038084
299.934158
299.872673
299.839312
299.82325
299.816577
299.814923
299.815585
299.817134
299.818057
299.818151
299.817519
299.818698
299.821593
299.824518
299.825912
299.827044
299.826982
299.82769
299.82873
299.83222
299.835874
299.835262
299.831354
472.108639
470.306063
468.45579
466.55619
464.605343
462.601001
460.540547
458.420955
456.238751
453.989981
451.670177
449.274334
446.796896
444.231752
441.572237
438.811161
435.940848
432.953197
429.839773
426.591927
423.200904
419.658084
415.955227
412.084786
408.040285
403.816766
399.411312
394.823647
390.056797
385.117816
380.018527
374.776261
369.414512
363.963465
358.460275
352.949017
347.480182
342.109627
336.896898
331.902906
327.187061
322.804046
318.800655
315.212489
312.061261
309.353255
307.078724
305.215062
303.726581
302.570376
301.699234
301.063279
300.614046
300.307353
300.105459
299.977732
299.900211
299.855534
299.835451
299.827184
299.822033
299.81796
299.816035
299.816233
299.816986
299.817572
299.818671
299.820839
299.82191
299.822539
299.825144
299.827056
299.827792
299.827418
299.826995
299.82712
299.8279
299.831361
299.834857
299.836322
472.007165
469.999373
467.938423
465.822463
463.649305
461.416387
459.120727
456.758888
454.326942
451.820441
449.234397
446.563269
443.800969
440.940877
437.975879
434.898421
431.700599
428.374264
424.911151
421.303093
417.542267
413.621491
409.534591
405.276826
400.84539
396.239983
391.46344
386.522406
381.428042
376.1967
370.850549
365.418043
359.934196
354.440526
348.984616
343.619178
338.40058
333.386814
328.634921
324.198016
320.12216
316.443536
313.186495
310.361619
307.964915
305.978443
304.37106
303.103079
302.128663
301.399506
300.869375
300.496595
300.243243
300.077021
299.971728
299.907608
299.869883
299.847348
299.83472
299.827564
299.822217
299.818451
299.815917
299.815304
299.815375
299.816697
299.818492
299.82123
299.823235
299.825276
299.82652
299.828272
299.830038
299.831319
299.831807
299.829792
299.826552
299.826133
299.828108
299.831134
471.900326
469.676473
467.393717
465.049986
462.642822
460.169351
457.626235
455.009642
452.315219
449.538072
446.672763
443.71332
440.653263
437.48566
434.203201
430.798296
427.263206
423.590243
419.771999
415.80163
411.673208
407.382118
402.925539
398.302979
393.516865
388.573182
383.482131
378.258771
372.923599
367.503013
362.029574
356.542001
351.084788
345.707408
340.463012
335.406657
330.59308
326.074127
321.895987
318.096298
314.70155
311.725345
309.168229
307.017772
305.24901
303.827123
302.710908
301.856016
301.218181
300.754569
300.426881
300.202402
300.053703
299.95918
299.901408
299.86777
299.84951
299.842244
299.836902
299.83105
299.824478
299.821054
299.819856
299.819855
299.820557
299.819613
299.819997
299.821397
299.822586
299.825058
299.826788
299.828307
299.82928
299.830436
299.831875
299.832895
299.832977
299.825914
299.822952
299.824818
471.78923
469.340706
466.827313
464.246756
461.596317
458.87282
456.072597
453.191461
450.224694
447.167046
444.012756
440.755587
437.3889
433.905736
430.298941
426.561342
422.685964
418.666297
414.496611
410.172346
405.690545
401.050358
396.253596
391.305325
386.214488
380.994512
375.663869
370.24654
364.772305
359.276794
353.801225
348.39174
343.098307
337.973152
333.068768
328.435588
324.11947
320.159243
316.584695
313.414571
310.655103
308.298934
306.327459
304.712341
303.418151
302.404389
301.62931
301.052403
300.635267
300.343325
300.145686
300.017043
299.937139
299.889556
299.862827
299.8489
299.84245
299.839944
299.836271
299.834527
299.833517
299.831588
299.828708
299.827916
299.827733
299.827157
299.823713
299.822084
299.820795
299.822169
299.823169
299.824655
299.826085
299.827144
299.827846
299.82812
299.830029
299.83171
299.825071
299.8254
472.579958
471.730614
470.859057
469.964821
469.047434
468.106414
467.141271
466.151504
465.136598
464.096019
463.029214
461.935607
460.814595
459.665538
458.487765
457.280554
456.043136
454.774681
453.474287
452.14097
450.773651
449.371135
447.932098
446.455061
444.938365
443.380144
441.778289
440.130411
438.433797
436.685416
434.881902
433.01949
431.093988
429.100771
427.03467
424.889721
422.659369
420.336443
417.913122
415.381007
412.730958
409.941858
407.002047
403.911134
400.658889
397.236959
393.639101
389.86235
385.908398
381.785236
377.50897
373.105704
368.613233
364.082171
359.57596
355.173083
350.963569
347.042966
343.503724
340.423974
337.855314
335.812463
334.268319
333.157108
332.385697
331.849932
331.451276
331.109747
330.770671
330.404346
330.000113
329.558955
329.088173
328.596758
328.087007
327.549714
326.980066
326.405747
325.896
325.518015
472.582334
471.737787
470.871132
469.981891
469.069571
468.133672
467.173678
466.18906
465.179268
464.143731
463.081852
461.993001
460.876512
459.731676
458.557731
457.353857
456.119165
454.852686
453.553355
452.220004
450.851336
449.445916
448.002144
446.518235
444.992197
443.421801
441.804557
440.137686
438.418094
436.642268
434.806267
432.905697
430.935681
428.890817
426.765151
424.552141
422.244646
419.83507
417.31415
414.665122
411.87648
408.947191
405.867236
402.627799
399.22127
395.642044
391.88747
387.959
383.863536
379.614909
375.235419
370.757248
366.223494
361.688419
357.221459
352.904114
348.826053
345.07888
341.747046
338.896653
336.564102
334.747615
333.404881
332.458803
331.81068
331.357084
331.005273
330.683436
330.344882
329.966347
329.540718
329.067502
328.548963
327.996044
327.438028
326.9043
326.426738
326.023894
325.728391
325.595093
472.582303
471.737684
470.870935
469.981561
469.069051
468.132881
467.172509
466.187376
465.176898
464.140465
463.077434
461.987124
460.86881
459.721711
458.544988
457.337727
456.098932
454.827512
453.522264
452.181858
450.804821
449.389516
447.934117
446.436589
444.894661
443.305793
441.667154
439.97558
438.227545
436.419124
434.545955
432.603198
430.585503
428.487011
426.30141
424.021981
421.637557
419.136684
416.510129
413.754657
410.860721
407.819428
404.622483
401.262736
397.734839
394.036055
390.167224
386.133874
381.947424
377.62643
373.197724
368.697271
364.170452
359.675551
355.283471
351.074193
347.13293
343.544012
340.382529
337.704337
335.536055
333.86776
332.651459
331.807245
331.236287
330.837006
330.5196
330.215311
329.880005
329.49384
329.056875
328.578479
328.066501
327.531189
327.005662
326.563845
326.225264
326.020764
325.954662
326.373423
472.579583
471.729455
470.857039
469.96182
469.043268
468.100834
467.133951
466.142029
465.12445
464.080568
463.009698
461.911112
460.78403
459.627613
458.440951
457.223053
455.972837
454.689111
453.370562
452.015739
450.623033
449.190657
447.716624
446.198723
444.634493
443.02119
441.355761
439.634816
437.854617
436.011052
434.099626
432.115453
430.051829
427.900633
425.654044
423.303716
420.844342
418.269404
415.570105
412.737798
409.763955
406.640523
403.360361
399.917801
396.309332
392.534424
388.596476
384.50386
380.270997
375.919397
371.478503
366.986151
362.489619
358.050507
353.739941
349.636012
345.819368
342.366933
339.344074
336.796113
334.740652
333.162673
332.014313
331.219804
330.686155
330.317249
330.02749
329.751042
329.444595
329.085841
328.672168
328.218674
327.751577
327.302151
326.902993
326.663217
326.56621
326.761519
327.195586
327.963651
472.573777
471.711902
470.827419
469.919794
468.988476
468.032893
467.052451
466.04653
465.014485
463.955634
462.869258
461.754593
460.610818
459.437053
458.232341
456.995644
455.725827
454.421644
453.081726
451.704564
450.288489
448.831661
447.332052
445.787427
444.195329
442.552941
440.856778
439.102859
437.286875
435.404312
433.450071
431.418389
429.304195
427.102622
424.807187
422.410566
419.905185
417.283202
414.536567
411.657217
408.637334
405.469693
402.14811
398.668012
395.02712
391.226266
387.270294
383.169033
378.938285
374.6007
370.186413
365.733214
361.289782
356.917538
352.686312
348.671343
344.948956
341.590531
338.655622
336.185177
334.194698
332.668678
331.553963
330.776142
330.248663
329.885004
329.608515
329.359088
329.096566
328.799712
328.46428
328.101808
327.737741
327.404322
327.215645
327.215
327.46349
328.070545
329.060291
330.389014
472.564446
471.6837
470.779842
469.852322
468.900566
467.923979
466.921943
465.893815
464.838921
463.756559
462.645984
461.50641
460.336998
459.136848
457.904991
456.640379
455.341873
454.008233
452.638109
451.229938
449.781889
448.291918
446.757903
445.177469
443.547946
441.866451
440.130136
438.33594
436.480346
434.559183
432.56791
430.501607
428.35498
426.122333
423.797536
421.37403
418.844886
416.202875
413.440589
410.550609
407.525744
404.359354
401.045766
397.580808
393.962455
390.191603
386.272953
382.215956
378.035797
373.754079
369.399641
365.008854
360.629764
356.321495
352.148768
348.191186
344.526876
341.228162
338.352947
335.928497
333.960464
332.36238
331.195857
330.38351
329.846763
329.492371
329.239542
329.027113
328.815959
328.586934
328.336117
328.072064
327.810496
327.603501
327.524979
327.636779
328.050528
328.882212
330.105539
331.682154
472.551108
471.643387
470.711846
469.755913
468.774994
467.768472
466.735706
465.676032
464.588757
463.473158
462.328479
461.15392
459.948637
458.711727
457.442228
456.139045
454.800954
453.426683
452.014843
450.563984
449.07262
447.539135
445.961602
444.337919
442.66579
440.94271
439.165951
437.332534
435.439204
433.482396
431.458221
429.362442
427.190458
424.937288
422.597571
420.165566
417.635184
415.00004
412.253539
409.389022
406.39995
403.280183
400.024323
396.628165
393.089237
389.407452
385.585859
381.631129
377.569969
373.416645
369.187259
364.913376
360.635864
356.425313
352.331405
348.42396
344.775
341.452435
338.513077
335.997137
333.92391
332.302881
331.088217
330.244682
329.597303
329.185069
328.923675
328.742389
328.586184
328.425057
328.250919
328.072923
327.916469
327.83381
327.881162
328.1461
328.67421
329.404035
330.751949
332.246334
472.533293
471.589551
470.621048
469.627194
468.607373
467.560949
466.48726
465.385625
464.255336
463.095661
461.905836
460.685064
459.432493
458.1472
456.828238
455.474656
454.085472
452.659572
451.195753
449.692727
448.14911
446.563417
444.934041
443.259251
441.537176
439.76579
437.9429
436.066127
434.132885
432.140362
430.085492
427.964936
425.775052
423.511871
421.171082
418.748012
416.237634
413.634578
410.93318
408.127563
405.211758
402.179883
399.02639
395.746363
392.335896
388.792517
385.131392
381.358761
377.47433
373.492372
369.431772
365.319586
361.189912
357.092068
353.082568
349.224603
345.584936
342.229302
339.216849
336.594499
334.391776
332.614939
331.243732
330.234307
329.54772
329.079644
328.757388
328.536745
328.392502
328.285698
328.193232
328.11367
328.0546
328.060882
328.167226
328.373855
328.849815
329.461694
330.772983
332.259133
472.510621
471.521037
470.5055
469.463402
468.394106
467.296959
466.171283
465.016385
463.83155
462.616045
461.369116
460.089982
458.777864
457.431987
456.051512
454.635566
453.183242
451.693592
450.165627
448.598311
446.990559
445.341232
443.649134
441.913004
440.13151
438.30324
436.426692
434.500258
432.522207
430.490666
428.403592
426.258744
424.053653
421.785584
419.451503
417.048044
414.571484
412.017724
409.382302
406.660412
403.846982
400.936784
397.924615
394.805558
391.575351
388.23094
384.781306
381.228518
377.580088
373.835919
370.010427
366.123812
362.202373
358.281362
354.408615
350.638885
347.031981
343.649683
340.551455
337.789282
335.402239
333.411381
331.816516
330.596476
329.712733
329.11776
328.771229
328.514746
328.338123
328.218394
328.13065
328.102055
328.093434
328.134374
328.247067
328.420076
328.861579
329.511867
330.49187
331.776574
472.482914
471.437315
470.364312
469.263276
468.133556
466.974482
465.785366
464.565508
463.314202
462.030739
460.714413
459.364523
457.980349
456.561172
455.106268
453.614911
452.086376
450.519935
448.914863
447.270439
445.585944
443.860668
442.093906
440.28496
438.433139
436.53775
434.598094
432.613455
430.583082
428.506171
426.381835
424.209073
421.98673
419.71345
417.38763
415.007365
412.5704
410.074089
407.515361
404.890713
402.196245
399.427734
396.580785
393.651077
390.634716
387.528709
384.314727
381.018609
377.644903
374.194607
370.665339
367.070007
363.426947
359.760139
356.102103
352.496826
348.99409
345.647644
342.512356
339.640431
337.076986
334.855477
332.993822
331.492125
330.332568
329.480849
328.886478
328.538088
328.321149
328.182442
328.096528
328.065297
328.082162
328.127549
328.227276
328.447792
328.789349
329.318035
330.102879
331.018912
472.450305
471.338779
470.198143
469.027748
467.826925
466.594995
465.331269
464.035059
462.705682
461.342457
459.944715
458.511804
457.043088
455.537955
453.995822
452.416137
450.798383
449.142089
447.446832
445.712245
443.938024
442.123936
440.26982
438.375602
436.441285
434.466961
432.452799
430.39904
428.305981
426.173953
424.003296
421.794315
419.547243
417.262177
414.939023
412.577427
410.176702
407.735762
405.25306
402.726538
400.153604
397.531139
394.85555
392.122876
389.328944
386.469595
383.540905
380.521407
377.442771
374.309395
371.121312
367.870201
364.566877
361.226771
357.870484
354.523863
351.22486
348.016169
344.943627
342.053858
339.39122
336.994323
334.892531
333.103024
331.628963
330.459109
329.56877
328.92526
328.499932
328.282468
328.163202
328.083127
328.062184
328.08481
328.174578
328.349354
328.640479
329.073444
329.744821
330.383067
472.413367
471.227162
470.009916
468.760962
467.479619
466.165197
464.817009
463.434371
462.016616
460.563095
459.073189
457.546314
455.981928
454.379543
452.738726
451.059114
449.340421
447.582448
445.785096
443.948375
442.07242
440.157497
438.20402
436.212554
434.183827
432.118732
430.018324
427.883815
425.716563
423.518042
421.289819
419.033506
416.750715
414.442987
412.111725
409.758109
407.383014
404.986916
402.569811
400.131137
397.669718
395.183737
392.670746
390.127733
387.551256
384.937669
382.283475
379.585786
376.819809
373.988144
371.127461
368.237911
365.31501
362.353366
359.365128
356.366767
353.379148
350.428826
347.550363
344.780582
342.156859
339.71493
337.486418
335.496374
333.761166
332.287083
331.069866
330.095648
329.343641
328.770033
328.380286
328.167425
328.086114
328.082797
328.099532
328.166082
328.327914
328.592787
329.092532
329.466516
472.373214
471.105833
469.805311
468.470956
467.102071
465.697956
464.257921
462.781292
461.267419
459.715691
458.12554
456.496458
454.828
453.119806
451.3716
449.583217
447.754605
445.885846
443.977171
442.028976
440.041836
438.016524
435.954022
433.855538
431.722513
429.556625
427.359796
425.134177
422.882142
420.606259
418.309257
415.993984
413.663344
411.320231
408.967449
406.607615
404.243064
401.875737
399.507084
397.137956
394.768522
392.398196
390.025603
387.648578
385.264223
382.869005
380.458916
378.029728
375.577314
373.100322
370.574517
368.007878
365.439248
362.863791
360.275204
357.671025
355.06424
352.471308
349.91173
347.406965
344.984104
342.671175
340.494911
338.479245
336.643747
335.002273
333.562061
332.323382
331.279843
330.417271
329.720291
329.154779
328.715302
328.39106
328.25264
328.247313
328.32212
328.418563
328.63908
328.811028
472.331544
470.979921
469.592969
468.16997
466.710206
465.212965
463.677554
462.103305
460.489591
458.835835
457.141523
455.40622
453.629584
451.811379
449.95149
448.049945
446.106928
444.1228
442.098116
440.033649
437.930408
435.789655
433.612926
431.402046
429.159135
426.886622
424.587242
422.264026
419.920288
417.559595
415.185731
412.802644
410.414382
408.025019
405.638566
403.258875
400.889532
398.533742
396.194215
393.873059
391.571682
389.290703
387.029885
384.788102
382.563356
380.352843
378.153096
375.960155
373.769795
371.577812
369.380043
367.174766
364.940346
362.689176