/*--------------------------------*- C++ -*----------------------------------*\
  =========                 |
  \\      /  F ield         | OpenFOAM: The Open Source CFD Toolbox
   \\    /   O peration     | Website:  https://openfoam.org
    \\  /    A nd           | Version:  8
     \\/     M anipulation  |
\*---------------------------------------------------------------------------*/
FoamFile
{
    version     2.0;
    format      ascii;
    class       volVectorField;
    location    "0.06";
    object      U;
}
// * * * * * * * * * * * * * * * * * * * * * * * * * * * * * * * * * * * * * //

dimensions      [0 1 -1 0 0 0 0];

internalField   nonuniform List<vector> 
42400
(
(-0.0162405219 0.0155262699 -8.4366474e-27)
(-0.0489037902 0.0458126895 2.68315834e-26)
(-0.0822021093 0.0756005413 2.5888643e-26)
(-0.115987733 0.104707826 0)
(-0.150152695 0.13304563 0)
(-0.184645986 0.160546592 -1.93209424e-28)
(-0.219433199 0.187146145 0)
(-0.254480501 0.212779627 2.11803598e-28)
(-0.289752273 0.237383634 0)
(-0.325210769 0.260897611 2.33299532e-28)
(-0.360814857 0.28326451 2.45311878e-28)
(-0.396518678 0.304431014 -2.58280615e-28)
(-0.432270965 0.324347929 1.82229143e-26)
(-0.468015162 0.342970962 2.48521461e-26)
(-0.503690101 0.360261799 -3.03976307e-28)
(-0.53923097 0.376189287 0)
(-0.574570283 0.390730553 0)
(-0.609638682 0.403871941 0)
(-0.644365444 0.415609681 0)
(-0.678678655 0.425950301 0)
(-0.712505033 0.434910755 0)
(-0.745769409 0.442518314 -9.41072278e-28)
(-0.778393903 0.448810241 1.10479085e-25)
(-0.810296799 0.453833281 2.48563001e-25)
(-0.841391128 0.457642977 1.39116298e-25)
(-0.871582964 0.460302843 -1.26228863e-27)
(-0.900769389 0.461883413 -1.36647378e-27)
(-0.928836045 0.462461205 2.96607977e-27)
(-0.95565415 0.462117625 0)
(-0.981077086 0.460937771 0)
(-1.00493733 0.459008568 -2.51351873e-25)
(-1.027043 0.456414728 -2.75797522e-25)
(-1.04716946 0.45323147 4.66524268e-27)
(-1.0650504 0.449519584 3.30722814e-25)
(-1.08044261 0.445365444 3.56774506e-25)
(-1.0930628 0.44098058 0)
(-1.10270138 0.436151184 0)
(-1.10827737 0.431806983 0)
(-1.11014334 0.426518415 0)
(-1.10699024 0.421424634 6.41909591e-25)
(-1.09923107 0.415488841 6.10863942e-25)
(-1.08439971 0.41065116 6.16535018e-25)
(-1.0620577 0.405631535 1.38114655e-24)
(-1.03057198 0.400162665 -3.21889997e-26)
(-0.987503252 0.394532723 -8.97209994e-25)
(-0.932545496 0.38810756 -1.11084564e-24)
(-0.863695761 0.381468081 4.60916159e-26)
(-0.778664562 0.374522037 1.24062275e-24)
(-0.675171412 0.36713727 5.51031555e-26)
(-0.551211267 0.359091684 1.54872171e-24)
(-0.403633586 0.350802536 3.50148264e-33)
(-0.232807211 0.342538445 -3.98243735e-24)
(-0.0290030736 0.335896624 -2.37803474e-24)
(0.203657045 0.330662909 1.91128996e-25)
(0.484084325 0.323577566 0)
(0.813629904 0.314857193 0)
(1.19526646 0.306396156 0)
(1.6368583 0.299233938 -2.95607654e-25)
(2.14580362 0.293147183 -3.18490125e-25)
(2.72726526 0.288116416 0)
(3.38667372 0.28464609 9.52669417e-24)
(4.12892745 0.283114916 1.06923451e-23)
(4.95808589 0.284057195 -1.0963561e-23)
(5.87679639 0.289076908 -1.13579679e-23)
(6.88501387 0.29846353 0)
(7.98444575 0.31494357 0)
(9.15180987 0.341341103 -8.8854899e-24)
(10.4290894 0.332603715 -8.76477072e-24)
(11.7747562 0.337094467 -2.77190593e-25)
(12.9574423 0.56664316 0)
(14.5162641 0.386529176 0)
(16.3077652 -0.167827038 -9.44555187e-26)
(16.9652819 0.841485028 2.03817663e-25)
(17.821116 1.83273144 0)
(20.1539306 0.0835529128 2.44424321e-26)
(21.9825016 -1.40112719 5.15492427e-24)
(22.3578484 -0.000175983023 4.8278909e-24)
(22.3919616 1.94543203 -3.23760595e-24)
(23.3861705 1.87486949 -6.91239273e-24)
(23.8645038 0.504052403 1.04864574e-23)
(-0.0203941653 0.0180530029 0)
(-0.0607140588 0.0530078614 2.17147545e-26)
(-0.101217856 0.0872632151 2.03461182e-26)
(-0.141851364 0.120743452 0)
(-0.182584186 0.153433723 0)
(-0.223406286 0.185313022 1.08263744e-26)
(-0.264298785 0.216340721 8.06631368e-27)
(-0.305223159 0.246457944 6.36148718e-28)
(-0.346124023 0.275593336 0)
(-0.38693348 0.303668791 7.01435429e-28)
(-0.427573832 0.330603678 7.36970397e-28)
(-0.467959343 0.356317958 1.41231096e-26)
(-0.507997826 0.380734763 4.03586665e-26)
(-0.547592256 0.403782676 2.58711627e-26)
(-0.586642286 0.425397729 -3.33459929e-26)
(-0.625045521 0.445525057 -3.75853615e-26)
(-0.662698417 0.464120166 0)
(-0.699496752 0.48114982 2.14035837e-27)
(-0.735335632 0.496592561 0)
(-0.770109085 0.510438935 0)
(-0.803709251 0.522691446 0)
(-0.836025236 0.533364331 9.0702769e-26)
(-0.86694163 0.542483173 2.06080743e-25)
(-0.896336706 0.550084404 1.16304584e-25)
(-0.924080198 0.556214686 0)
(-0.950030643 0.560930149 -6.6127706e-27)
(-0.974032392 0.564295284 -3.45688231e-27)
(-0.99591175 0.566380716 7.33461754e-27)
(-1.0154713 0.567260203 1.88051185e-25)
(-1.03248207 0.567009675 2.05479773e-25)
(-1.04670092 0.565719932 -9.00682683e-27)
(-1.0578896 0.563485205 -9.5181898e-27)
(-1.06580597 0.560381842 2.92908994e-25)
(-1.0698758 0.55685321 3.23640847e-25)
(-1.0700713 0.552319351 -3.85072795e-25)
(-1.06565749 0.547251905 -4.21611253e-25)
(-1.05605213 0.542147492 0)
(-1.04162042 0.536021799 1.47383656e-26)
(-1.01958671 0.530441489 0)
(-0.989448761 0.524049755 3.52917078e-26)
(-0.949016628 0.517349622 5.71012928e-25)
(-0.898156726 0.509661301 6.15516675e-25)
(-0.834973913 0.501722882 4.25157112e-26)
(-0.757845415 0.493555629 -4.54229791e-26)
(-0.665002985 0.485126209 9.86867734e-26)
(-0.554488379 0.476373247 -5.15861394e-26)
(-0.424357539 0.466828346 5.62097549e-26)
(-0.270486169 0.456488317 1.11587732e-24)
(-0.0908495443 0.446669264 1.42929077e-24)
(0.114987178 0.439787247 0)
(0.34989703 0.433143798 -8.05057044e-26)
(0.638132475 0.42289909 1.75093032e-25)
(0.970910269 0.4107908 1.7271654e-24)
(1.35454052 0.399723577 2.38609817e-24)
(1.79647573 0.389694908 2.34982271e-25)
(2.3021088 0.38032186 5.58958701e-24)
(2.87710188 0.371735033 6.2596319e-24)
(3.52699952 0.364175858 -2.69207732e-25)
(4.25703407 0.357893999 -2.78454466e-25)
(5.07159092 0.353886166 8.49328791e-24)
(5.97365104 0.35355958 9.21544413e-24)
(6.96373308 0.358036276 2.60038802e-25)
(8.0399268 0.367941269 -2.48312608e-25)
(9.19595131 0.385640511 0)
(10.4186051 0.410616954 -9.15155949e-24)
(11.7065388 0.440991317 -1.64160654e-23)
(13.0043505 0.499411087 -7.5234579e-24)
(14.3501736 0.550377183 0)
(15.8114059 0.462467369 3.54483753e-26)
(17.0301624 0.639871815 2.29367505e-25)
(18.1128123 1.01255763 6.00983182e-24)
(19.8315955 0.445101544 6.63293418e-24)
(21.1302346 0.0648448946 2.71443047e-25)
(21.5837986 1.2661975 -4.08925882e-24)
(22.3927756 1.68848539 7.71781967e-26)
(23.5055362 0.577730304 1.63635158e-23)
(23.829277 0.130506635 1.37174167e-23)
(23.8960811 0.463406337 -3.84611358e-24)
(23.9495399 0.977233418 -7.35033784e-24)
(23.9059575 0.985220491 -1.77488873e-23)
(-0.0239400185 0.0195949718 2.55443929e-27)
(-0.0707687054 0.0573815835 3.62962741e-28)
(-0.117368917 0.0943517386 -3.84064206e-28)
(-0.163782335 0.130520893 4.01833887e-28)
(-0.210033991 0.165925926 0)
(-0.256160147 0.200586857 -6.86667523e-27)
(-0.302155253 0.23448627 8.74599738e-34)
(-0.347974214 0.267572796 3.45272987e-28)
(-0.393539976 0.299770754 -3.40998115e-27)
(-0.43875177 0.330989453 -1.5048234e-26)
(-0.483491584 0.361130242 -1.08599056e-26)
(-0.527629023 0.390091918 1.21076664e-27)
(-0.571025157 0.417775067 1.27400018e-27)
(-0.613535613 0.444085578 -2.79278403e-26)
(-0.655012947 0.468937412 -3.41051737e-26)
(-0.695308256 0.492254655 4.46593789e-27)
(-0.734272027 0.513972936 4.47067891e-26)
(-0.771754289 0.534040301 1.10896301e-25)
(-0.80760413 0.552417646 6.35722755e-26)
(-0.841668688 0.56907883 3.68486893e-27)
(-0.873791647 0.584010564 -3.88076387e-27)
(-0.90381121 0.597212196 -4.08701076e-27)
(-0.931557523 0.608695322 0)
(-0.956849675 0.618483197 8.99898995e-27)
(-0.979491867 0.6266099 -1.23984062e-25)
(-0.999268459 0.633119593 8.35156171e-29)
(-1.01594479 0.638063965 1.48326428e-25)
(-1.02927507 0.64149713 1.60941086e-25)
(-1.03900295 0.643473814 1.79595234e-25)
(-1.0447457 0.64417884 -1.91779073e-25)
(-1.04631676 0.643485765 -1.25891183e-26)
(-1.04331416 0.641637436 4.92908291e-25)
(-1.03523471 0.638842365 3.05956201e-25)
(-1.02175933 0.635078981 0)
(-1.0023892 0.630818105 0)
(-0.9751932 0.62575514 -1.72844781e-26)
(-0.93934822 0.619520202 0)
(-0.893008691 0.612536497 3.97017028e-26)
(-0.836101505 0.604501335 4.17402629e-25)
(-0.766935933 0.596007339 8.70567205e-26)
(-0.683976651 0.587093303 -4.3417336e-25)
(-0.585405334 0.577592301 0)
(-0.469080255 0.567285095 0)
(-0.332526613 0.556291568 6.68623111e-25)
(-0.176075268 0.545159151 8.75857227e-25)
(0.00715528888 0.535523256 6.29890563e-26)
(0.211907284 0.527665176 0)
(0.458596952 0.517811827 0)
(0.745794509 0.506040532 1.0614529e-24)
(1.07752408 0.494248029 1.25911598e-24)
(1.45992364 0.483328535 -8.71544778e-26)
(1.89873953 0.473130941 0)
(2.39826108 0.463586387 -1.49421346e-24)
(2.96414199 0.455072413 -1.94049516e-24)
(3.60206023 0.447851805 -4.28624895e-24)
(4.31717756 0.442463402 -4.74547247e-24)
(5.11377045 0.4398427 -5.67732536e-24)
(5.99449014 0.440925455 -2.71165124e-32)
(6.96005255 0.446357625 3.25736273e-32)
(8.00867353 0.456544195 -1.65129272e-23)
(9.13703348 0.471712094 -8.59955728e-24)
(10.3369497 0.493168658 8.56433662e-24)
(11.5959788 0.521117516 8.48727988e-24)
(12.8991945 0.558598149 0)
(14.2180555 0.608937557 8.35580106e-24)
(15.5547942 0.664226276 1.6186012e-23)
(16.8529048 0.722963347 7.82941017e-24)
(18.0798384 0.854480418 0)
(19.3333233 0.860996441 -3.98881756e-26)
(20.6049967 0.74723356 7.50363905e-24)
(21.4230274 1.04938437 7.37746001e-24)
(22.320237 1.26313866 0)
(23.3072243 0.824842568 0)
(23.6846122 0.670967649 1.13103309e-24)
(23.7983936 1.12578319 -9.51516844e-25)
(23.8429854 1.23962122 4.50004649e-24)
(23.847037 1.10074235 1.20485775e-23)
(23.8749665 0.926546143 0)
(23.9041621 0.874196244 -1.45931711e-24)
(23.9299998 0.860773468 6.77475094e-24)
(-0.0268984516 0.0203216263 2.98185933e-28)
(-0.0791425466 0.0593861855 4.69129672e-28)
(-0.130803176 0.097546839 5.48326768e-27)
(-0.182001047 0.134888401 -3.22186243e-27)
(-0.232832562 0.17149866 -3.09533747e-27)
(-0.283349901 0.207420449 0)
(-0.333548171 0.242650793 -3.80131194e-28)
(-0.383387137 0.277148899 1.84586282e-27)
(-0.432758942 0.310840325 6.84250375e-27)
(-0.481524688 0.343626671 1.08910178e-26)
(-0.529521921 0.375397597 1.83467164e-26)
(-0.57657072 0.406037997 3.82877326e-34)
(-0.622479444 0.435433366 1.66835117e-27)
(-0.667049273 0.463474124 2.24715924e-33)
(-0.710077406 0.490058955 -1.84998881e-27)
(-0.751358972 0.51509718 4.82040425e-26)
(-0.79068774 0.53851028 -5.56470957e-26)
(-0.827855738 0.560232851 -4.2754325e-27)
(-0.862651937 0.580213191 6.77118816e-26)
(-0.894860412 0.598413612 4.72108966e-27)
(-0.92425787 0.614809981 -9.97655434e-27)
(-0.950607645 0.62938755 -9.57463157e-26)
(-0.973657416 0.642138076 -1.0592153e-25)
(-0.993141894 0.653061331 5.75405392e-27)
(-1.00878049 0.662161291 0)
(-1.02025908 0.669460644 6.29774538e-27)
(-1.02730902 0.67502582 0)
(-1.02959908 0.678959078 1.83282095e-25)
(-1.02677439 0.681443043 3.84812645e-25)
(-1.01847446 0.682534228 2.1105059e-25)
(-1.00431016 0.682523461 -1.95737477e-25)
(-0.982797109 0.681131975 -2.17524488e-25)
(-0.95318829 0.67826174 3.57682278e-26)
(-0.914448834 0.673895666 1.89561209e-26)
(-0.865051218 0.668306097 -2.87028842e-25)
(-0.804835852 0.66155312 -3.39565086e-25)
(-0.732265649 0.653966583 0)
(-0.645887037 0.64556478 3.8268639e-25)
(-0.543844917 0.636295302 3.83631583e-25)
(-0.424001861 0.626101362 4.82753184e-26)
(-0.28419793 0.615046922 5.18982413e-26)
(-0.124330371 0.603823926 0)
(0.0617611272 0.594241823 0)
(0.266772965 0.586314864 0)
(0.51685642 0.576039997 6.45724384e-26)
(0.805239398 0.563911196 8.16889568e-25)
(1.13658095 0.552584866 8.49841865e-25)
(1.51671872 0.542483446 0)
(1.95021808 0.533427673 0)
(2.44225762 0.525669883 1.12525398e-24)
(2.99837586 0.519559584 1.20514692e-24)
(3.62403147 0.515525556 1.50155617e-24)
(4.32413458 0.514354674 1.71929798e-24)
(5.10260094 0.516892711 -1.85168996e-25)
(5.9617917 0.523857085 -2.41421021e-24)
(6.90222413 0.535814639 -2.39835409e-24)
(7.92250291 0.553285741 -5.9105433e-24)
(9.01891239 0.576881695 -6.64002358e-24)
(10.1859598 0.606391812 0)
(11.4138261 0.641792926 8.46442924e-26)
(12.6885979 0.682586588 -7.57688143e-24)
(13.9923091 0.73074181 -1.55846344e-23)
(15.3019272 0.784651897 1.13838415e-26)
(16.6024755 0.843721822 4.47729628e-26)
(17.854441 0.908196526 -8.64771389e-24)
(19.0462736 0.990972188 8.72786866e-24)
(20.1617746 1.04247068 8.9044655e-24)
(21.1730206 1.11388858 -3.66504474e-25)
(22.0173931 1.22761108 -8.56030939e-24)
(22.8584662 1.1760315 -1.32203308e-23)
(23.5371859 1.07939826 6.814922e-26)
(23.7353692 1.225767 -7.06410838e-24)
(23.7535058 1.31772879 -4.67111036e-24)
(23.7475601 1.29881501 0)
(23.7698609 1.1945524 -1.19114797e-23)
(23.8279155 1.16194527 -2.36286028e-23)
(23.861155 1.13259283 1.34235056e-24)
(23.8700736 1.10909107 8.52328053e-24)
(23.8690204 1.08828315 1.05334827e-23)
(23.8740297 1.03163514 8.66751353e-24)
(-0.0295172157 0.0205377379 1.99930032e-27)
(-0.0865391511 0.0598734261 0)
(-0.142648597 0.098193925 0)
(-0.198033857 0.13563308 9.80558306e-31)
(-0.252836279 0.172314914 0)
(-0.307141185 0.2083135 0)
(-0.360957205 0.243639605 0)
(-0.414187024 0.278245086 -3.09646918e-27)
(-0.466685013 0.312054279 0)
(-0.518299071 0.344969901 1.72503324e-27)
(-0.568806515 0.376882861 2.22216059e-26)
(-0.617968919 0.407670535 2.39341113e-33)
(-0.665534357 0.437210907 -2.75046459e-26)
(-0.71124087 0.465387651 0)
(-0.754820058 0.492093454 -2.22516605e-27)
(-0.795999297 0.517232412 4.69514064e-27)
(-0.834502279 0.540721268 0)
(-0.870043864 0.562487434 6.64222445e-26)
(-0.902326861 0.582468623 5.48995777e-27)
(-0.93104346 0.600613738 -1.61300017e-25)
(-0.955896309 0.61685225 -9.68168968e-26)
(-0.976548078 0.631245086 6.26263653e-27)
(-0.992716898 0.643785239 0)
(-1.00407313 0.654526507 -1.35132465e-25)
(-1.01025833 0.663551379 -1.49949634e-25)
(-1.0109122 0.670931836 -1.5514194e-25)
(-1.00517841 0.676525736 -1.74467265e-25)
(-0.992434763 0.680343544 1.85994135e-25)
(-0.971947885 0.682403094 1.89676999e-25)
(-0.942838974 0.682695212 0)
(-0.903913745 0.681331141 -2.34877648e-25)
(-0.854844557 0.678561488 -2.56203803e-25)
(-0.794384795 0.674540727 2.04690497e-26)
(-0.7212397 0.669311106 -2.67024662e-25)
(-0.633970724 0.662942316 -3.07925764e-25)
(-0.530825468 0.655530232 -4.69081092e-26)
(-0.409850118 0.647231205 2.43926322e-26)
(-0.269394044 0.637891139 -3.65295614e-25)
(-0.106508123 0.627693338 -4.71635852e-25)
(0.0818555401 0.61871699 5.00353485e-25)
(0.288832212 0.61147795 7.96931272e-25)
(0.53963282 0.602256311 4.8721269e-25)
(0.827630596 0.591591929 0)
(1.15737028 0.582041513 -6.73277273e-26)
(1.53430915 0.573975549 -6.6043864e-25)
(1.9624726 0.56725975 -7.11352735e-26)
(2.44696573 0.562341724 1.41894395e-32)
(2.99327644 0.559782991 -8.57028466e-25)
(3.60654382 0.56026054 0)
(4.2913763 0.564478556 -7.90578434e-26)
(5.05147395 0.573151154 -1.52677783e-24)
(5.88918717 0.586991589 -1.57553248e-24)
(6.80530534 0.606710558 -2.77704983e-25)
(7.79874359 0.633056911 -2.37829836e-24)
(8.8662169 0.666743802 -2.45994769e-24)
(10.0017713 0.708355203 -2.85738263e-24)
(11.1974505 0.757483588 -9.0425892e-24)
(12.4411564 0.813826725 -6.25189295e-24)
(13.7168113 0.877143223 -6.48997305e-24)
(15.0049063 0.946885967 -6.78070578e-24)
(16.2847067 1.01913388 0)
(17.5341737 1.09444213 7.55004574e-26)
(18.7218996 1.17018294 -7.74009451e-24)
(19.8373563 1.24606241 -8.45173754e-24)
(20.8503361 1.30614288 -4.2987919e-26)
(21.7423569 1.37525984 0)
(22.4990714 1.42939245 1.01496975e-23)
(23.1485741 1.44534462 1.08117621e-23)
(23.6399216 1.45969266 5.11012578e-25)
(23.7926621 1.49178602 -4.45973694e-25)
(23.7977743 1.52420067 -4.48416318e-26)
(23.7721843 1.49536845 -4.83550526e-25)
(23.7573974 1.46554066 -1.30419052e-23)
(23.7596439 1.44403709 -7.93410692e-24)
(23.7878802 1.39966927 -5.13702286e-25)
(23.8352705 1.33010502 0)
(23.8687272 1.28140752 -8.4720203e-24)
(23.8858601 1.24258927 -1.05200977e-23)
(23.9032853 1.19624457 0)
(23.8986314 1.14733076 -1.16702559e-23)
(-0.0320789728 0.0205007088 -3.24396056e-27)
(-0.0937474049 0.059582025 -4.30442035e-27)
(-0.154147599 0.0974911215 -4.98703565e-27)
(-0.213521339 0.134394371 -7.32131361e-28)
(-0.272041321 0.170439013 1.53527536e-27)
(-0.329800056 0.205713601 -1.62980682e-27)
(-0.386788715 0.240243052 3.41243933e-27)
(-0.442905401 0.273997963 1.57356783e-27)
(-0.497981264 0.306898949 1.91372005e-27)
(-0.551739323 0.338838196 4.03192185e-27)
(-0.603906509 0.369701473 -8.51381845e-27)
(-0.654209676 0.39936936 -4.15119138e-26)
(-0.70231524 0.427731033 -3.41573481e-26)
(-0.747881461 0.454670056 -3.88067522e-26)
(-0.790557035 0.480082312 2.62440598e-27)
(-0.829982174 0.503878927 6.14876799e-26)
(-0.865807714 0.525948684 0)
(-0.897638995 0.546286745 0)
(-0.925140912 0.564829079 8.1504732e-26)
(-0.947933103 0.581605702 2.01048167e-25)
(-0.965500582 0.596516348 1.12758523e-25)
(-0.977407263 0.609530203 1.26143405e-25)
(-0.983097275 0.620669156 2.33694807e-33)
(-0.981972916 0.629923013 -1.58798356e-25)
(-0.973354326 0.637290004 1.56017618e-25)
(-0.956439023 0.642782968 3.59226105e-25)
(-0.930705252 0.646629064 1.85721713e-25)
(-0.895239246 0.648860795 -9.7023481e-27)
(-0.849022856 0.649531031 1.01292076e-26)
(-0.790923378 0.648705071 -2.11293125e-26)
(-0.71968362 0.646463044 0)
(-0.633868085 0.642916077 3.01225325e-25)
(-0.531740457 0.638203155 -2.41011378e-26)
(-0.411404583 0.632489448 -3.00127789e-25)
(-0.27112016 0.625647998 0)
(-0.10808865 0.617798119 -4.43010878e-25)
(0.0808539548 0.610713332 -4.04060134e-25)
(0.289815892 0.605128721 0)
(0.539216913 0.598375001 0)
(0.825283856 0.590609838 -4.59351521e-25)
(1.15212007 0.583992038 -5.34557016e-25)
(1.52466742 0.579026659 1.34215419e-25)
(1.94678009 0.575792582 0)
(2.42327848 0.574896478 5.95919874e-25)
(2.95926058 0.576931176 1.41299991e-24)
(3.55945513 0.582554747 7.60638404e-25)
(4.22816627 0.592466646 7.61230248e-26)
(4.96897451 0.607381965 -2.63210315e-27)
(5.78436114 0.628083534 0)
(6.67546543 0.655380722 -1.49545925e-24)
(7.64169088 0.690054786 -1.21752203e-25)
(8.68033491 0.732797607 1.94165115e-24)
(9.78626445 0.78417652 -7.70453182e-26)
(10.9515994 0.844593597 -2.67011093e-24)
(12.1660206 0.913818809 -5.60399296e-24)
(13.4153188 0.991306807 1.3517517e-33)
(14.6826768 1.07623388 2.98889093e-24)
(15.9481237 1.16678825 0)
(17.1899679 1.26221885 0)
(18.3807229 1.36077284 1.12875653e-25)
(19.5025636 1.45780086 1.33392855e-25)
(20.532122 1.54785871 0)
(21.454836 1.63121742 6.71276484e-24)
(22.2476536 1.70775728 6.12825191e-24)
(22.926782 1.7593378 -7.92446916e-24)
(23.4442626 1.79936042 -2.49658908e-23)
(23.766051 1.82827794 -1.25760232e-23)
(23.8715088 1.84721528 -9.9118044e-24)
(23.8835105 1.80787223 -4.90914092e-24)
(23.8357657 1.83575325 -9.61891552e-25)
(23.8124983 1.81144936 1.18309657e-23)
(23.8192137 1.76788921 7.46538124e-24)
(23.833494 1.74470251 -8.00702663e-24)
(23.8464301 1.71244523 -6.30113714e-24)
(23.8784295 1.6778994 -9.73735377e-24)
(23.9004614 1.63314171 -8.41219424e-24)
(23.9449034 1.53276755 -8.43035507e-24)
(23.9781774 1.47535166 1.35219518e-31)
(23.9798261 1.46302412 1.66644746e-23)
(23.9568647 1.40364991 2.40024587e-23)
(-0.0348067168 0.0203635971 1.7146595e-27)
(-0.10136429 0.0589612809 7.64073752e-28)
(-0.166202749 0.0961851793 3.61300693e-27)
(-0.229601455 0.132221499 -1.33443076e-33)
(-0.291746393 0.167231432 -1.27107239e-27)
(-0.352719334 0.201310413 -1.4232759e-27)
(-0.412480805 0.234486529 4.895685e-27)
(-0.470881296 0.266733054 2.58934327e-27)
(-0.527684374 0.297985007 7.13416386e-27)
(-0.582593462 0.328150134 9.50685755e-27)
(-0.635259188 0.35711148 1.18909853e-26)
(-0.685258378 0.384750952 1.21904193e-26)
(-0.732190217 0.410949025 1.87386408e-26)
(-0.775621016 0.435631713 2.64454569e-26)
(-0.815130022 0.458673957 3.01545207e-27)
(-0.850240845 0.480015333 3.16893067e-27)
(-0.880453101 0.499623935 8.08380187e-26)
(-0.905308246 0.517407737 9.36286272e-26)
(-0.924234065 0.533361884 -7.29824139e-27)
(-0.936649287 0.547418452 -7.74470459e-27)
(-0.94197767 0.559682299 1.18251847e-25)
(-0.939562396 0.570132193 1.32065895e-25)
(-0.928669541 0.578788209 0)
(-0.908459447 0.585701831 9.36790447e-27)
(-0.878034813 0.590910917 0)
(-0.836386782 0.594479385 0)
(-0.782384495 0.596493517 1.07367439e-26)
(-0.714750796 0.597065238 -2.6096503e-25)
(-0.632047346 0.596321385 -2.46411687e-25)
(-0.532602005 0.594403781 2.51682364e-25)
(-0.414565671 0.59148166 2.83535836e-25)
(-0.276162547 0.587490818 2.61245261e-26)
(-0.114802123 0.582583019 -2.73599463e-26)
(0.0725529514 0.578298114 0)
(0.280792832 0.575255575 2.93692219e-26)
(0.528021953 0.571506858 0)
(0.810919336 0.567187173 0)
(1.133439 0.564226994 3.39616163e-26)
(1.5001714 0.563183804 0)
(1.91492523 0.564249315 0)
(2.38212545 0.568020907 5.94668493e-25)
(2.9064163 0.575115584 7.26728228e-25)
(3.49216314 0.586217742 0)
(4.14341077 0.602062195 0)
(4.86364587 0.623424708 0)
(5.65539692 0.651140426 7.71781977e-26)
(6.51999461 0.686020475 7.14285001e-26)
(7.45722136 0.728806314 1.32141286e-24)
(8.46496775 0.780118286 1.61813015e-24)
(9.53892917 0.840403049 1.89343855e-24)
(10.6723298 0.909885845 2.22164187e-24)
(11.8557773 0.98852171 2.55026899e-24)
(13.0773438 1.0757556 2.82217259e-24)
(14.321766 1.17066001 0)
(15.5706428 1.27226782 0)
(16.8029075 1.37877317 -3.14377644e-24)
(17.9973138 1.4882698 -6.57053193e-24)
(19.1311787 1.59628433 -3.48873716e-24)
(20.1854153 1.7025146 -3.58200158e-24)
(21.1287243 1.80343021 -3.1885986e-24)
(21.9591327 1.8971944 7.65093225e-24)
(22.6503302 1.97143766 1.62832536e-23)
(23.2455609 2.02564604 3.24931237e-25)
(23.6453187 2.06993436 -1.26914017e-23)
(23.8409979 2.09976162 3.37838768e-25)
(23.8774882 2.11090279 -8.10286762e-25)
(23.8981186 2.11086745 4.41216094e-24)
(23.8798551 2.10840267 -7.08329845e-32)
(23.8588255 2.0870544 -1.03202942e-23)
(23.8576988 2.05231806 -7.21456655e-25)
(23.8595438 2.02816848 9.44635225e-24)
(23.8781665 1.95074 9.80584753e-24)
(23.8939119 1.92144699 0)
(23.8997433 1.88791425 8.78012764e-25)
(23.9188562 1.82715405 0)
(23.9411295 1.77456772 1.28475096e-23)
(23.9671376 1.77976729 2.44852375e-23)
(23.9887531 1.70538769 1.11557871e-23)
(24.0092355 1.64220937 7.88449763e-24)
(24.0051017 1.62137119 2.32042269e-23)
(-0.0377098584 0.0201186003 1.68267807e-27)
(-0.109367293 0.0580145291 5.04302607e-27)
(-0.178702345 0.0943237486 -9.36034519e-28)
(-0.246011804 0.129241487 -2.30355811e-27)
(-0.311473907 0.162933302 -4.45127805e-28)
(-0.375138096 0.195495072 4.83711096e-28)
(-0.436913194 0.226955042 -2.31595286e-27)
(-0.496583055 0.257287577 -8.87441864e-27)
(-0.553833603 0.28642908 -1.18953982e-26)
(-0.60827732 0.314293369 -1.55521044e-26)
(-0.659464807 0.340798811 0)
(-0.706918195 0.365828165 -5.99815172e-27)
(-0.750102932 0.389299647 3.16087376e-27)
(-0.788474562 0.41110404 0)
(-0.821417119 0.431199726 0)
(-0.848339211 0.449515211 0)
(-0.868606409 0.466021724 0)
(-0.881543651 0.4807067 -4.06140938e-27)
(-0.886426677 0.493572052 0)
(-0.882470178 0.504640326 -7.49172246e-26)
(-0.86885039 0.513938006 -8.27785365e-26)
(-0.844600444 0.521543192 1.5348366e-25)
(-0.808705838 0.527516374 1.80383212e-25)
(-0.760019176 0.531959936 -1.87260707e-25)
(-0.697272436 0.534985648 -2.27466541e-25)
(-0.619048953 0.53672418 -2.3549706e-25)
(-0.523738566 0.537334112 -2.41876475e-25)
(-0.409562728 0.537007617 -2.90550877e-25)
(-0.274751261 0.535753713 -5.77287754e-25)
(-0.116901038 0.533757887 -3.50204815e-25)
(0.0669267327 0.532309291 0)
(0.272578941 0.531910727 -3.00269623e-26)
(0.515728635 0.531249229 -3.17881251e-26)
(0.793670169 0.530489799 0)
(1.1101854 0.53131164 3.41127928e-26)
(1.46943178 0.534276021 0)
(1.87502021 0.539649593 0)
(2.33106483 0.548054219 5.9164285e-25)
(2.84185063 0.560148788 -3.95386234e-26)
(3.41146288 0.576657516 -6.62406636e-25)
(4.04370969 0.598358494 7.75607045e-25)
(4.74192383 0.626052233 8.16179669e-25)
(5.50861026 0.660580261 4.14624128e-26)
(6.34523249 0.702750364 0)
(7.25189839 0.753295097 1.11355889e-24)
(8.22704135 0.81282584 1.45023773e-24)
(9.26710354 0.881775957 0)
(10.3662445 0.960330954 0)
(11.5161135 1.0483607 -2.24793785e-24)
(12.7057939 1.14535252 -2.60475098e-24)
(13.9218253 1.25031196 2.90531688e-24)
(15.148481 1.36142648 3.06857672e-24)
(16.3667286 1.47691284 -3.22229031e-24)
(17.5555026 1.59456025 7.72325029e-33)
(18.6928929 1.71174435 3.63542795e-24)
(19.7568885 1.82564636 1.89502848e-26)
(20.7270785 1.93281616 0)
(21.5870637 2.02920349 1.62527755e-25)
(22.3233805 2.11088212 -4.49274291e-24)
(22.9202316 2.18073251 2.35465535e-25)
(23.3767718 2.22383237 5.37422762e-24)
(23.7226566 2.25722604 0)
(23.8606458 2.27058314 3.16972788e-25)
(23.8777258 2.28917998 0)
(23.869678 2.29158755 2.48565276e-25)
(23.8715725 2.27121074 -1.68700907e-25)
(23.8734051 2.24344483 -4.59982207e-25)
(23.8701225 2.22657181 -8.6756749e-24)
(23.8619732 2.1981083 -1.14398231e-23)
(23.8613611 2.17511007 -5.97242533e-25)
(23.8544313 2.15259159 -1.23190674e-23)
(23.8579368 2.1557532 -7.83135774e-24)
(23.8692291 2.09422689 -9.43671906e-24)
(23.8785633 2.05552343 -9.57359682e-24)
(23.8834358 2.02875712 -1.10621058e-23)
(23.9146251 1.95800618 -1.05294115e-23)
(23.9538032 1.88327586 1.02532549e-23)
(23.9764982 1.81252277 1.21739638e-23)
(24.0010871 1.76587086 -1.46375098e-24)
(23.9996156 1.7049031 2.44881579e-24)
(-0.0405533199 0.0196344035 1.34890758e-27)
(-0.117028557 0.0563826831 -4.89241103e-27)
(-0.190392014 0.0913588701 -1.0873869e-27)
(-0.260934531 0.124761224 -1.11855689e-33)
(-0.328802208 0.156752803 1.63048901e-27)
(-0.393987486 0.187426177 -1.27193247e-27)
(-0.456324083 0.216809014 6.89607863e-27)
(-0.515503673 0.244887233 2.13839631e-33)
(-0.571108373 0.271595365 -2.49963537e-26)
(-0.622624036 0.296864767 -1.76528566e-26)
(-0.669476996 0.32059829 3.30259415e-27)
(-0.711012839 0.34273026 -2.92194003e-26)
(-0.74656262 0.363178241 -2.71380367e-26)
(-0.775411357 0.381887274 -3.62101468e-26)
(-0.796807803 0.398820886 -4.20474145e-26)
(-0.809963747 0.413962287 4.83639114e-26)
(-0.814039785 0.427319631 5.52710901e-26)
(-0.808134074 0.438928774 -4.63174139e-27)
(-0.791316149 0.448825662 0)
(-0.762472358 0.45710596 -7.26809428e-26)
(-0.720474644 0.463844786 -8.64885732e-26)
(-0.664046065 0.469171816 -1.13036654e-26)
(-0.591767672 0.473239704 1.05004272e-25)
(-0.502104526 0.476230569 1.26183913e-25)
(-0.393422338 0.478318173 -2.56849138e-26)
(-0.263961723 0.479571153 0)
(-0.111451971 0.48024961 1.4192291e-26)
(0.0669537147 0.481433997 2.0592995e-28)
(0.268043586 0.483520752 -3.2586137e-25)
(0.505179438 0.485704707 -3.37345574e-25)
(0.776274389 0.488198071 4.0199962e-25)
(1.08490975 0.492445945 3.82669377e-25)
(1.43483176 0.499023875 -7.20980203e-26)
(1.82944066 0.508282576 -4.48329389e-25)
(2.2725618 0.520874139 -2.76387618e-32)
(2.76815942 0.537489238 5.70084309e-25)
(3.32004535 0.558876648 -6.64127044e-25)
(3.93179952 0.585833521 -6.84397779e-25)
(4.60660757 0.619171891 -8.60116382e-26)
(5.34695252 0.659737929 4.37204495e-26)
(6.15442557 0.708346047 4.24040136e-26)
(7.02944339 0.765740859 -1.05998283e-24)
(7.97094971 0.832552465 -2.37990497e-24)
(8.97611198 0.909244986 -1.39164865e-24)
(10.040029 0.996054206 -1.67879173e-24)
(11.1554775 1.09292071 -1.86758411e-24)
(12.3127291 1.19942392 0)
(13.4994771 1.31472123 2.47317475e-24)
(14.7009246 1.43757103 2.87845803e-24)
(15.900465 1.5657181 3.07357333e-24)
(17.0788887 1.69677129 6.460179e-24)
(18.215411 1.82793343 6.77235365e-24)
(19.2892086 1.95579998 7.12593048e-24)
(20.2796826 2.07707844 7.48965656e-24)
(21.1681983 2.18794398 3.94471876e-24)
(21.9397765 2.28670089 -1.56022681e-25)
(22.5839258 2.36878931 0)
(23.0989803 2.43561063 -4.37625575e-24)
(23.4780989 2.48143684 -4.40476474e-24)
(23.7403913 2.50701162 0)
(23.8784393 2.52353255 -5.04848716e-24)
(23.8894378 2.53024181 -5.59623069e-24)
(23.8758027 2.52615349 0)
(23.8675692 2.49332111 -2.25853779e-25)
(23.8659761 2.47959433 0)
(23.8621833 2.46755119 -9.5713729e-24)
(23.861512 2.43689417 -5.72471933e-25)
(23.8622861 2.39431383 8.41259777e-24)
(23.850767 2.373314 -6.36796086e-25)
(23.8493138 2.33555803 -6.83188358e-25)
(23.8499549 2.32740658 -1.06492085e-23)
(23.8501801 2.27091762 -1.22416656e-23)
(23.8498393 2.23398797 -5.12995062e-25)
(23.8671622 2.17843729 -7.69239504e-25)
(23.8845931 2.15506307 -4.99916212e-26)
(23.8901801 2.08785648 -8.27746282e-25)
(23.9168467 2.05457694 1.51349965e-23)
(23.9390395 2.05237384 2.28328964e-23)
(23.9641957 1.96779946 1.33882471e-23)
(23.9931403 1.85489211 -1.07592304e-24)
(-0.0429733082 0.0187688358 0)
(-0.123226677 0.0536623308 -1.19605426e-27)
(-0.199347937 0.0866506116 1.26028468e-27)
(-0.271595379 0.117935233 -4.24329434e-27)
(-0.340053508 0.147671193 1.39999187e-27)
(-0.404621395 0.175948867 1.47471474e-27)
(-0.465016196 0.202797245 -1.18723514e-26)
(-0.520799903 0.228193037 0)
(-0.571397381 0.252100209 3.43256784e-27)
(-0.616146946 0.274455414 -2.3688511e-26)
(-0.654305985 0.295199712 -2.47595609e-26)
(-0.685069421 0.314281625 3.38418197e-26)
(-0.707578541 0.331663993 4.21215775e-27)
(-0.720922937 0.347329893 -8.74156001e-26)
(-0.724133645 0.361292267 -1.05104243e-25)
(-0.716201041 0.373563333 -5.45907233e-26)
(-0.696006262 0.384232393 -5.11955939e-27)
(-0.662379837 0.393363321 -7.5445021e-26)
(-0.614038202 0.401080919 -7.85496752e-26)
(-0.549572921 0.407534183 5.84710337e-27)
(-0.467450632 0.412894162 -6.17421051e-27)
(-0.366047387 0.417271217 -2.57058869e-26)
(-0.243462508 0.420886496 -1.24658382e-25)
(-0.0985372624 0.424258698 -2.90676627e-25)
(0.0723157846 0.428246625 -1.50226315e-25)
(0.266276929 0.432816583 -1.52805988e-26)
(0.495697918 0.437565849 -1.27522481e-25)
(0.75805117 0.442968203 1.66969238e-26)
(1.0567982 0.450334124 -1.74049039e-26)
(1.39539411 0.460194305 -1.95637354e-25)
(1.7770917 0.472936824 0)
(2.2054617 0.489222967 -5.18415822e-25)
(2.68416698 0.509763472 -4.04990299e-26)
(3.2167555 0.535325798 6.31981169e-25)
(3.80659186 0.566721437 6.91117519e-25)
(4.45671762 0.604775682 7.54722101e-25)
(5.16959389 0.650337195 -4.45671172e-26)
(5.9469205 0.704226755 0)