/*--------------------------------*- C++ -*----------------------------------*\
  =========                 |
  \\      /  F ield         | OpenFOAM: The Open Source CFD Toolbox
   \\    /   O peration     | Website:  https://openfoam.org
    \\  /    A nd           | Version:  8
     \\/     M anipulation  |
\*---------------------------------------------------------------------------*/
FoamFile
{
    version     2.0;
    format      ascii;
    class       volScalarField;
    location    "0.002";
    object      p;
}
// * * * * * * * * * * * * * * * * * * * * * * * * * * * * * * * * * * * * * //

dimensions      [1 -1 -2 0 0 0 0];

internalField   nonuniform List<scalar> 
42400
(
101314.953
101314.952
101314.956
101314.967
101314.986
101315.013
101315.05
101315.097
101315.157
101315.23
101315.318
101315.422
101315.543
101315.682
101315.84
101316.018
101316.215
101316.432
101316.669
101316.926
101317.202
101317.497
101317.811
101318.143
101318.495
101318.864
101319.248
101319.648
101320.064
101320.495
101320.938
101321.395
101321.87
101322.376
101322.886
101323.397
101323.936
101324.496
101325.076
101325.673
101326.287
101326.919
101327.567
101328.233
101328.917
101329.618
101330.338
101331.074
101331.828
101332.599
101333.389
101334.197
101335.023
101335.869
101336.731
101337.6
101338.464
101339.323
101340.181
101341.038
101341.897
101342.758
101343.623
101344.487
101345.347
101346.227
101347.07
101347.878
101348.825
101349.723
101350.675
101351.851
101352.722
101353.595
101354.676
101355.652
101357.089
101358.447
101358.913
101359.362
101305.795
101305.795
101305.799
101305.811
101305.83
101305.858
101305.895
101305.944
101306.005
101306.08
101306.17
101306.277
101306.402
101306.545
101306.708
101306.892
101307.096
101307.322
101307.569
101307.837
101308.125
101308.435
101308.764
101309.113
101309.481
101309.869
101310.28
101310.707
101311.155
101311.628
101312.105
101312.595
101313.111
101313.646
101314.201
101314.778
101315.373
101315.988
101316.623
101317.279
101317.954
101318.65
101319.368
101320.108
101320.868
101321.65
101322.454
101323.281
101324.131
101325.004
101325.901
101326.822
101327.77
101328.737
101329.711
101330.684
101331.658
101332.633
101333.611
101334.594
101335.582
101336.578
101337.585
101338.601
101339.625
101340.666
101341.703
101342.708
101343.727
101344.832
101346.324
101347.803
101348.813
101350.106
101350.622
101351.524
101352.548
101353.66
101355.08
101355.443
101295.84
101295.841
101295.846
101295.858
101295.878
101295.907
101295.945
101295.994
101296.056
101296.133
101296.225
101296.334
101296.461
101296.609
101296.777
101296.966
101297.178
101297.412
101297.669
101297.948
101298.25
101298.574
101298.92
101299.288
101299.677
101300.087
101300.518
101300.971
101301.445
101301.941
101302.461
101303.003
101303.566
101304.15
101304.756
101305.385
101306.037
101306.711
101307.409
101308.132
101308.88
101309.653
101310.451
101311.276
101312.129
101313.009
101313.917
101314.855
101315.824
101316.823
101317.854
101318.918
101320.007
101321.106
101322.211
101323.322
101324.438
101325.561
101326.688
101327.821
101328.96
101330.103
101331.264
101332.429
101333.612
101334.819
101335.982
101337.224
101338.492
101339.584
101341.202
101342.472
101343.4
101344.917
101346.226
101346.96
101348.026
101349.253
101350.73
101351.562
101285.081
101285.084
101285.091
101285.105
101285.126
101285.156
101285.195
101285.246
101285.309
101285.386
101285.48
101285.591
101285.722
101285.873
101286.046
101286.242
101286.461
101286.704
101286.972
101287.264
101287.58
101287.921
101288.287
101288.676
101289.09
101289.528
101289.989
101290.475
101290.984
101291.517
101292.076
101292.659
101293.268
101293.903
101294.563
101295.25
101295.965
101296.708
101297.48
101298.281
101299.113
101299.977
101300.874
101301.804
101302.769
101303.769
101304.807
101305.882
101306.997
101308.152
101309.348
101310.576
101311.823
101313.083
101314.357
101315.643
101316.94
101318.247
101319.562
101320.883
101322.209
101323.536
101324.88
101326.237
101327.588
101329.007
101330.314
101331.87
101333.403
101334.429
101336.065
101337.522
101338.553
101340.289
101341.919
101342.479
101343.368
101344.72
101346.299
101348.217
101273.581
101273.587
101273.598
101273.615
101273.639
101273.671
101273.712
101273.764
101273.828
101273.908
101274.003
101274.117
101274.25
101274.405
101274.582
101274.784
101275.01
101275.261
101275.539
101275.843
101276.174
101276.531
101276.916
101277.327
101277.765
101278.231
101278.723
101279.243
101279.791
101280.367
101280.971
101281.604
101282.267
101282.96
101283.685
101284.441
101285.231
101286.055
101286.914
101287.811
101288.746
101289.721
101290.737
101291.796
101292.899
101294.047
101295.242
101296.484
101297.776
101299.117
101300.501
101301.914
101303.349
101304.805
101306.28
101307.773
101309.282
101310.804
101312.336
101313.878
101315.414
101316.953
101318.493
101320.112
101321.559
101323.288
101324.877
101326.325
101327.876
101329.429
101331.432
101333.096
101334.305
101335.867
101337.305
101338.856
101340.679
101342.312
101343.809
101344.994
101261.413
101261.423
101261.438
101261.458
101261.484
101261.518
101261.561
101261.614
101261.68
101261.761
101261.858
101261.973
101262.109
101262.268
101262.45
101262.657
101262.89
101263.151
101263.44
101263.757
101264.104
101264.48
101264.886
101265.322
101265.788
101266.285
101266.814
101267.373
101267.965
101268.589
101269.246
101269.937
101270.664
101271.426
101272.226
101273.066
101273.946
101274.869
101275.836
101276.849
101277.909
101279.02
101280.181
101281.395
101282.664
101283.989
101285.371
101286.81
101288.308
101289.861
101291.457
101293.083
101294.738
101296.418
101298.121
101299.84
101301.58
101303.323
101305.085
101306.842
101308.602
101310.331
101312.252
101314.031
101315.564
101317.589
101319.332
101320.903
101322.73
101324.508
101326.248
101327.985
101329.653
101331.294
101332.98
101334.634
101336.445
101338.488
101340.448
101341.79
101248.66
101248.675
101248.694
101248.718
101248.747
101248.783
101248.828
101248.883
101248.951
101249.033
101249.132
101249.251
101249.39
101249.552
101249.74
101249.954
101250.197
101250.468
101250.771
101251.104
101251.47
101251.868
101252.3
101252.766
101253.265
101253.799
101254.37
101254.976
101255.62
101256.301
101257.022
101257.784
101258.588
101259.437
101260.331
101261.274
101262.266
101263.311
101264.409
101265.564
101266.777
101268.049
101269.384
101270.782
101272.245
101273.773
101275.367
101277.028
101278.758
101280.547
101282.382
101284.259
101286.177
101288.124
101290.098
101292.067
101294.054
101296.021
101298.024
101299.988
101302.068
101304.089
101305.835
101307.806
101309.743
101311.767
101313.766
101315.572
101317.501
101319.536
101321.6
101323.579
101325.471
101327.457
101329.286
101330.645
101332.32
101334.097
101336.44
101338.941
101235.444
101235.465
101235.49
101235.519
101235.552
101235.592
101235.64
101235.698
101235.768
101235.853
101235.956
101236.078
101236.222
101236.39
101236.585
101236.809
101237.062
101237.348
101237.666
101238.019
101238.408
101238.833
101239.295
101239.796
101240.336
101240.915
101241.536
101242.199
101242.907
101243.66
101244.46
101245.31
101246.212
101247.167
101248.178
101249.248
101250.378
101251.572
101252.831
101254.157
101255.552
101257.019
101258.557
101260.167
101261.85
101263.605
101265.433
101267.333
101269.304
101271.337
101273.42
101275.561
101277.782
101280.094
101282.43
101284.753
101287.048
101289.237
101291.542
101293.643
101295.461
101297.574
101299.809
101301.993
101304.212
101306.422
101308.553
101310.829
101312.999
101314.876
101316.637
101318.614
101321.135
101323.755
101326.487
101329.068
101331.214
101333.278
101334.754
101335.951
101221.902
101221.929
101221.962
101221.996
101222.034
101222.079
101222.131
101222.193
101222.267
101222.356
101222.464
101222.591
101222.742
101222.919
101223.124
101223.36
101223.628
101223.931
101224.271
101224.648
101225.064
101225.522
101226.021
101226.565
101227.154
101227.79
101228.474
101229.209
101229.996
101230.839
101231.738
101232.698
101233.72
101234.808
101235.963
101237.189
101238.489
101239.864
101241.317
101242.848
101244.46
101246.152
101247.923
101249.773
101251.699
101253.696
101255.762
101257.889
101260.053
101262.224
101264.371
101266.473
101268.313
101270.586
101273.609
101276.655
101279.519
101282.189
101284.682
101287.018
101289.514
101291.82
101294.089
101296.358
101298.745
101301.259
101303.742
101306.197
101308.738
101311.388
101314.143
101316.627
101318.582
101320.456
101322.521
101324.815
101327.245
101329.03
101331.186
101333.332
101208.179
101208.213
101208.253
101208.294
101208.339
101208.388
101208.445
101208.512
101208.591
101208.686
101208.8
101208.935
101209.094
101209.282
101209.5
101209.751
101210.038
101210.363
101210.728
101211.136
101211.588
101212.086
101212.634
101213.232
101213.882
101214.588
101215.352
101216.176
101217.063
101218.017
101219.039
101220.135
101221.306
101222.557
101223.889
101225.307
101226.813
101228.408
101230.094
101231.872
101233.741
101235.7
101237.747
101239.878
101242.089
101244.372
101246.723
101249.138
101251.586
101254.054
101256.528
101259.747
101264.083
101267.398
101269.194
101270.68
101272.436
101274.664
101277.044
101279.317
101281.859
101284.927
101287.888
101290.695
101293.383
101296.05
101298.807
101301.571
101304.133
101306.788
101309.524
101312.12
101314.776
101317.242
101319.376
101321.908
101324.559
101326.7
101328.157
101329.843
101194.428
101194.469
101194.517
101194.565
101194.615
101194.67
101194.733
101194.805
101194.891
101194.992
101195.113
101195.257
101195.427
101195.627
101195.861
101196.131
101196.44
101196.791
101197.188
101197.632
101198.127
101198.676
101199.28
101199.944
101200.669
101201.459
101202.318
101203.249
101204.255
101205.341
101206.511
101207.768
101209.117
101210.561
101212.105
101213.752
101215.504
101217.365
101219.335
101221.416
101223.609
101225.911
101228.321
101230.832
101233.439
101236.129
101238.894
101241.698
101244.515
101247.995
101251.478
101253.811
101256.148
101258.754
101261.52
101264.459
101267.128
101269.465
101272.037
101274.956
101277.678
101280.414
101283.188
101285.995
101288.794
101291.462
101294.226
101296.551
101298.409
101301.112
101304.373
101307.39
101310.85
101313.891
101316.602
101319.406
101322.262
101324.899
101327.282
101329.501
101180.815
101180.865
101180.921
101180.975
101181.031
101181.092
101181.16
101181.238
101181.329
101181.438
101181.567
101181.721
101181.903
101182.118
101182.369
101182.66
101182.995
101183.377
101183.81
101184.296
101184.84
101185.445
101186.114
101186.852
101187.661
101188.546
101189.511
101190.56
101191.698
101192.93
101194.259
101195.692
101197.231
101198.882
101200.649
101202.534
101204.542
101206.674
101208.932
101211.318
101213.83
101216.466
101219.222
101222.093
101225.068
101228.134
101231.3
101234.48
101237.841
101240.883
101243.949
101246.938
101249.417
101251.866
101254.508
101257.4
101260.196
101263.02
101265.896
101268.465
101270.646
101273.312
101276.847
101280.552
101284.316
101288.004
101291.801
101295.656
101299.671
101302.754
101304.677
101306.811
101309.407
101312.121
101314.441
101316.853
101319.461
101322.053
101324.553
101326.936
101167.514
101167.571
101167.634
101167.695
101167.757
101167.823
101167.896
101167.98
101168.078
101168.194
101168.333
101168.497
101168.693
101168.925
101169.196
101169.512
101169.876
101170.292
101170.765
101171.299
101171.897
101172.564
101173.305
101174.123
101175.023
101176.01
101177.088
101178.262
101179.537
101180.919
101182.411
101184.019
101185.747
101187.6
101189.579
101191.69
101193.933
101196.311
101198.822
101201.464
101204.234
101207.123
101210.124
101213.223
101216.403
101219.647
101222.976
101226.243
101229.427
101232.705
101236.049
101239.371
101242.648
101245.893
101249.005
101252.039
101254.942
101257.919
101261.755
101266.224
101271.219
101275.453
101277.867
101280.21
101283.073
101285.685
101288.501
101291.635
101294.574
101297.022
101300.167
101303.312
101305.362
101307.709
101310.915
101314.54
101317.296
101319.605
101322.016
101324.307
101154.737
101154.802
101154.873
101154.941
101155.008
101155.081
101155.16
101155.251
101155.356
101155.482
101155.632
101155.811
101156.024
101156.276
101156.573
101156.918
101157.318
101157.776
101158.299
101158.889
101159.553
101160.295
101161.12
101162.033
101163.04
101164.145
101165.355
101166.674
101168.108
101169.662
101171.342
101173.152
101175.098
101177.183
101179.411
101181.784
101184.304
101186.97
101189.78
101192.73
101195.813
101199.02
101202.34
101205.763
101209.264
101212.843
101216.363
101219.914
101223.613
101227.274
101230.93
101234.639
101238.368
101242.237
101245.955
101249.697
101254.181
101258.17
101260.998
101263.734
101266.69
101269.94
101273.837
101277.103
101279.705
101282.384
101285.141
101287.896
101290.804
101294.299
101297.87
101301.413
101304.648
101307.147
101309.187
101311.097
101313.988
101318.175
101320.731
101322.515
101142.702
101142.774
101142.853
101142.928
101143.003
101143.082
101143.17
101143.271
101143.388
101143.527
101143.694
101143.893
101144.131
101144.413
101144.745
101145.132
101145.58
101146.095
101146.682
101147.347
101148.095
101148.932
101149.865
101150.897
101152.037
101153.289
101154.66
101156.155
101157.781
101159.543
101161.448
101163.499
101165.702
101168.059
101170.574
101173.246
101176.075
101179.056
101182.183
101185.448
101188.839
101192.338
101195.938
101199.669
101203.395
101207.162
101211.084
101215.103
101219.139
101223.182
101227.111
101230.965
101234.856
101238.735
101242.754
101246.57
101250.32
101253.855
101256.915
101259.876
101262.836
101265.778
101268.583
101271.59
101275.035
101278.375
101281.46
101285
101289.178
101292.695
101296.288
101300.229
101303.914
101307.19
101309.356
101311.634
101314.193
101315.901
101318.465
101321.867
101131.601
101131.679
101131.766
101131.848
101131.931
101132.019
101132.117
101132.23
101132.362
101132.52
101132.709
101132.935
101133.205
101133.525
101133.901
101134.341
101134.85
101135.434
101136.1
101136.855
101137.704
101138.654
101139.712
101140.883
101142.174
101143.592
101145.143
101146.832
101148.666
101150.65
101152.787
101155.081
101157.534
101160.147
101162.916
101165.838
101168.907
101172.115
101175.454
101178.92
101182.488
101186.134
101189.805
101193.202
101196.455
101200.286
101204.989
101209.961
101215.107
101219.464
101223.071
101226.673
101230.304
101234.075
101237.907
101241.946
101245.527
101248.756
101252.451
101256.247
101259.884
101263.441
101267.292
101271.654
101276.124
101280.516
101285.083
101288.519
101290.682
101292.689
101294.406
101296.495
101299.709
101303.808
101308.603
101311.711
101313.974
101317.187
101318.905
101319.606
101121.572
101121.656
101121.75
101121.839
101121.93
101122.028
101122.138
101122.265
101122.416
101122.596
101122.812
101123.072
101123.382
101123.749
101124.181
101124.685
101125.267
101125.936
101126.698
101127.56
101128.53
101129.614
101130.82
101132.155
101133.624
101135.235
101136.994
101138.905
101140.972
101143.199
101145.584
101148.126
101150.819
101153.653
101156.611
101159.673
101162.808
101165.965
101169.112
101172.22
101176.083
101180.917
101185.851
101190.997
101196.291
101200.982
101204.662
101208.108
101211.426
101214.605
101218.291
101222.518
101226.79
101230.947
101235.048
101239.098
101243.234
101247.483
101251.795
101256.216
101260.773
101265.202
101269.072
101272.662
101276.257
101279.288
101281.966
101284.637
101287.282
101291.157
101295.409
101298.192
101300.873
101303.846
101306.842
101309.57
101311.996
101314.334
101317.566
101320.285
101112.705
101112.794
101112.894
101112.99
101113.09
101113.199
101113.323
101113.469
101113.643
101113.851
101114.103
101114.404
101114.764
101115.19
101115.69
101116.274
101116.948
101117.72
101118.601
101119.596
101120.715
101121.966
101123.356
101124.895
101126.588
101128.445
101130.472
101132.674
101135.058
101137.626
101140.382
101143.328
101146.465
101149.794
101153.318
101157.04
101160.957
101165.069
101169.421
101174.081
101177.757
101181.204
101185.209
101189.066
101193.304
101197.784
101201.449
101204.421
101207.423
101211.066
101215.289
101219.217
101223.76
101228.64
101232.632
101236.383
101240.062
101244.155
101248.934
101253.647
101258.435
101263.395
101267.062
101269.913
101272.858
101276.152
101279.721
101283.495
101287.164
101289.69
101292.613
101297.356
101300.548
101303.269
101306.33
101309.474
101312.47
101315.183
101317.764
101320.679
101105.038
101105.13
101105.234
101105.335
101105.441
101105.559
101105.695
101105.856
101106.05
101106.285
101106.569
101106.911
101107.32
101107.805
101108.375
101109.039
101109.806
101110.687
101111.69
101112.824
101114.098
101115.523
101117.106
101118.856
101120.781
101122.888
101125.184
101127.671
101130.354
101133.233
101136.307
101139.571
101143.021
101146.645
101150.433
101154.37
101158.443
101162.649
101166.862
101170.905
101174.937
101178.514
101181.923
101185.378
101188.692
101191.979
101195.655
101200.059
101204.764
101209.854
101214.894
101219.511
101223.093
101227.207
101232.55
101237.169
101241.165
101244.092
101247.821
101251.569
101253.965
101257.13
101262.308
101266.977
101271.134
101275.36
101279.421
101283.106
101287.257
101291.782
101294.226
101295.935
101298.948
101303.098
101306.209
101309.227
101312.846
101315.694
101317.732
101320.155
101098.621
101098.715
101098.819
101098.921
101099.028
101099.149
101099.29
101099.459
101099.664
101099.914
101100.218
101100.585
101101.025
101101.547
101102.162
101102.877
101103.704
101104.65
101105.726
101106.941
101108.302
101109.818
101111.497
101113.344
101115.367
101117.568
101119.952
101122.518
101125.267
101128.197
101131.301
101134.572
101137.982
101141.591
101145.31
101149.032
101152.737
101156.311
101159.714
101163.089
101167.068
101171.936
101177.062
101182.015
101186.785
101191.701
101197
101202.153
101207.094
101211.958
101217.18
101222.207
101226.899
101230.052
101232.58
101236.108
101240.229
101245.092
101248.435
101251.879
101257.917
101263.425
101266.943
101269.677
101272.693
101275.886
101279.172
101282.485
101285.463
101288.056
101291.646
101296.255
101299.501
101302.832
101307.013
101311.546
101314.046
101316.451
101319.444
101321.677
101384.912
101384.936
101384.965
101384.995
101385.027
101385.062
101385.099
101385.138
101385.18
101385.224
101385.27
101385.318
101385.367
101385.417
101385.469
101385.521
101385.573
101385.625
101385.677
101385.729
101385.779
101385.827
101385.874
101385.919
101385.962
101386.001
101386.038
101386.071
101386.101
101386.127
101386.149
101386.166
101386.179
101386.187
101386.191
101386.19
101386.185
101386.175
101386.16
101386.141
101386.118
101386.091
101386.061
101386.028
101385.992
101385.954
101385.915
101385.874
101385.833
101385.793
101385.753
101385.716
101385.681
101385.649
101385.62
101385.595
101385.576
101385.563
101385.559
101385.561
101385.571
101385.589
101385.616
101385.651
101385.695
101385.748
101385.81
101385.881
101385.961
101386.049
101386.145
101386.247
101386.355
101386.468
101386.584
101386.702
101386.822
101386.942
101387.061
101387.182
101384.598
101384.623
101384.654
101384.687
101384.721
101384.758
101384.798
101384.84
101384.884
101384.931
101384.979
101385.029
101385.081
101385.134
101385.188
101385.242
101385.297
101385.352
101385.405
101385.458
101385.51
101385.56
101385.608
101385.653
101385.696
101385.736
101385.772
101385.805
101385.834
101385.858
101385.879
101385.895
101385.907
101385.915
101385.918
101385.916
101385.91
101385.899
101385.884
101385.866
101385.843
101385.817
101385.788
101385.755
101385.721
101385.685
101385.647
101385.609
101385.571
101385.533
101385.496
101385.462
101385.43
101385.399
101385.374
101385.355
101385.342
101385.338
101385.34
101385.35
101385.368
101385.395
101385.429
101385.472
101385.523
101385.584
101385.654
101385.734
101385.825
101385.926
101386.029
101386.139
101386.256
101386.378
101386.5
101386.626
101386.755
101386.879
101386.994
101387.118
101384.008
101384.031
101384.059
101384.089
101384.12
101384.155
101384.192
101384.232
101384.275
101384.32
101384.367
101384.416
101384.467
101384.52
101384.574
101384.629
101384.684
101384.74
101384.795
101384.85
101384.903
101384.955
101385.006
101385.054
101385.099
101385.142
101385.182
101385.218
101385.25
101385.279
101385.303
101385.323
101385.339
101385.35
101385.357
101385.359
101385.357
101385.35
101385.34
101385.325
101385.306
101385.285
101385.26
101385.232
101385.203
101385.172
101385.141
101385.109
101385.079
101385.05
101385.02
101384.99
101384.961
101384.941
101384.93
101384.924
101384.924
101384.93
101384.945
101384.97
101385.009
101385.054
101385.104
101385.155
101385.211
101385.276
101385.349
101385.427
101385.529
101385.663
101385.782
101385.895
101386.033
101386.193
101386.333
101386.467
101386.638
101386.813
101386.943
101387.059
101383.1
101383.121
101383.147
101383.175
101383.205
101383.238
101383.274
101383.313
101383.354
101383.398
101383.444
101383.493
101383.544
101383.597
101383.651
101383.707
101383.764
101383.821
101383.879
101383.936
101383.993
101384.049
101384.104
101384.157
101384.207
101384.256
101384.301
101384.343
101384.382
101384.417
101384.448
101384.475
101384.498
101384.516
101384.53
101384.54
101384.545
101384.545
101384.542
101384.534
101384.523
101384.509
101384.491
101384.472
101384.451
101384.429
101384.407
101384.386
101384.362
101384.34
101384.311
101384.291
101384.281
101384.278
101384.278
101384.282
101384.293
101384.31
101384.333
101384.376
101384.45
101384.539
101384.631
101384.711
101384.79
101384.879
101384.981
101385.092
101385.211
101385.337
101385.471
101385.609
101385.756
101385.913
101386.062
101386.211
101386.393
101386.581
101386.745
101386.903
101381.898
101381.92
101381.946
101381.973
101382.004
101382.036
101382.072
101382.111
101382.152
101382.196
101382.242
101382.291
101382.343
101382.396
101382.452
101382.509
101382.568
101382.628
101382.688
101382.749
101382.809
101382.869
101382.929
101382.987
101383.043
101383.098
101383.15
101383.199
101383.245
101383.288
101383.327
101383.362
101383.393
101383.42
101383.442
101383.459
101383.473
101383.482
101383.488
101383.488
101383.483
101383.477
101383.467
101383.456
101383.443
101383.43
101383.415
101383.391
101383.391
101383.398
101383.402
101383.417
101383.426
101383.441
101383.463
101383.495
101383.536
101383.586
101383.646
101383.717
101383.795
101383.885
101383.988
101384.103
101384.227
101384.358
101384.498
101384.647
101384.805
101384.971
101385.142
101385.31
101385.468
101385.637
101385.831
101386.012
101386.187
101386.369
101386.537
101386.701
101380.414
101380.433
101380.456
101380.481
101380.509
101380.539
101380.572
101380.608
101380.648
101380.69
101380.736
101380.784
101380.835
101380.889
101380.946
101381.005
101381.066
101381.129
101381.194
101381.26
101381.326
101381.393
101381.46
101381.526
101381.591
101381.655
101381.717
101381.776
101381.833
101381.886
101381.936
101381.983
101382.025
101382.063
101382.095
101382.122
101382.147
101382.187
101382.21
101382.208
101382.217
101382.226
101382.233
101382.239
101382.245
101382.247
101382.239
101382.245
101382.276
101382.303
101382.329
101382.356
101382.393
101382.437
101382.49
101382.551
101382.623
101382.706
101382.799
101382.902
101383.017
101383.142
101383.278
101383.424
101383.578
101383.742
101383.915
101384.094
101384.27
101384.457
101384.68
101384.93
101385.168
101385.361
101385.529
101385.72
101385.93
101386.121
101386.317
101386.525
101378.65
101378.667
101378.689
101378.712
101378.738
101378.766
101378.798
101378.833
101378.871
101378.913
101378.958
101379.007
101379.059
101379.115
101379.174
101379.236
101379.302
101379.37
101379.44
101379.512
101379.586
101379.661
101379.737
101379.812
101379.888
101379.962
101380.034
101380.105
101380.173
101380.237
101380.299
101380.358
101380.427
101380.48
101380.514
101380.555
101380.594
101380.63
101380.662
101380.694
101380.725
101380.755
101380.785
101380.812
101380.829
101380.841
101380.879
101380.935
101380.984
101381.032
101381.086
101381.148
101381.219
101381.299
101381.388
101381.486
101381.595
101381.713
101381.842
101381.982
101382.132
101382.292
101382.461
101382.638
101382.821
101383.004
101383.199
101383.423
101383.651
101383.87
101384.106
101384.347
101384.59
101384.845
101385.096
101385.345
101385.602
101385.867
101386.129
101386.379
101376.596
101376.613
101376.634
101376.657
101376.682
101376.71
101376.741
101376.776
101376.815
101376.857
101376.903
101376.954
101377.008
101377.067
101377.13
101377.198
101377.268
101377.343
101377.421
101377.501
101377.584
101377.669
101377.754
101377.841
101377.927
101378.013
101378.097
101378.18
101378.261
101378.34
101378.427
101378.502
101378.562
101378.626
101378.691
101378.753
101378.813
101378.87
101378.926
101378.981
101379.037
101379.089
101379.133
101379.17
101379.221
101379.302
101379.386
101379.457
101379.532
101379.614
101379.705
101379.805
101379.914
101380.032
101380.161
101380.3
101380.45
101380.61
101380.779
101380.958
101381.145
101381.339
101381.534
101381.727
101381.936
101382.159
101382.384
101382.635
101382.903
101383.164
101383.427
101383.703
101383.987
101384.278
101384.574
101384.869
101385.169
101385.489
101385.833
101386.209
101374.269
101374.287
101374.31
101374.335
101374.362
101374.393
101374.427
101374.464
101374.505
101374.551
101374.601
101374.656
101374.715
101374.78
101374.849
101374.923
101375.001
101375.083
101375.169
101375.259
101375.351
101375.446
101375.542
101375.639
101375.737
101375.835
101375.932
101376.03
101376.135
101376.231
101376.315
101376.404
101376.493
101376.58
101376.665
101376.749
101376.831
101376.913
101376.994
101377.073
101377.145
101377.212
101377.29
101377.392
101377.511
101377.623
101377.724
101377.83
101377.945
101378.069
101378.202
101378.345
101378.498
101378.661
101378.833
101379.015
101379.203
101379.392
101379.587
101379.791
101380.002
101380.219
101380.44
101380.692
101380.978
101381.256
101381.521
101381.793
101382.079
101382.371
101382.662
101382.959
101383.264
101383.576
101383.902
101384.241
101384.572
101384.936
101385.367
101385.962
101371.695
101371.717
101371.743
101371.772
101371.803
101371.837
101371.875
101371.917
101371.963
101372.014
101372.069
101372.129
101372.195
101372.265
101372.341
101372.421
101372.506
101372.596
101372.689
101372.787
101372.888
101372.991
101373.098
101373.206
101373.316
101373.426
101373.538
101373.658
101373.771
101373.877
101373.988
101374.099
101374.209
101374.319
101374.429
101374.538
101374.648
101374.756
101374.861
101374.966
101375.075
101375.203
101375.346
101375.484
101375.615
101375.752
101375.897
101376.05
101376.21
101376.378
101376.555
101376.737
101376.922
101377.111
101377.311
101377.52
101377.747
101377.997
101378.262
101378.524
101378.801
101379.088
101379.364
101379.638
101379.914
101380.203
101380.501
101380.802
101381.107
101381.415
101381.727
101382.043
101382.361
101382.682
101383.027
101383.407
101383.728
101384.054
101384.495
101385.41
101368.882
101368.901
101368.926
101368.952
101368.982
101369.016
101369.054
101369.096
101369.143
101369.195
101369.252
101369.315
101369.383
101369.458
101369.538
101369.623
101369.715
101369.812
101369.914
101370.021
101370.132
101370.248
101370.367
101370.49
101370.615
101370.744
101370.879
101371.011
101371.139
101371.272
101371.407
101371.542
101371.677
101371.813
101371.95
101372.088
101372.23
101372.375
101372.521
101372.675
101372.841
101373.008
101373.171
101373.337
101373.509
101373.687
101373.871
101374.058
101374.251
101374.453
101374.664
101374.89
101375.139
101375.406
101375.679
101375.957
101376.23
101376.512
101376.822
101377.124
101377.416
101377.716
101378.029
101378.346
101378.667
101378.99
101379.315
101379.641
101379.966
101380.29
101380.613
101380.94
101381.262
101381.557
101381.871
101382.316
101382.622
101382.73
101382.838
101383.92
101365.755
101365.769
101365.788
101365.81
101365.835
101365.865
101365.899
101365.939
101365.984
101366.035
101366.093
101366.157
101366.229
101366.307
101366.393
101366.486
101366.587
101366.695
101366.809
101366.93
101367.057
101367.19
101367.328
101367.47
101367.617
101367.771
101367.925
101368.076
101368.232
101368.39
101368.549
101368.709
101368.871
101369.033
101369.197
101369.366
101369.544
101369.729
101369.922
101370.119
101370.314
101370.509
101370.71
101370.918
101371.132
101371.352
101371.585
101371.837
101372.103
101372.377
101372.659
101372.942
101373.226
101373.52
101373.819
101374.14
101374.468
101374.785
101375.111
101375.452
101375.801
101376.152
101376.505
101376.859
101377.213
101377.567
101377.919
101378.27
101378.618
101378.961
101379.292
101379.629
101379.971
101380.207
101380.377
101380.836
101381.217
101381.091
101380.395
101380.93
101362.251
101362.264
101362.28
101362.3
101362.323
101362.352
101362.386
101362.425
101362.471
101362.525
101362.585
101362.654
101362.731
101362.817
101362.911
101363.015
101363.127
101363.248
101363.377
101363.514
101363.659
101363.81
101363.968
101364.131
101364.303
101364.481
101364.657
101364.837
101365.02
101365.207
101365.397
101365.589
101365.785
101365.983
101366.185
101366.387
101366.593
101366.808
101367.03
101367.259
101367.492
101367.735
101367.99
101368.253
101368.525
101368.801
101369.08
101369.37
101369.67
101369.98
101370.299
101370.626
101370.975
101371.349
101371.703
101372.047
101372.408
101372.781
101373.159
101373.542
101373.928
101374.316
101374.706
101375.095
101375.484
101375.871
101376.256
101376.637
101377.013
101377.384
101377.723
101378.072
101378.507
101378.752
101378.73
101379.083
101379.618
101380.015
101379.309
101378.489
101358.361
101358.373
101358.389
101358.408
101358.432
101358.462
101358.497
101358.539
101358.588
101358.645
101358.711
101358.785
101358.869
101358.962
101359.066
101359.179
101359.303
101359.436
101359.579
101359.732
101359.893
101360.062
101360.238
101360.422
101360.614
101360.811
101361.012
101361.22
101361.432
101361.649
101361.87
101362.096
101362.326
101362.56
101362.8
101363.045
101363.296
101363.552
101363.814
101364.084
101364.362
101364.647
101364.941
101365.245
101365.558
101365.882
101366.214
101366.554
101366.903
101367.26
101367.64
101368.024