/*--------------------------------*- C++ -*----------------------------------*\
  =========                 |
  \\      /  F ield         | OpenFOAM: The Open Source CFD Toolbox
   \\    /   O peration     | Website:  https://openfoam.org
    \\  /    A nd           | Version:  8
     \\/     M anipulation  |
\*---------------------------------------------------------------------------*/
FoamFile
{
    version     2.0;
    format      ascii;
    class       volScalarField;
    location    "0.002";
    object      p_rgh;
}
// * * * * * * * * * * * * * * * * * * * * * * * * * * * * * * * * * * * * * //

dimensions      [1 -1 -2 0 0 0 0];

internalField   nonuniform List<scalar> 
42400
(
101314.799
101314.798
101314.802
101314.814
101314.832
101314.86
101314.897
101314.944
101315.005
101315.078
101315.167
101315.271
101315.393
101315.532
101315.691
101315.869
101316.067
101316.285
101316.523
101316.781
101317.059
101317.355
101317.67
101318.004
101318.357
101318.727
101319.112
101319.514
101319.93
101320.363
101320.808
101321.266
101321.743
101322.251
101322.763
101323.275
101323.815
101324.377
101324.959
101325.557
101326.173
101326.806
101327.457
101328.124
101328.81
101329.513
101330.235
101330.973
101331.729
101332.503
101333.295
101334.106
101334.935
101335.783
101336.649
101337.521
101338.389
101339.253
101340.114
101340.977
101341.84
101342.705
101343.572
101344.438
101345.3
101346.177
101347.009
101347.826
101348.759
101349.619
101350.531
101351.55
101352.424
101353.572
101354.756
101355.631
101357.006
101358.198
101358.735
101359.357
101305.627
101305.627
101305.632
101305.643
101305.663
101305.691
101305.729
101305.778
101305.839
101305.914
101306.005
101306.112
101306.238
101306.382
101306.546
101306.731
101306.936
101307.163
101307.411
101307.68
101307.97
101308.281
101308.611
101308.962
101309.331
101309.721
101310.134
101310.562
101311.01
101311.484
101311.964
101312.456
101312.973
101313.51
101314.067
101314.645
101315.243
101315.859
101316.496
101317.153
101317.83
101318.529
101319.249
101319.99
101320.752
101321.536
101322.343
101323.172
101324.024
101324.899
101325.798
101326.723
101327.673
101328.643
101329.62
101330.597
101331.575
101332.554
101333.537
101334.524
101335.517
101336.517
101337.529
101338.548
101339.573
101340.614
101341.646
101342.651
101343.686
101344.774
101346.086
101347.521
101348.62
101349.804
101350.455
101351.398
101352.486
101353.603
101354.978
101355.351
101295.661
101295.662
101295.668
101295.68
101295.7
101295.729
101295.767
101295.817
101295.88
101295.956
101296.049
101296.159
101296.287
101296.436
101296.605
101296.795
101297.008
101297.243
101297.501
101297.782
101298.085
101298.411
101298.759
101299.128
101299.519
101299.931
101300.364
101300.819
101301.295
101301.793
101302.314
101302.857
101303.422
101304.008
101304.616
101305.247
101305.9
101306.576
101307.276
101308.001
101308.751
101309.526
101310.326
101311.153
101312.008
101312.89
101313.801
101314.741
101315.712
101316.713
101317.747
101318.814
101319.906
101321.008
101322.116
101323.23
101324.35
101325.476
101326.607
101327.744
101328.886
101330.035
101331.199
101332.368
101333.552
101334.754
101335.913
101337.152
101338.385
101339.504
101341.102
101342.355
101343.352
101344.863
101346.099
101346.848
101347.935
101349.191
101350.67
101351.484
101284.894
101284.897
101284.905
101284.919
101284.94
101284.97
101285.009
101285.06
101285.124
101285.202
101285.296
101285.408
101285.54
101285.692
101285.866
101286.063
101286.283
101286.528
101286.797
101287.09
101287.409
101287.751
101288.119
101288.51
101288.926
101289.365
101289.829
101290.316
101290.828
101291.363
101291.924
101292.509
101293.12
101293.756
101294.419
101295.108
101295.825
101296.57
101297.344
101298.148
101298.982
101299.848
101300.747
101301.679
101302.647
101303.65
101304.69
101305.768
101306.885
101308.043
101309.242
101310.473
101311.723
101312.986
101314.263
101315.551
101316.851
101318.16
101319.478
101320.802
101322.13
101323.461
101324.811
101326.166
101327.527
101328.931
101330.258
101331.84
101333.339
101334.399
101336.036
101337.365
101338.524
101340.251
101341.618
101342.249
101343.21
101344.583
101346.268
101348.187
101273.388
101273.395
101273.406
101273.423
101273.447
101273.479
101273.521
101273.573
101273.638
101273.718
101273.814
101273.929
101274.063
101274.219
101274.397
101274.6
101274.827
101275.08
101275.36
101275.665
101275.998
101276.357
101276.744
101277.157
101277.597
101278.065
101278.559
101279.081
101279.632
101280.21
101280.816
101281.451
101282.117
101282.812
101283.539
101284.298
101285.09
101285.916
101286.779
101287.678
101288.615
101289.593
101290.612
101291.673
101292.779
101293.93
101295.128
101296.374
101297.668
101299.012
101300.4
101301.816
101303.254
101304.713
101306.192
101307.688
101309.2
101310.724
101312.259
101313.804
101315.342
101316.889
101318.438
101320.058
101321.522
101323.274
101324.861
101326.284
101327.841
101329.454
101331.435
101333.037
101334.313
101335.875
101337.352
101338.996
101340.797
101342.349
101343.769
101344.877
101261.217
101261.227
101261.242
101261.262
101261.289
101261.323
101261.366
101261.42
101261.486
101261.567
101261.665
101261.782
101261.919
101262.078
101262.261
101262.47
101262.705
101262.967
101263.257
101263.577
101263.925
101264.303
101264.711
101265.149
101265.618
101266.117
101266.648
101267.21
101267.804
101268.43
101269.09
101269.784
101270.512
101271.278
101272.08
101272.923
101273.806
101274.731
101275.701
101276.717
101277.78
101278.894
101280.058
101281.276
101282.548
101283.875
101285.26
101286.703
101288.204
101289.76
101291.359
101292.989
101294.647
101296.331
101298.038
101299.761
101301.505
101303.252
101305.018
101306.778
101308.536
101310.281
101312.205
101313.996
101315.602
101317.599
101319.269
101320.904
101322.757
101324.509
101326.24
101328.01
101329.712
101331.398
101333.153
101334.867
101336.72
101338.69
101340.454
101341.666
101248.463
101248.478
101248.497
101248.521
101248.551
101248.587
101248.632
101248.688
101248.756
101248.839
101248.939
101249.058
101249.198
101249.361
101249.55
101249.766
101250.01
101250.283
101250.587
101250.923
101251.29
101251.691
101252.125
101252.592
101253.094
101253.631
101254.203
101254.812
101255.458
101256.142
101256.865
101257.63
101258.437
101259.288
101260.185
101261.13
101262.126
101263.173
101264.274
101265.432
101266.648
101267.924
101269.262
101270.663
101272.129
101273.661
101275.259
101276.923
101278.655
101280.446
101282.282
101284.159
101286.076
101288.022
101289.996
101291.971
101293.966
101295.943
101297.956
101299.929
101302.02
101304.053
101305.817
101307.792
101309.728
101311.764
101313.777
101315.593
101317.505
101319.523
101321.593
101323.568
101325.452
101327.464
101329.344
101330.806
101332.481
101334.236
101336.561
101338.822
101235.246
101235.267
101235.292
101235.321
101235.355
101235.395
101235.443
101235.501
101235.572
101235.658
101235.761
101235.884
101236.029
101236.198
101236.394
101236.619
101236.874
101237.161
101237.482
101237.837
101238.227
101238.655
101239.119
101239.622
101240.164
101240.746
101241.369
101242.034
101242.744
101243.5
101244.303
101245.155
101246.059
101247.016
101248.03
101249.102
101250.234
101251.43
101252.692
101254.021
101255.419
101256.888
101258.429
101260.043
101261.73
101263.49
101265.323
101267.228
101269.205
101271.243
101273.328
101275.466
101277.673
101279.955
101282.278
101284.589
101286.894
101289.119
101291.453
101293.58
101295.423
101297.548
101299.784
101301.969
101304.185
101306.401
101308.54
101310.802
101313.032
101315.015
101316.759
101318.641
101320.941
101323.505
101326.252
101328.826
101331.122
101333.19
101334.768
101336.184
101221.703
101221.731
101221.763
101221.798
101221.836
101221.881
101221.933
101221.995
101222.07
101222.16
101222.268
101222.397
101222.549
101222.726
101222.933
101223.17
101223.44
101223.745
101224.086
101224.465
101224.883
101225.343
101225.845
101226.39
101226.981
101227.619
101228.306
101229.043
101229.833
101230.677
101231.579
101232.54
101233.564
101234.653
101235.811
101237.038
101238.339
101239.716
101241.17
101242.703
101244.316
101246.009
101247.782
101249.634
101251.563
101253.566
101255.64
101257.779
101259.967
101262.179
101264.386
101266.562
101268.529
101270.739
101273.546
101276.525
101279.387
101282.049
101284.585
101287.054
101289.53
101291.791
101294.049
101296.312
101298.698
101301.162
101303.591
101306.046
101308.611
101311.285
101314.056
101316.666
101318.814
101320.668
101322.656
101324.838
101327.117
101329.087
101331.351
101333.342
101207.979
101208.013
101208.053
101208.094
101208.138
101208.188
101208.245
101208.312
101208.392
101208.488
101208.602
101208.738
101208.899
101209.087
101209.306
101209.559
101209.847
101210.174
101210.541
101210.951
101211.405
101211.906
101212.455
101213.055
101213.708
101214.416
101215.182
101216.008
101216.897
101217.852
101218.877
101219.973
101221.146
101222.397
101223.731
101225.149
101226.655
101228.25
101229.935
101231.711
101233.578
101235.535
101237.577
101239.703
101241.905
101244.177
101246.51
101248.897
101251.299
101253.709
101256.162
101259.326
101263.432
101266.932
101269.177
101270.878
101272.706
101274.853
101277.068
101279.228
101281.823
101284.948
101287.944
101290.8
101293.569
101296.265
101298.977
101301.668
101304.132
101306.685
101309.436
101312.132
101314.859
101317.233
101319.355
101321.951
101324.483
101326.472
101328.062
101329.946
101194.224
101194.266
101194.314
101194.362
101194.412
101194.467
101194.53
101194.603
101194.689
101194.791
101194.913
101195.057
101195.229
101195.43
101195.665
101195.937
101196.247
101196.601
101197
101197.446
101197.944
101198.494
101199.101
101199.767
101200.495
101201.287
101202.148
101203.081
101204.09
101205.178
101206.349
101207.608
101208.958
101210.403
101211.948
101213.594
101215.346
101217.205
101219.173
101221.251
101223.44
101225.737
101228.141
101230.647
101233.247
101235.933
101238.697
101241.504
101244.331
101247.706
101251.151
101253.692
101256.078
101258.627
101261.336
101264.232
101267.038
101269.499
101272.064
101274.877
101277.549
101280.276
101283.04
101285.859
101288.663
101291.396
101294.234
101296.706
101298.792
101301.41
101304.462
101307.467
101310.821
101313.812
101316.502
101319.358
101322.241
101324.829
101327.134
101329.237
101180.607
101180.657
101180.713
101180.767
101180.823
101180.884
101180.953
101181.031
101181.123
101181.232
101181.363
101181.518
101181.701
101181.918
101182.171
101182.464
101182.801
101183.185
101183.62
101184.109
101184.656
101185.264
101185.936
101186.677
101187.489
101188.377
101189.346
101190.398
101191.54
101192.775
101194.109
101195.544
101197.087
101198.742
101200.512
101202.401
101204.412
101206.547
101208.81
101211.199
101213.715
101216.356
101219.119
101221.997
101224.982
101228.062
101231.242
101234.44
101237.847
101240.995
101243.993
101246.853
101249.357
101251.87
101254.527
101257.361
101260.106
101262.883
101265.788
101268.574
101271.028
101273.726
101276.979
101280.386
101283.986
101287.543
101291.251
101295.021
101298.908
101302.242
101304.55
101306.881
101309.496
101312.204
101314.631
101317.042
101319.543
101322.025
101324.423
101326.768
101167.3
101167.357
101167.42
101167.481
101167.543
101167.61
101167.683
101167.768
101167.866
101167.983
101168.122
101168.289
101168.486
101168.72
101168.993
101169.311
101169.677
101170.096
101170.572
101171.109
101171.71
101172.381
101173.125
101173.947
101174.852
101175.843
101176.925
101178.104
101179.384
101180.771
101182.268
101183.882
101185.615
101187.473
101189.458
101191.575
101193.825
101196.208
101198.726
101201.375
101204.153
101207.051
101210.061
101213.169
101216.359
101219.615
101222.957
101226.249
101229.469
101232.787
101236.13
101239.397
101242.616
101245.785
101248.85
101251.895
101254.827
101257.657
101261.042
101265.223
101270.042
101274.341
101277.416
101280.341
101283.357
101285.998
101288.713
101291.707
101294.611
101297.079
101300.126
101303.162
101305.467
101308.171
101311.199
101314.451
101317.165
101319.583
101322.023
101324.339
101154.515
101154.579
101154.65
101154.718
101154.786
101154.858
101154.938
101155.029
101155.135
101155.261
101155.412
101155.592
101155.806
101156.06
101156.359
101156.706
101157.108
101157.569
101158.094
101158.687
101159.354
101160.098
101160.927
101161.843
101162.853
101163.962
101165.175
101166.497
101167.934
101169.492
101171.174
101172.987
101174.935
101177.022
101179.251
101181.625
101184.146
101186.811
101189.621
101192.569
101195.648
101198.85
101202.163
101205.577
101209.065
101212.63
101216.131
101219.659
101223.323
101226.965
101230.61
101234.28
101237.962
101241.757
101245.376
101249.133
101253.648
101257.902
101261.135
101263.944
101266.826
101269.95
101273.621
101276.956
101279.75
101282.477
101285.225
101287.991
101290.887
101294.25
101297.752
101301.162
101304.154
101306.583
101308.959
101311.425
101314.437
101318.122
101320.538
101322.457
101142.469
101142.54
101142.619
101142.694
101142.769
101142.848
101142.936
101143.037
101143.154
101143.294
101143.461
101143.661
101143.9
101144.183
101144.516
101144.904
101145.354
101145.87
101146.458
101147.125
101147.875
101148.714
101149.648
101150.682
101151.824
101153.077
101154.449
101155.946
101157.573
101159.336
101161.241
101163.293
101165.496
101167.854
101170.369
101173.042
101175.872
101178.855
101181.985
101185.255
101188.652
101192.159
101195.769
101199.502
101203.238
101206.988
101210.875
101214.875
101218.896
101222.918
101226.867
101230.772
101234.702
101238.652
101242.733
101246.504
101250.175
101253.781
101256.909
101259.868
101262.833
101265.816
101268.705
101271.724
101275.054
101278.391
101281.561
101284.933
101288.82
101292.506
101296.211
101300.049
101303.75
101306.945
101309.003
101311.195
101313.746
101315.846
101318.77
101321.813
101131.361
101131.44
101131.526
101131.608
101131.691
101131.779
101131.876
101131.989
101132.121
101132.279
101132.468
101132.694
101132.964
101133.285
101133.662
101134.102
101134.611
101135.196
101135.863
101136.619
101137.469
101138.42
101139.478
101140.65
101141.942
101143.361
101144.912
101146.602
101148.436
101150.42
101152.559
101154.854
101157.31
101159.925
101162.698
101165.627
101168.704
101171.923
101175.274
101178.756
101182.35
101186.034
101189.77
101193.31
101196.744
101200.609
101205.074
101209.746
101214.629
101219.087
101222.904
101226.561
101230.258
101234.083
101237.984
101242.042
101245.603
101248.789
101252.425
101256.17
101259.777
101263.257
101266.887
101271.053
101275.491
101279.815
101284.225
101287.825
101290.411
101292.634
101294.535
101296.853
101299.993
101303.886
101308.363
101311.414
101313.852
101316.808
101318.447
101319.513
101121.33
101121.414
101121.507
101121.596
101121.687
101121.784
101121.894
101122.021
101122.171
101122.351
101122.568
101122.827
101123.137
101123.504
101123.936
101124.439
101125.022
101125.69
101126.452
101127.314
101128.283
101129.366
101130.571
101131.903
101133.371
101134.979
101136.735
101138.642
101140.706
101142.929
101145.312
101147.852
101150.545
101153.381
101156.346
101159.421
101162.58
101165.776
101168.976
101172.154
101175.843
101180.339
101185.094
101190.034
101195.141
101199.875
101203.923
101207.757
101211.429
101214.684
101218.289
101222.5
101226.682
101230.78
101234.861
101238.9
101242.956
101247.137
101251.426
101255.781
101260.234
101264.629
101268.661
101272.407
101276.025
101279.1
101281.932
101284.815
101287.78
101291.498
101295.279
101298.074
101300.884
101303.812
101306.746
101309.452
101311.883
101314.283
101317.217
101319.676
101112.468
101112.557
101112.656
101112.752
101112.851
101112.96
101113.084
101113.229
101113.403
101113.611
101113.862
101114.163
101114.522
101114.948
101115.448
101116.03
101116.703
101117.475
101118.354
101119.348
101120.464
101121.712
101123.098
101124.631
101126.318
101128.166
101130.182
101132.371
101134.738
101137.285
101140.014
101142.926
101146.019
101149.291
101152.741
101156.367
101160.16
101164.108
101168.35
101173.122
101177.46
101181.245
101185.159
101189.033
101193.148
101197.427
101201.15
101204.432
101207.574
101211.078
101215.099
101218.996
101223.365
101228.056
101232.227
101236.225
101240.182
101244.394
101249.073
101253.708
101258.419
101263.107
101266.764
101269.926
101272.985
101276.191
101279.712
101283.56
101287.206
101290.058
101293.333
101297.525
101300.531
101303.261
101306.271
101309.349
101312.249
101314.879
101317.361
101320.354
101104.816
101104.908
101105.012
101105.113
101105.218
101105.336
101105.473
101105.634
101105.829
101106.064
101106.348
101106.691
101107.1
101107.586
101108.156
101108.821
101109.589
101110.47
101111.474
101112.608
101113.883
101115.308
101116.891
101118.642
101120.568
101122.676
101124.973
101127.464
101130.152
101133.038
101136.123
101139.402
101142.873
101146.527
101150.354
101154.341
101158.473
101162.744
101166.954
101170.899
101174.8
101178.566
101182.176
101185.61
101188.937
101192.259
101195.855
101199.987
101204.439
101209.328
101214.201
101218.729
101222.42
101226.493
101231.742
101236.665
101240.815
101244.018
101247.76
101251.453
101254.164
101257.587
101262.772
101267.257
101271.324
101275.517
101279.573
101283.306
101287.322
101291.392
101293.866
101296.136
101299.365
101303.12
101306.189
101309.24
101312.702
101315.493
101317.683
101320.274
101098.422
101098.516
101098.621
101098.723
101098.831
101098.953
101099.096
101099.267
101099.475
101099.728
101100.036
101100.408
101100.853
101101.381
101102.001
101102.724
101103.558
101104.514
101105.599
101106.824
101108.197
101109.725
101111.418
101113.28
101115.319
101117.539
101119.943
101122.533
101125.309
101128.269
101131.41
101134.726
101138.2
101141.869
101145.667
101149.508
101153.359
101157.138
101160.802
101164.321
101168.133
101172.524
101177.164
101181.743
101186.195
101190.862
101195.952
101201.043
101206.193
101211.318
101216.66
101221.858
101226.669
101229.994
101232.595
101235.906
101239.822
101244.655
101248.494
101252.29
101257.651
101262.441
101265.858
101268.819
101272.121
101275.532
101278.872
101282.088
101285.207
101288.409
101292.169
101296.259
101299.531
101303.044
101307.047
101311.298
101314.129
101316.568
101319.286
101321.559
101385.044
101385.067
101385.096
101385.126
101385.159
101385.193
101385.23
101385.27
101385.312
101385.356
101385.402
101385.449
101385.499
101385.549
101385.601
101385.653
101385.705
101385.757
101385.809
101385.861
101385.911
101385.959
101386.006
101386.051
101386.093
101386.133
101386.169
101386.202
101386.232
101386.257
101386.279
101386.296
101386.308
101386.316
101386.32
101386.318
101386.313
101386.302
101386.287
101386.268
101386.244
101386.217
101386.186
101386.152
101386.116
101386.077
101386.037
101385.995
101385.954
101385.913
101385.872
101385.834
101385.798
101385.765
101385.735
101385.709
101385.689
101385.675
101385.669
101385.67
101385.678
101385.695
101385.721
101385.754
101385.797
101385.848
101385.909
101385.978
101386.056
101386.142
101386.235
101386.335
101386.441
101386.551
101386.665
101386.781
101386.898
101387.015
101387.132
101387.25
101384.729
101384.755
101384.786
101384.818
101384.853
101384.89
101384.93
101384.972
101385.016
101385.063
101385.112
101385.162
101385.214
101385.267
101385.321
101385.375
101385.43
101385.484
101385.538
101385.591
101385.643
101385.693
101385.74
101385.786
101385.828
101385.868
101385.904
101385.936
101385.965
101385.989
101386.01
101386.026
101386.037
101386.044
101386.047
101386.045
101386.038
101386.027
101386.012
101385.993
101385.969
101385.943
101385.913
101385.88
101385.845
101385.808
101385.77
101385.731
101385.692
101385.653
101385.616
101385.581
101385.548
101385.516
101385.489
101385.469
101385.456
101385.45
101385.451
101385.459
101385.476
101385.501
101385.534
101385.575
101385.625
101385.683
101385.751
101385.83
101385.919
101386.018
101386.12
101386.229
101386.345
101386.463
101386.583
101386.707
101386.832
101386.954
101387.07
101387.192
101384.139
101384.162
101384.19
101384.219
101384.251
101384.286
101384.323
101384.363
101384.406
101384.451
101384.498
101384.547
101384.599
101384.651
101384.705
101384.76
101384.816
101384.871
101384.926
101384.981
101385.034
101385.087
101385.137
101385.185
101385.23
101385.273
101385.312
101385.348
101385.381
101385.409
101385.433
101385.453
101385.468
101385.479
101385.486
101385.487
101385.485
101385.478
101385.467
101385.451
101385.432
101385.41
101385.385
101385.357
101385.327
101385.295
101385.263
101385.231
101385.2
101385.17
101385.14
101385.109
101385.079
101385.058
101385.046
101385.039
101385.037
101385.043
101385.056
101385.079
101385.114
101385.158
101385.208
101385.258
101385.313
101385.377
101385.447
101385.526
101385.628
101385.757
101385.876
101385.994
101386.137
101386.289
101386.422
101386.556
101386.717
101386.878
101387.007
101387.126
101383.227
101383.249
101383.275
101383.303
101383.333
101383.366
101383.402
101383.441
101383.482
101383.526
101383.573
101383.621
101383.672
101383.725
101383.78
101383.836
101383.892
101383.95
101384.007
101384.065
101384.122
101384.178
101384.232
101384.285
101384.336
101384.384
101384.429
101384.471
101384.51
101384.545
101384.576
101384.602
101384.625
101384.643
101384.657
101384.666
101384.67
101384.671
101384.667
101384.659
101384.647
101384.632
101384.615
101384.595
101384.573
101384.551
101384.529
101384.507
101384.483
101384.459
101384.432
101384.41
101384.399
101384.396
101384.395
101384.399
101384.409
101384.426
101384.449
101384.489
101384.553
101384.636
101384.728
101384.81
101384.888
101384.976
101385.073
101385.18
101385.294
101385.416
101385.547
101385.685
101385.843
101386.013
101386.165
101386.308
101386.478
101386.659
101386.819
101386.973
101382.021
101382.043
101382.069
101382.097
101382.127
101382.16
101382.196
101382.234
101382.276
101382.32
101382.366
101382.415
101382.467
101382.521
101382.576
101382.634
101382.692
101382.752
101382.812
101382.873
101382.934
101382.994
101383.053
101383.111
101383.168
101383.222
101383.274
101383.323
101383.369
101383.412
101383.451
101383.486
101383.517
101383.543
101383.565
101383.582
101383.595
101383.604
101383.61
101383.609
101383.605
101383.597
101383.587
101383.576
101383.562
101383.549
101383.534
101383.51
101383.502
101383.508
101383.518
101383.53
101383.542
101383.557
101383.578
101383.609
101383.649
101383.698
101383.757
101383.826
101383.903
101383.992
101384.092
101384.204
101384.325
101384.453
101384.59
101384.735
101384.887
101385.047
101385.213
101385.377
101385.535
101385.703
101385.892
101386.078
101386.261
101386.448
101386.62
101386.782
101380.53
101380.55
101380.573
101380.598
101380.626
101380.656
101380.69
101380.726
101380.765
101380.808
101380.853
101380.902
101380.953
101381.007
101381.064
101381.123
101381.184
101381.247
101381.312
101381.378
101381.444
101381.511
101381.578
101381.644
101381.709
101381.773
101381.835
101381.894
101381.951
101382.004
101382.054
101382.1
101382.143
101382.181
101382.212
101382.239
101382.264
101382.304
101382.327
101382.325
101382.333
101382.342
101382.349
101382.355
101382.36
101382.362
101382.354
101382.357
101382.386
101382.415
101382.44
101382.468
101382.503
101382.547
101382.599
101382.661
101382.732
101382.814
101382.907
101383.01
101383.124
101383.248
101383.383
101383.528
101383.681
101383.843
101384.013
101384.189
101384.363
101384.544
101384.754
101384.993
101385.224
101385.419
101385.595
101385.789
101385.996
101386.187
101386.385
101386.59
101378.759
101378.776
101378.798
101378.821
101378.847
101378.875
101378.907
101378.942
101378.98
101379.022
101379.067
101379.116
101379.169
101379.225
101379.284
101379.346
101379.412
101379.48
101379.55
101379.623
101379.697
101379.772
101379.847
101379.923
101379.998
101380.072
101380.145
101380.216
101380.284
101380.348
101380.409
101380.469
101380.537
101380.591
101380.625
101380.665
101380.705
101380.74
101380.772
101380.803
101380.834
101380.863
101380.893
101380.92
101380.936
101380.947
101380.984
101381.042
101381.093
101381.141
101381.194
101381.256
101381.327
101381.406
101381.494
101381.593
101381.701
101381.819
101381.948
101382.087
101382.237
101382.397
101382.566
101382.743
101382.928
101383.113
101383.306
101383.522
101383.743
101383.959
101384.193
101384.433
101384.669
101384.916
101385.166
101385.415
101385.671
101385.933
101386.189
101386.432
101376.695
101376.712
101376.733
101376.755
101376.781
101376.809
101376.84
101376.875
101376.914
101376.956
101377.002
101377.053
101377.108
101377.167
101377.23
101377.297
101377.368
101377.443
101377.521
101377.602
101377.685
101377.769
101377.855
101377.942
101378.028
101378.114
101378.199
101378.282
101378.363
101378.442
101378.529
101378.604
101378.664
101378.728
101378.793
101378.855
101378.915
101378.972
101379.028
101379.083
101379.138
101379.19
101379.235
101379.273
101379.324
101379.403
101379.487
101379.56
101379.634
101379.716
101379.807
101379.906
101380.015
101380.133
101380.261
101380.4
101380.55
101380.71
101380.879
101381.058
101381.245
101381.439
101381.634
101381.826
101382.034
101382.263
101382.496
101382.742
101383.001
101383.259
101383.522
101383.796
101384.078
101384.368
101384.66
101384.952
101385.249
101385.565
101385.898
101386.254
101374.355
101374.374
101374.397
101374.422
101374.449
101374.479
101374.513
101374.551
101374.592
101374.638
101374.688
101374.743
101374.803
101374.867
101374.936
101375.01
101375.089
101375.171
101375.258
101375.347
101375.44
101375.535
101375.631
101375.729
101375.827
101375.925
101376.023
101376.121
101376.226
101376.321
101376.406
101376.495
101376.584
101376.672
101376.757
101376.841
101376.924
101377.006
101377.088
101377.167
101377.24
101377.309
101377.385
101377.485
101377.603
101377.715
101377.816
101377.922
101378.038
101378.162
101378.295
101378.438
101378.591
101378.753
101378.926
101379.107
101379.294
101379.483
101379.678
101379.881
101380.093
101380.309
101380.535
101380.792
101381.074
101381.35
101381.619
101381.894
101382.181
101382.472
101382.763
101383.061
101383.366
101383.68
101384.005
101384.341
101384.67
101385.038
101385.461
101386.024
101371.767
101371.789
101371.815
101371.844
101371.875
101371.909
101371.948
101371.99
101372.036
101372.087
101372.142
101372.203
101372.268
101372.339
101372.414
101372.495
101372.58
101372.67
101372.764
101372.862
101372.963
101373.067
101373.173
101373.282
101373.392
101373.503
101373.615
101373.735
101373.848
101373.954
101374.065
101374.177
101374.288
101374.398
101374.507
101374.617
101374.727
101374.835
101374.942
101375.047
101375.156
101375.281
101375.422
101375.563
101375.696
101375.833
101375.978
101376.131
101376.291
101376.46
101376.636
101376.817
101377.001
101377.19
101377.39
101377.599
101377.826
101378.077
101378.342
101378.604
101378.882
101379.171
101379.449
101379.724
101380.003
101380.294
101380.593
101380.896
101381.204
101381.515
101381.831
101382.15
101382.473
101382.801
101383.153
101383.531
101383.851
101384.207
101384.676
101385.557
101368.937
101368.957
101368.982
101369.008
101369.038
101369.072
101369.11
101369.152
101369.199
101369.252
101369.309
101369.372
101369.441
101369.515
101369.596
101369.682
101369.773
101369.87
101369.973
101370.08
101370.192
101370.308
101370.427
101370.55
101370.676
101370.804
101370.94
101371.073
101371.201
101371.334
101371.469
101371.604
101371.74
101371.876
101372.012
101372.15
101372.292
101372.436
101372.583
101372.736
101372.902
101373.071
101373.236
101373.402
101373.573
101373.752
101373.935
101374.122
101374.315
101374.517
101374.728
101374.956
101375.208
101375.475
101375.748
101376.027
101376.301
101376.581
101376.888
101377.192
101377.485
101377.787
101378.101
101378.42
101378.743
101379.069
101379.397
101379.726
101380.055
101380.384
101380.713
101381.048
101381.377
101381.686
101382.025
101382.476
101382.767
101382.938
101383.171
101384.285
101365.792
101365.807
101365.826
101365.848
101365.873
101365.903
101365.938
101365.977
101366.023
101366.074
101366.132
101366.196
101366.268
101366.347
101366.433
101366.527
101366.628
101366.736
101366.85
101366.972
101367.099
101367.232
101367.371
101367.513
101367.66
101367.815
101367.969
101368.121
101368.277
101368.436
101368.596
101368.757
101368.919
101369.082
101369.246
101369.415
101369.591
101369.775
101369.968
101370.165
101370.361
101370.557
101370.759
101370.967
101371.18
101371.4
101371.634
101371.888
101372.153
101372.427
101372.709
101372.992
101373.278
101373.572
101373.872
101374.194
101374.522
101374.839
101375.167
101375.507
101375.856
101376.208
101376.562
101376.917
101377.273
101377.629
101377.984
101378.338
101378.69
101379.037
101379.376
101379.724
101380.07
101380.321
101380.551
101381.051
101381.392
101381.301
101380.814
101381.539
101362.269
101362.281
101362.298
101362.317
101362.341
101362.37
101362.404
101362.444
101362.49
101362.543
101362.604
101362.673
101362.751
101362.837
101362.931
101363.035
101363.148
101363.269
101363.399
101363.536
101363.682
101363.834
101363.992
101364.156
101364.327
101364.505
101364.683
101364.863
101365.047
101365.234
101365.425
101365.618
101365.814
101366.012
101366.215
101366.418
101366.626
101366.84
101367.062
101367.291
101367.524
101367.768
101368.024
101368.287
101368.558
101368.833
101369.113
101369.403
101369.703
101370.013
101370.333
101370.66
101371.009
101371.383
101371.738
101372.083
101372.443
101372.817
101373.195
101373.578
101373.964
101374.353
101374.743
101375.133
101375.522
101375.91
101376.296
101376.678
101377.057
101377.428
101377.773
101378.136
101378.56
101378.79
101378.842
101379.288
101379.837
101380.197
101379.444
101378.719
101358.357
101358.369
101358.385
101358.405
101358.429
101358.458
101358.494
101358.536
101358.585
101358.643
101358.708
101358.783
101358.867
101358.961
101359.065
101359.179
101359.303
101359.437
101359.58
101359.733
101359.894
101360.064
101360.241
101360.426
101360.618
101360.816
101361.017
101361.225
101361.438
101361.655
101361.877
101362.103
101362.334
101362.569
101362.809
101363.055
101363.305
101363.562
101363.825
101364.096
101364.373
101364.659
101364.954
101365.259
101365.573
101365.896
101366.228
101366.569