/*--------------------------------*- C++ -*----------------------------------*\
  =========                 |
  \\      /  F ield         | OpenFOAM: The Open Source CFD Toolbox
   \\    /   O peration     | Website:  https://openfoam.org
    \\  /    A nd           | Version:  8
     \\/     M anipulation  |
\*---------------------------------------------------------------------------*/
FoamFile
{
    version     2.0;
    format      ascii;
    class       volScalarField;
    location    "0.002";
    object      T;
}
// * * * * * * * * * * * * * * * * * * * * * * * * * * * * * * * * * * * * * //

dimensions      [0 0 0 1 0 0 0];

internalField   nonuniform List<scalar> 
42400
(
470.862931
466.552237
462.150121
457.669291
453.122958
448.524726
443.888471
439.228229
434.558069
429.891983
425.243775
420.626954
416.054642
411.539478
407.093718
402.729491
398.459615
394.294564
390.243849
386.314305
382.512702
378.844751
375.314983
371.926822
368.682601
365.583585
362.629981
359.820984
357.15486
354.629121
352.240796
349.986979
347.865897
345.862681
343.965528
342.168
340.460878
338.833976
337.288809
335.819643
334.415117
333.069196
331.761671
330.475269
329.181715
327.904275
326.635179
325.367419
324.092986
322.80536
321.499652
320.173115
318.825393
317.458682
316.077732
314.689656
313.303149
311.92606
310.557919
309.212612
307.917792
306.69676
305.56841
304.546233
303.637901
302.849562
302.179817
301.615419
301.154723
300.799041
300.520011
300.299208
300.138606
300.026425
299.952485
299.902345
299.889725
299.885727
299.883397
299.883069
470.858045
466.537703
462.126148
457.636407
453.082025
448.476948
443.835406
439.171794
434.500544
429.836002
425.192292
420.583187
416.022678
411.523849
407.099319
402.761106
398.520297
394.386629
390.368758
386.474197
382.709294
379.079206
375.587893
372.238124
369.031489
365.968431
363.048262
360.269197
357.628389
355.121991
352.745221
350.49243
348.35714
346.331996
344.409094
342.580122
340.835695
339.16753
337.570827
336.025592
334.514584
333.010782
331.537578
330.086241
328.648401
327.214724
325.777081
324.329032
322.866278
321.386897
319.891495
318.383288
316.868105
315.354251
313.852199
312.373856
310.930182
309.522814
308.169933
306.895665
305.71894
304.65345
303.708165
302.8873
302.189355
301.609826
301.14267
300.773219
300.485316
300.273384
300.124907
300.022551
299.94958
299.906139
299.892985
299.88773
299.886217
299.885313
299.882932
299.881574
470.854932
466.528571
462.111384
457.61676
453.058602
448.451207
443.80914
439.147283
434.48044
429.823301
425.190255
420.595177
416.052115
411.574317
407.174171
402.863156
398.651749
394.54935
390.564203
386.703356
382.972615
379.376522
375.91835
372.600098
369.422511
366.385102
363.486199
360.722994
358.091601
355.587117
353.203725
350.934817
348.773
346.709784
344.737449
342.850911
341.029611
339.256991
337.507773
335.805704
334.141044
332.504082
330.883947
329.270999
327.657284
326.036957
324.406488
322.764795
321.113329
319.456106
317.799698
316.15315
314.52773
312.936475
311.393558
309.912376
308.497799
307.166271
305.937951
304.827223
303.842875
302.988323
302.262455
301.660406
301.173587
300.790001
300.497729
300.283635
300.131089
300.025555
299.958037
299.919358
299.902652
299.897376
299.891483
299.886044
299.884399
299.883734
299.880647
299.878076
470.854162
466.526528
462.108593
457.614114
453.057347
448.452913
443.815665
439.160744
434.503197
429.857942
425.239608
420.662394
416.13993
411.685137
407.310103
403.025962
398.84279
394.76952
390.813862
386.98225
383.279795
379.710264
376.276076
372.978308
369.816734
366.789856
363.89496
361.128165
358.484521
355.958022
353.54175
351.229115
349.015217
346.880171
344.809016
342.778862
340.813357
338.901825
337.033278
335.195647
333.378095
331.571416
329.768387
327.963927
326.155244
324.341936
322.526083
320.71228
318.907612
317.121556
315.365793
313.653843
312.000444
310.420809
308.929693
307.535332
306.248163
305.084026
304.052718
303.158162
302.399022
301.769224
301.259195
300.856903
300.548997
300.320913
300.158328
300.047723
299.977907
299.935965
299.911455
299.898937
299.893205
299.89135
299.887103
299.878141
299.871604
299.867087
299.865013
299.864154
470.855477
466.530762
462.116339
457.626293
453.075195
448.477975
443.849787
439.205873
434.561415
429.931387
425.330404
420.772575
416.271357
411.839421
407.488517
403.229355
399.071506
395.023299
391.091749
387.282493
383.599751
380.0463
376.623498
373.331325
370.168466
367.1324
364.219441
361.424514
358.742389
356.167422
353.682852
351.276842
348.931632
346.668697
344.475755
342.340831
340.251377
338.196084
336.165059
334.150067
332.144681
330.144447
328.147059
326.152515
324.163243
322.184166
320.222683
318.288552
316.39365
314.551642
312.777505
311.086762
309.494583
308.014894
306.659268
305.430496
304.339355
303.390892
302.584642
301.914995
301.372346
300.943747
300.614495
300.368994
300.192049
300.069483
299.988453
299.938097
299.908512
299.892674
299.885167
299.877853
299.870766
299.86562
299.863518
299.860282
299.857426
299.857651
299.857862
299.858799
470.85749
466.537133
462.127726
457.643685
453.099869
448.511445
443.893751
439.262142
434.631839
430.017776
425.434442
420.895728
416.414785
412.003881
407.674274
403.436102
399.298277
395.268403
391.352695
387.55591
383.881262
380.330265
376.902992
373.598071
370.413003
367.344647
364.390376
361.533934
358.766246
356.078673
353.485938
350.975901
348.53738
346.158779
343.829308
341.539056
339.279213
337.042284
334.822325
332.615189
330.418763
328.233177
326.060967
323.907167
321.779306
319.687283
317.64312
315.660564
313.754573
311.940724
310.234394
308.649753
307.198854
305.890784
304.729888
303.716069
302.849784
302.12617
301.536345
301.067812
300.705977
300.434659
300.237707
300.09957
300.0056
299.944373
299.906356
299.883948
299.870565
299.863148
299.858282
299.854745
299.851321
299.851549
299.850437
299.850606
299.85515
299.857138
299.857745
299.859439
470.860618
466.546822
462.144594
457.668604
453.13391
448.555822
443.949745
439.331025
434.714789
430.115779
425.548199
421.025555
416.560513
412.164768
407.848929
403.62243
399.49347
395.468984
391.554677
387.755137
384.07411
380.508788
377.05821
373.718967
370.485108
367.347479
364.292571
361.338991
358.478839
355.703038
353.001581
350.364561
347.782361
345.245933
342.74705
340.278595
337.834842
335.411752
333.007249
330.621455
328.256885
325.918555
323.613993
321.353128
319.148043
317.012572
314.961747
313.011117
311.175988
309.470666
307.907457
306.495804
305.241568
304.146531
303.207738
302.417492
301.767466
301.24563
300.837784
300.528078
300.300292
300.138443
300.027661
299.954799
299.908514
299.880219
299.863555
299.854246
299.850919
299.849479
299.849253
299.849618
299.850433
299.850385
299.849536
299.849663
299.852514
299.856825
299.858741
299.859896
470.863961
466.557128
462.162411
457.694662
453.169058
448.600948
444.005697
439.398518
434.794306
430.207462
425.651733
421.140033
416.684281
412.295286
407.982603
403.754434
399.617532
395.577141
391.636964
387.799149
384.064198
380.438451
376.921196
373.509927
370.200881
366.989118
363.868516
360.831408
357.869612
354.974713
352.138337
349.352427
346.609539
343.90315
341.227981
338.580306
335.958249
333.362048
330.794254
328.259875
325.7664
323.323718
320.943892
318.640779
316.429494
314.325721
312.344907
310.50138
308.80751
307.273031
305.904241
304.703566
303.669133
302.795042
302.071235
301.483755
301.018739
300.660579
300.392899
300.199457
300.064889
299.975532
299.919194
299.88575
299.866924
299.856843
299.851939
299.85025
299.849299
299.84803
299.846994
299.846325
299.845552
299.843629
299.843094
299.842328
299.842711
299.842723
299.844274
299.845603
470.867401
466.567676
462.180522
457.720904
453.204045
448.645263
444.059818
439.462742
434.868682
430.291748
425.745384
421.242268
416.792773
412.407175
408.094357
403.86173
399.715065
395.658305
391.69333
387.819626
384.033801
380.34799
376.759893
373.265878
369.861151
366.539952
363.295803
360.121774
357.01075
353.955719
350.950075
347.987936
345.064466
342.176201
339.321359
336.500123
333.714868
330.970332
328.273686
325.634489
323.064507
320.577381
318.188127
315.912487
313.76614
311.763815
309.918377
308.239944
306.735193
305.407093
304.254599
303.272722
302.452068
301.781945
301.244585
300.825067
300.507118
300.27402
300.109774
299.999224
299.928932
299.887223
299.864703
299.853425
299.848117
299.844736
299.842052
299.839409
299.83711
299.834697
299.833019
299.831545
299.830053
299.832299
299.833125
299.836585
299.838472
299.839986
299.840769
299.841447
470.868753
466.571839
462.187662
457.731149
453.217385
448.661432
444.078166
439.482086
434.887139
430.306536
425.752572
421.236453
416.768485
412.35843
408.014813
403.744845
399.554364
395.44779
391.428105
387.496843
383.654073
379.898292
376.2268
372.635856
369.120872
365.676629
362.297519
358.977813
355.711954
352.494869
349.322298
346.191124
343.099702
340.048158
337.03866
334.075612
331.165775
328.318271
325.544454
322.857631
320.272623
317.80517
315.471192
313.285953
311.263168
309.414126
307.7469
306.265674
304.970367
303.857021
302.917592
302.141389
301.512012
301.013239
300.632053
300.351093
300.152245
300.018098
299.933443
299.881587
299.85723
299.845867
299.841026
299.83882
299.837051
299.835749
299.833647
299.83075
299.829154
299.828452
299.828676
299.829201
299.830446
299.831394
299.833966
299.836462
299.839031
299.841407
299.843214
299.842296
470.867794
466.568992
462.18293
457.724468
453.208518
448.649861
444.062964
439.461794
434.85963
430.268891
425.701013
421.167116
416.677243
412.240247
407.863703
403.553837
399.315484
395.15207
391.065635
387.056884
383.125272
379.269126
375.485803
371.771868
368.123312
364.535805
361.004965
357.526667
354.097358
350.714392
347.376361
344.083412
340.837537
337.642801
334.505504
331.434234
328.439801
325.535017
322.734332
320.053301
317.507929
315.113896
312.885732
310.835994
308.974501
307.307695
305.838164
304.564208
303.479747
302.576046
301.837644
301.249686
300.798767
300.465573
300.229578
300.070038
299.968108
299.906437
299.871319
299.860365
299.850061
299.845193
299.841786
299.839187
299.836743
299.834069
299.831735
299.829118
299.827407
299.827272
299.826397
299.827165
299.82729
299.829108
299.830773
299.832489
299.834848
299.838451
299.84338
299.846272
470.863525
466.556059
462.160989
457.692993
453.166715
448.59657
443.99656
439.380083
434.759755
430.147231
425.553563
420.989086
416.46302
411.98338
407.55691
403.189047
398.883905
394.644296
390.471782
386.366758
382.328571
378.355669
374.445792
370.596181
366.803836
363.065785
359.379391
355.742663
352.154591
348.615462
345.127163
341.69345
338.320138
335.015221
331.788861
328.653258
325.622355
322.711407
319.9364
317.313367
314.857632
312.583045
310.501258
308.621078
306.947936
305.483516
304.225546
303.167427
302.297789
301.602374
301.064863
300.66385
300.376525
300.179189
300.049195
299.967088
299.916909
299.886982
299.868579
299.857321
299.845173
299.837807
299.832468
299.828009
299.824547
299.818591
299.816255
299.813201
299.811899
299.808716
299.808533
299.808798
299.809295
299.810081
299.812288
299.816003
299.821102
299.827562
299.835944
299.843307
470.855807
466.532637
462.121199
457.6359
453.091022
448.50053
443.87788
439.235841
434.586313
429.940268
425.308295
420.699958
416.123707
411.586817
407.095343
402.654118
398.266763
393.935744
389.662449
385.447301
381.28991
377.189248
373.143865
369.152129
365.2125
361.323827
357.485656
353.698557
349.964436
346.286816
342.671085
339.124657
335.657039
332.27978
329.006277
325.851439
322.83121
319.961975
317.259889
314.740153
312.416302
310.299528
308.398076
306.716709
305.256236
304.013199
302.979743
302.143345
301.485678
300.985338
300.617686
300.356206
300.175821
300.054727
299.974949
299.922876
299.888225
299.865308
299.845894
299.829812
299.814916
299.803802
299.797162
299.794163
299.791998
299.794984
299.796905
299.798831
299.802161
299.804818
299.807577
299.810457
299.812216
299.8128
299.813706
299.816749
299.821388
299.826326
299.833483
299.839839
470.844408
466.498005
462.062313
457.551364
452.978983
448.358601
443.703068
439.024474
434.333982
429.642217
424.959094
420.293512
415.653295
411.045153
406.474668
401.94631
397.463482
393.028596
388.643177
384.308004
380.023282
375.788845
371.604395
367.469769
363.385231
359.351782
355.371477
351.447723
347.585558
343.791862
340.075496
336.447331
332.920158
329.508464
326.228072
323.095662
320.128188
317.342223
314.753255
312.374963
310.21849
308.291727
306.598647
305.138694
303.906233
302.89035
302.075501
301.440253
300.959297
300.604777
300.349918
300.170799
300.047164
299.962784
299.905075
299.865682
299.837958
299.814015
299.797632
299.788379
299.789532
299.789787
299.790361
299.79228
299.794788
299.797304
299.800082
299.803397
299.806263
299.808354
299.810647
299.814066
299.817399
299.819887
299.821429
299.824362
299.826832
299.82888
299.833065
299.837882
470.828639
466.450127
461.980994
457.434842
452.825005
448.16436
443.465148
438.738807
433.99595
429.246815
424.500731
419.766058
415.050142
410.359298
405.698822
401.073022
396.485293
391.938204
387.433636
382.972944
378.557152
374.187191
369.864162
365.589628
361.365917
357.19644
353.085979
349.040947
345.069587
341.182084
337.390576
333.709051
330.153112
326.739633
323.486285
320.410966
317.53114
314.863083
312.421061
310.21645
308.256812
306.544998
305.078421
303.848627
302.84113
302.036168
301.409433
300.934195
300.582611
300.328055
300.147279
300.021565
299.93585
299.878413
299.840069
299.813534
299.796387
299.790095
299.790191
299.790664
299.791596
299.791431
299.792276
299.794089
299.795817
299.79897
299.801382
299.805408
299.806895
299.807359
299.808443
299.813418
299.818658
299.824466
299.828755
299.832918
299.837977
299.840486
299.839305
299.839567
470.80876
466.389795
461.878599
457.288319
452.631781
447.921308
443.16855
438.384329
433.578998
428.762285
423.943047
419.129221
414.327802
409.544843
404.785483
400.054003
395.353917
390.688091
386.058907
381.468455
376.918768
372.412089
367.951157
363.539523
359.181849
354.884204
350.654304
346.501708
342.43792
338.4764
334.632467
330.923083
327.366513
323.981861
320.788464
317.805147
315.049332
312.536019
310.276696
308.278225
306.541844
305.062258
303.827669
302.820286
302.017103
301.391853
300.916207
300.562738
300.306501
300.124921
299.999857
299.915715
299.860736
299.826082
299.805321
299.794221
299.789396
299.788194
299.78881
299.788975
299.789599
299.79086
299.792512
299.792674
299.792471
299.793013
299.794178
299.794512
299.795134
299.796951
299.801208
299.806595
299.813935
299.821495
299.826369
299.830912
299.836656
299.844292
299.851733
299.853385
470.784819
466.317187
461.755506
457.11248
452.40045
447.631218
442.815888
437.964826
433.088078
428.194916
423.293776
418.392227
413.496968
408.61384
403.747882
398.903413
394.084148
389.293365
384.534096
379.809366
375.122464
370.477237
365.878398
361.331834
356.84489
352.426616
348.087958
343.841867
339.70333
335.689282
331.818405
328.11078
324.587372
321.269323
318.177031
315.329036
312.740752
310.42315
308.381569
306.61479
305.115143
303.866172
302.847791
302.034962
301.400814
300.916818
300.55669
300.295963
300.112479
299.987863
299.905876
299.853667
299.821531
299.802494
299.792125
299.786922
299.784231
299.782585
299.781619
299.781518
299.781614
299.781219
299.78013
299.779946
299.781132
299.784223
299.787164
299.79067
299.794368
299.797594
299.801884
299.806297
299.811694
299.816526
299.82079
299.825041
299.830524
299.838975
299.850035
299.857021
470.757707
466.234977
461.616184
456.913576
452.139003
447.303747
442.418365
437.492949
432.537083
427.559593
422.568511
417.571061
412.573669
407.582015
402.601112
397.635429
392.689053
387.765894
382.869925
378.005456
373.177435
368.391755
363.655561
358.977535
354.368149
349.839861
345.407243
341.087017
336.897977
332.860768
328.997477
325.331014
321.884231
318.678792
315.733817
313.064431
310.680386
308.584944
306.774182
305.236815
303.95486
302.909097
302.0742
301.423624
300.929024
300.562773
300.298776
300.113832
299.988095
299.905297
299.85237
299.820206
299.801898
299.791002
299.784562
299.780568
299.777882
299.776338
299.775838
299.776192
299.777268
299.778239
299.778972
299.780544
299.78247
299.784716
299.787712
299.791347
299.795649
299.800086
299.802991
299.80497
299.80955
299.813515
299.81619
299.818916
299.823129
299.831756
299.844737
299.855736
470.727589
466.143656
461.461443
456.692721
451.848835
446.940539
441.977862
436.970594
431.927848
426.858012
421.768733
416.666929
411.558831
406.450075
401.34582
396.25092
391.170131
386.108358
381.07093
376.0639
371.09435
366.170703
361.303006
356.503192
351.785282
347.165521
342.662409
338.296599
334.090606
330.068301
326.254143
322.672144
319.344598
316.290647
313.524807
311.055744
308.88552
307.009486
305.416626
304.090959
303.01085
302.150264
301.480364
300.971643
300.59543
300.324716
300.135416
300.006819
299.921291
299.865867
299.830108
299.807368
299.79292
299.786007
299.781487
299.778137
299.776906
299.775265
299.773333
299.7723
299.772079
299.773331
299.776397
299.779756
299.782639
299.784957
299.787825
299.791737
299.796213
299.801382
299.806634
299.811048
299.810589
299.81338
299.816329
299.819341
299.821338
299.827712
299.841001
299.852448
470.695154
466.045288
461.294713
456.454671
451.535957
446.548758
441.502731
436.407169
431.270724
426.101382
420.906476
415.692732
410.46636
405.233178
399.998786
394.768776
389.548977
384.345733
379.166198
374.018644
368.912773
363.860006
358.873752
353.969614
349.165517
344.481714
339.940615
335.566407
331.384413
327.420187
323.698374
320.241425
317.068271
314.19316
311.624432
309.364071
307.407569
305.744198
304.357668
303.225533
302.321369
301.615027
301.075726
300.673833
300.38182
300.175201
300.033168
299.938322
299.877198
299.838281
299.814248
299.798843
299.78902
299.783156
299.779558
299.777486
299.776117
299.775259
299.774907
299.773244
299.772144
299.772477
299.775011
299.777955
299.781053
299.784106
299.787031
299.791057
299.794875
299.799815
299.806518
299.814677
299.819859
299.8213
299.825711
299.831546
299.836814
299.835017
299.839872
299.849964
471.185761
467.528315
463.797445
460.006561
456.169306
452.299407
448.410514
444.516053
440.629081
436.762147
432.927175
429.135349
425.39703
421.721678
418.117804
414.592929
411.153575
407.805263
404.552528
401.398956
398.347221
395.399141
392.555738
389.8173
387.183455
384.653236
382.225156
379.897283
377.667305
375.532602
373.490313
371.537401
369.670722
367.887095
366.182474
364.553367
362.996243
361.507597
360.083971
358.721979
357.418321
356.169801
354.973333
353.825956
352.724828
351.667239
350.650604
349.672473
348.730523
347.822562
346.946528
346.100482
345.282614
344.491237
343.72479
342.981747
342.260667
341.5602
340.879112
340.216251
339.570537
338.940956
338.326558
337.726457
337.139831
336.565911
336.003976
335.453341
334.91337
334.383498
333.863209
333.352033
332.849571
332.35552
331.869607
331.391581
330.921336
330.459284
330.0083
329.583797
471.198832
467.567672
463.863515
460.099598
456.289376
452.446365
448.583988
444.715424
440.853468
437.01039
433.197823
429.42666
425.706963
422.047903
418.457711
414.943648
411.511998
408.168072
404.916232
401.759925
398.701725
395.743392
392.885928
390.129643
387.474227
384.918816
382.462056
380.102174
377.837039
375.66422
373.581042
371.584631
369.671958
367.839867
366.084654
364.4031
362.791973
361.248053
359.768158
358.349159
356.988002
355.681718
354.42744
353.222402
352.063954
350.949563
349.876815
348.843419
347.847202
346.886118
345.958245
345.061777
344.195021
343.356438
342.544517
341.757838
340.995025
340.254766
339.535816
338.837014
338.157224
337.495317
336.850215
336.220935
335.606541
335.006138
334.418815
333.843628
333.279609
332.726165
332.182631
331.648346
331.122762
330.605958
330.09761
329.5973
329.105028
328.621498
328.15149
327.718613
471.188153
467.535377
463.80891
460.021902
456.187728
452.31984
448.431612
444.536189
440.646341
436.77433
432.931786
429.129603
425.377852
421.685707
418.0614
414.512189
411.044349
407.663173
404.373001
401.177249
398.078459
395.078353
392.177898
389.377366
386.676411
384.074129
381.569137
379.159628
376.843442
374.618123
372.480974
370.429108
368.459492
366.56899
364.754399
363.012495
361.340063
359.733922
358.190953
356.708112
355.282453
353.911136
352.591438
351.320763
350.096645
348.916749
347.77887
346.680931
345.62098
344.597195
343.607971
342.651801
341.727225
340.832905
339.967515
339.12985
338.318667
337.532751
336.770882
336.031866
335.314436
334.617182
333.938639
333.278208
332.634548
332.006585
331.392997
330.792448
330.203589
329.625733
329.05805
328.499692
327.950097
327.410002
326.879139
326.356893
325.843059
325.339277
324.854422
324.42611
471.16767
467.473431
463.704282
459.873261
455.993646
452.078803
448.142037
444.196441
440.254758
436.329243
432.431545
428.5726
424.762542
421.010632
417.325204
413.713637
410.182334
406.736726
403.38129
400.119577
396.954256
393.887162
390.919357
388.05119
385.282364
382.612006
380.03873
377.560712
375.175747
372.881323
370.674671
368.55283
366.512699
364.551081
362.664736
360.850416
359.104903
357.42505
355.807801
354.250224
352.749509
351.30299
349.90815
348.562629
347.264227
346.010894
344.800724
343.631955
342.503003
341.412237
340.358138
339.339895
338.356249
337.405999
336.488253
335.602044
334.746141
333.919247
333.120105
332.347459
331.599896
330.875735
330.172908
329.490886
328.827649
328.181768
327.551476
326.935201
326.331676
325.740236
325.160302
324.59127
324.032879
323.485712
322.949113
322.42224
321.905423
321.4024
320.926269
320.528483
471.145183
467.405402
463.589379
459.710037
455.780542
451.814159
447.824103
443.823399
439.824739
435.840357
431.881907
427.960362
424.085919
420.267934
416.514861
412.834213
409.232542
405.715435
402.287519
398.952482
395.713115
392.571346
389.528301
386.584361
383.73923
380.992002
378.341239
375.785038
373.321115
370.946869
368.659461
366.455873
364.33298
362.287596
360.31653
358.416625
356.584805
354.81811
353.113744
351.469135
349.881779
348.34938
346.869822
345.441161
344.061623
342.729598
341.443626
340.202436
339.00487
337.849611
336.735032
335.660657
334.625253
333.627733
332.667426
331.743531
330.854838
329.999885
329.177188
328.38522
327.62232
326.886645
326.176028
325.488997
324.823225
324.17672
323.547523
322.934103
322.335515
321.751287
321.181012
320.624628
320.082494
319.554583
319.040131
318.538617
318.050667
317.580697
317.143726
316.79608
471.120203
467.329911
463.46202
459.529422
455.545268
451.522831
447.475357
443.415923
439.357295
435.311798
431.291189
427.306547
423.368176
419.485528
415.667131
411.920551
408.252356
404.668112
401.172384
397.76876
394.459888
391.247528
388.132608
385.115302
382.195106
379.37092
376.641139
374.003739
371.456364
368.996412
366.62111
364.327593
362.112964
359.974355
357.908966
355.914059
353.987035
352.125444
350.327003
348.589783
346.911902
345.291672
343.727553
342.218141
340.762155
339.358484
338.00604
336.703913
335.451226
334.24696
333.089823
331.978978
330.913194
329.89132
328.912296
327.974967
327.077921
326.219506
325.397933
324.611275
323.857461
323.134272
322.439394
321.770503
321.125311
320.501772
319.89826
319.313572
318.747313
318.19941
317.669433
317.157538
316.663558
316.186141
315.724886
315.279787
314.85116
314.442616
314.068248
313.773873
471.099335
467.266844
463.355641
459.3786
455.348861
451.279695
447.184349
443.0759
438.967113
434.870297
430.797178
426.758782
422.765333
418.826167
414.949665
411.14321
407.413157
403.764833
400.202547
396.72963
393.348481
390.060636
386.866848
383.767172
380.761059
377.847459
375.024911
372.291638
369.645638
367.08476
364.606777
362.209446
359.890559
357.647974
355.479726
353.383935
351.358853
349.402845
347.514365
345.692065
343.934668
342.240979
340.609865
339.040264
337.531094
336.081395
334.690158
333.356307
332.078741
330.856298
329.687739
328.571743
327.506913
326.491773
325.524738
324.604111
323.72807
322.894671
322.101829
321.347314
320.628759
319.943691
319.289606
318.66414
318.065127
317.491091
316.94112
316.414189
315.909743
315.427332
314.966402
314.526928
314.108112
313.708342
313.326816
312.962288
312.613766
312.282979
311.980923
311.748
471.083692
467.219486
463.275589
459.264747
455.199972
451.094387
446.961082
442.812956
438.662572
434.522016
430.402762
426.315563
422.270346
418.276135
414.340996
410.472003
406.675225
402.955743
399.317679
395.764252
392.297848
388.920097
385.631968
382.433864
379.325715
376.307074
373.377203
370.535151
367.779819
365.110019
362.524514
360.022056
357.60146
355.261541
353.00118
350.819276
348.71474
346.686483
344.733411
342.854415
341.048361
339.314101
337.650405
336.056071
334.52984
333.070458
331.676595
330.346816
329.079598
327.873413
326.726662
325.637662
324.604639
323.625721
322.698927
321.822176
320.993305
320.210096
319.4703
318.771609
318.111609
317.487761
316.897382
316.33791
315.806997
315.303808
314.828343
314.379859
313.957526
313.560348
313.187233
312.837034
312.508193
312.199032
311.907136
311.629491
311.362802
311.104315
310.856322
310.640847
471.070675
467.179931
463.208402
459.168529
455.072992
450.93456
446.765944
442.579648
438.387821
434.202133
430.033647
425.892723
421.788933
417.731002
413.726772
409.783187
405.906298
402.101298
398.37256
394.723701
391.157649
387.67672
384.282698
380.976909
377.7603
374.633506
371.596903
368.65065
365.794723
363.028952
360.353046
357.766625
355.269303
352.860513
350.539511
348.305367
346.157004
344.093299
342.113051
340.214977
338.397636
336.659552
334.999207
333.415073
331.905607
330.469201
329.104154
327.808707
326.581017
325.419166
324.321174
323.285003
322.308564
321.389696
320.52606
319.715107
318.954095
318.240259
317.571469
316.946151
316.362148
315.816918
315.307194
314.828301
314.372412
313.948141
313.559656
313.202668
312.873748
312.569817
312.288043
312.025897
311.780984
311.553343
311.334789
311.11751
310.895847
310.661794
310.407869
310.133148
471.052737
467.125434
463.115847
459.03601
454.898181
450.7147
446.497852
442.259732
438.012116
433.766354
429.533261
425.323046
421.145235
417.008639
412.921316
408.890568
404.922945
401.024263
397.199634
393.453509
389.789717
386.211514
382.721637
379.322337
376.015412
372.80251
369.684988
366.663813
363.739606
360.912677
358.183064
355.550546
353.014681
350.574834
348.230206
345.979851
343.822691
341.757514
339.782937
337.897438
336.09924
334.386418
332.757392
331.210453
329.743833
328.355665
327.043985
325.806706
324.64159
323.546241
322.518088
321.554464
320.652863
319.811571
319.028111
318.299238
317.620452
316.984877
316.393829
315.854041
315.360081
314.907898
314.494881
314.119911
313.784962
313.47517
313.184449
312.912335
312.657288
312.415742
312.184525
311.961587
311.738909
311.517
311.292118
311.049152
310.777938
310.46113
310.079329
309.59146
471.024164
467.038961
462.969666
458.828105
454.62636
450.376639
446.091144
441.781953
437.460896
433.139458
428.828674
424.539054
420.280513
416.062315
411.893036
407.780533
403.731935
399.753637
395.851314
392.029936
388.293799
384.646552
381.091516
377.631605
374.269172
371.006061
367.843654
364.782926
361.824508
358.968735
356.215681
353.565205
351.016982
348.570533
346.225238
343.980334
341.834917
339.787971
337.838329
335.984663
334.225419
332.558655
330.981948
329.493147
328.090048
326.770277
325.5313
324.370484
323.285325
322.273106
321.330064
320.45108
319.628999
318.876426
318.18742
317.55755
316.983637
316.463962
315.987547
315.545322
315.136855
314.761008
314.4163
314.101304
313.81577
313.552644
313.306123
313.071914
312.849154
312.618741
312.37783
312.117097
311.849616
311.563611
311.232962
310.844404
310.40458
309.894679
309.274315
308.501319
470.994754
466.950117
462.819869
458.615878
454.350307
450.035494
445.68382
441.307581
436.918868
432.529449
428.150666
423.79334
419.467688
415.183256
410.948873
406.772611
402.661773
398.622888
394.661729
390.783341
386.992356
383.292978
379.688798
376.182848
372.777659
369.475318
366.277534
363.185678
360.200825
357.3238
354.5552
351.895414
349.344626
346.90282
344.569762
342.344983
340.227743
338.21708
336.311747
334.510125
332.810178
331.209408
329.704707
328.292729
326.970536
325.73506
324.582057
323.505755
322.508837
321.592969
320.753081
319.984623
319.281171
318.629325
318.028184
317.476253
316.972218
316.515628
316.099199
315.718993
315.370969
315.05103
314.754691
314.475976
314.210664
313.958655
313.696449
313.420353
313.114209
312.811301
312.492428
312.13819
311.73377
311.278836
310.723187
310.052567
309.36408
308.68195
307.933782
306.964739
470.972843
466.883868
462.708102
458.457394
454.143911
449.780008
445.378096
440.950512
436.509395
432.066568
427.633427
423.220851
418.839125
414.497873
410.206024
405.971783
401.802633
397.70534
393.68599
389.750509
385.904227
382.151902
378.497754
374.94551
371.498444
368.159416
364.930909
361.815046
358.813602
355.928004
353.159343
350.50836
347.975441
345.560606
343.263495
341.083358
339.019043
337.068969
335.231114
333.502991
331.881622
330.363614
328.944711
327.620172
326.385739
325.246821
324.196742
323.227383
322.331201
321.503422
320.742832
320.048807
319.413135
318.83141
318.299184
317.812087
317.365727
316.955592
316.576888
316.223945
315.890695
315.57294
315.269227
314.954221
314.623288
314.264831
313.914487
313.551424
313.160231
312.71542
312.218281
311.652107
310.990462
310.282816
309.50529
308.615623
307.744451
306.977247
306.259915
305.289032
470.953601
466.825616
462.609647
458.317418
453.960983
449.552597
445.104593
440.629258
436.13871
431.644796
427.158989
422.692305
418.255235
413.857691
409.508972
405.217744
400.992037
396.839285
392.766802
388.781314
384.88897
381.095359
377.40552
373.823964
370.354677
367.001137
363.766331
360.652762
357.662433
354.796849
352.057011
349.443421
346.956076
344.594475
342.357615
340.244008
338.251693
336.378262
334.620855
332.975913
331.439114
330.011299
328.683191
327.450226
326.307389
325.251028
324.280572
323.386456
322.564073
321.80853
321.11478
320.477757
319.892334