/*--------------------------------*- C++ -*----------------------------------*\
  =========                 |
  \\      /  F ield         | OpenFOAM: The Open Source CFD Toolbox
   \\    /   O peration     | Website:  https://openfoam.org
    \\  /    A nd           | Version:  8
     \\/     M anipulation  |
\*---------------------------------------------------------------------------*/
FoamFile
{
    version     2.0;
    format      ascii;
    class       volScalarField;
    location    "0.077";
    object      p;
}
// * * * * * * * * * * * * * * * * * * * * * * * * * * * * * * * * * * * * * //

dimensions      [1 -1 -2 0 0 0 0];

internalField   nonuniform List<scalar> 
42400
(
101617.673
101617.663
101617.652
101617.643
101617.635
101617.628
101617.622
101617.618
101617.615
101617.612
101617.612
101617.612
101617.614
101617.617
101617.622
101617.628
101617.635
101617.645
101617.655
101617.667
101617.681
101617.697
101617.714
101617.733
101617.753
101617.776
101617.8
101617.826
101617.854
101617.884
101617.916
101617.951
101617.987
101618.027
101618.068
101618.113
101618.166
101618.23
101618.301
101618.369
101618.43
101618.487
101618.55
101618.624
101618.713
101618.81
101618.915
101619.027
101619.146
101619.27
101619.415
101619.58
101619.764
101619.947
101620.126
101620.336
101620.575
101620.835
101621.108
101621.398
101621.706
101622.033
101622.385
101622.764
101623.157
101623.56
101623.974
101624.337
101624.811
101625.294
101625.203
101625.491
101626.681
101626.477
101625.19
101623.541
101624.632
101628.409
101628.844
101630.73
101617.354
101617.346
101617.338
101617.331
101617.324
101617.319
101617.315
101617.312
101617.31
101617.309
101617.31
101617.311
101617.314
101617.318
101617.323
101617.329
101617.337
101617.347
101617.357
101617.37
101617.383
101617.398
101617.415
101617.433
101617.452
101617.473
101617.496
101617.52
101617.546
101617.573
101617.602
101617.633
101617.665
101617.704
101617.75
101617.801
101617.849
101617.888
101617.924
101617.964
101618.016
101618.078
101618.145
101618.216
101618.29
101618.369
101618.448
101618.546
101618.666
101618.779
101618.881
101619.004
101619.151
101619.317
101619.495
101619.687
101619.896
101620.126
101620.381
101620.669
101620.99
101621.34
101621.715
101622.125
101622.582
101623.089
101623.678
101624.241
101624.846
101625.81
101626.29
101626.645
101627.918
101628.614
101629.24
101631.801
101633.267
101633.171
101635.679
101639.263
101616.891
101616.885
101616.879
101616.873
101616.869
101616.866
101616.863
101616.862
101616.861
101616.861
101616.863
101616.865
101616.869
101616.874
101616.88
101616.888
101616.896
101616.906
101616.917
101616.93
101616.944
101616.959
101616.976
101616.994
101617.013
101617.034
101617.056
101617.08
101617.104
101617.132
101617.163
101617.198
101617.236
101617.271
101617.3
101617.327
101617.358
101617.396
101617.441
101617.489
101617.539
101617.59
101617.643
101617.702
101617.776
101617.864
101617.941
101618.004
101618.089
101618.194
101618.305
101618.425
101618.556
101618.702
101618.865
101619.054
101619.272
101619.519
101619.794
101620.102
101620.452
101620.85
101621.299
101621.802
101622.375
101623.013
101623.788
101624.629
101625.485
101626.624
101627.928
101628.708
101630.596
101633.33
101633.268
101632.907
101633.956
101636.904
101639.195
101640.022
101616.314
101616.309
101616.304
101616.301
101616.298
101616.295
101616.294
101616.294
101616.294
101616.296
101616.298
101616.302
101616.307
101616.313
101616.32
101616.328
101616.338
101616.349
101616.362
101616.376
101616.391
101616.408
101616.426
101616.446
101616.466
101616.488
101616.513
101616.539
101616.568
101616.597
101616.625
101616.652
101616.679
101616.709
101616.745
101616.784
101616.824
101616.865
101616.907
101616.95
101616.995
101617.053
101617.125
101617.177
101617.215
101617.28
101617.361
101617.442
101617.527
101617.62
101617.724
101617.845
101617.985
101618.144
101618.325
101618.532
101618.773
101619.055
101619.382
101619.759
101620.194
101620.691
101621.254
101621.884
101622.602
101623.415
101624.363
101625.51
101626.681
101627.99
101629.524
101631.52
101632.651
101633.543
101636.126
101636.694
101637.594
101639.559
101642.294
101643.928
101615.639
101615.635
101615.631
101615.628
101615.626
101615.624
101615.624
101615.624
101615.625
101615.627
101615.631
101615.635
101615.641
101615.648
101615.657
101615.667
101615.678
101615.691
101615.706
101615.722
101615.739
101615.756
101615.776
101615.798
101615.822
101615.847
101615.874
101615.902
101615.931
101615.962
101615.995
101616.03
101616.067
101616.104
101616.143
101616.183
101616.224
101616.264
101616.315
101616.381
101616.427
101616.46
101616.515
101616.581
101616.645
101616.711
101616.785
101616.868
101616.961
101617.067
101617.187
101617.324
101617.483
101617.672
101617.896
101618.161
101618.473
101618.837
101619.261
101619.748
101620.308
101620.954
101621.678
101622.481
101623.335
101624.287
101625.117
101626.143
101627.932
101630.489
101632.38
101633.317
101634.341
101635.655
101637.221
101638.519
101640.007
101642.28
101644.97
101647.279
101614.87
101614.866
101614.862
101614.859
101614.856
101614.855
101614.855
101614.856
101614.857
101614.86
101614.864
101614.87
101614.877
101614.885
101614.896
101614.908
101614.92
101614.934
101614.95
101614.969
101614.99
101615.014
101615.04
101615.067
101615.096
101615.126
101615.158
101615.192
101615.227
101615.264
101615.302
101615.342
101615.384
101615.426
101615.465
101615.513
101615.576
101615.622
101615.656
101615.709
101615.772
101615.831
101615.893
101615.961
101616.034
101616.114
101616.203
101616.303
101616.417
101616.55
101616.706
101616.891
101617.11
101617.371
101617.679
101618.04
101618.461
101618.949
101619.518
101620.164
101620.899
101621.738
101622.676
101623.638
101624.566
101626.045
101628.526
101630.542
101631.651
101632.169
101632.954
101634.498
101636.229
101638.327
101640.21
101642.564
101644.82
101646.706
101647.942
101648.978
101613.996
101613.992
101613.988
101613.985
101613.982
101613.981
101613.982
101613.983
101613.986
101613.99
101613.995
101614.001
101614.009
101614.019
101614.031
101614.045
101614.062
101614.082
101614.103
101614.125
101614.15
101614.177
101614.205
101614.236
101614.269
101614.304
101614.341
101614.38
101614.421
101614.465
101614.509
101614.551
101614.6
101614.664
101614.716
101614.756
101614.81
101614.874
101614.935
101614.997
101615.064
101615.135
101615.212
101615.297
101615.391
101615.498
101615.62
101615.761
101615.926
101616.12
101616.351
101616.624
101616.946
101617.322
101617.759
101618.263
101618.845
101619.5
101620.27
101621.102
101622.012
101622.937
101624.234
101626.329
101628.931
101630.617
101631.165
101631.899
101633.2
101634.623
101636.527
101638.413
101640.23
101642.102
101643.55
101644.763
101646.154
101647.465
101649.497
101651.862
101612.994
101612.99
101612.986
101612.983
101612.982
101612.981
101612.982
101612.984
101612.988
101612.994
101613.001
101613.011
101613.023
101613.037
101613.052
101613.069
101613.089
101613.111
101613.135
101613.161
101613.191
101613.222
101613.256
101613.292
101613.331
101613.371
101613.415
101613.46
101613.504
101613.555
101613.618
101613.672
101613.717
101613.774
101613.84
101613.904
101613.971
101614.04
101614.115
101614.194
101614.281
101614.375
101614.481
101614.6
101614.735
101614.892
101615.074
101615.288
101615.54
101615.837
101616.186
101616.592
101617.061
101617.6
101618.218
101618.918
101619.716
101620.561
101621.56
101622.612
101623.87
101626.003
101628.158
101629.53
101630.493
101631.367
101632.583
101634.206
101635.656
101637.266
101638.431
101639.718
101641.612
101643.462
101645.54
101647.712
101649.595
101650.978
101652.723
101654.798
101611.846
101611.843
101611.84
101611.838
101611.838
101611.839
101611.842
101611.846
101611.853
101611.862
101611.872
101611.884
101611.899
101611.916
101611.935
101611.956
101611.981
101612.008
101612.037
101612.069
101612.103
101612.141
101612.181
101612.224
101612.267
101612.312
101612.362
101612.424
101612.48
101612.528
101612.588
101612.656
101612.723
101612.792
101612.865
101612.942
101613.025
101613.113
101613.21
101613.315
101613.433
101613.566
101613.716
101613.89
101614.092
101614.328
101614.605
101614.929
101615.31
101615.751
101616.26
101616.843
101617.506
101618.252
101619.088
101620.011
101621.035
101622.095
101623.408
101625.577
101627.184
101628.147
101629.278
101630.464
101632.225
101633.884
101634.782
101636.029
101637.331
101638.62
101640.968
101643.203
101644.734
101646.234
101647.949
101649.683
101651.185
101652.924
101655.435
101657.507
101610.526
101610.525
101610.524
101610.525
101610.527
101610.532
101610.538
101610.546
101610.556
101610.568
101610.582
101610.599
101610.618
101610.64
101610.665
101610.693
101610.723
101610.756
101610.792
101610.83
101610.872
101610.914
101610.962
101611.018
101611.077
101611.128
101611.179
101611.241
101611.309
101611.378
101611.449
101611.525
101611.604
101611.689
101611.779
101611.877
101611.983
101612.099
101612.229
101612.374
101612.54
101612.73
101612.95
101613.206
101613.504
101613.852
101614.258
101614.729
101615.27
101615.89
101616.595
101617.393
101618.287
101619.288
101620.392
101621.623
101622.893
101624.409
101625.737
101626.745
101628.102
101629.443
101630.937
101632.793
101633.886
101635.226
101637.054
101638.069
101639.638
101642.282
101643.569
101644.625
101646.524
101649
101651.27
101652.719
101654.099
101656.077
101658.155
101659.744
101609.009
101609.011
101609.014
101609.019
101609.025
101609.034
101609.044
101609.057
101609.072
101609.09
101609.111
101609.134
101609.16
101609.189
101609.221
101609.256
101609.294
101609.335
101609.378
101609.426
101609.481
101609.536
101609.588
101609.647
101609.713
101609.782
101609.852
101609.925
101610.003
101610.085
101610.171
101610.264
101610.363
101610.469
101610.585
101610.713
101610.854
101611.013
101611.194
101611.4
101611.637
101611.912
101612.229
101612.598
101613.023
101613.514
101614.075
101614.71
101615.423
101616.22
101617.099
101618.064
101619.108
101620.234
101621.417
101622.681
101624.093
101625.538
101627.056
101628.458
101629.882
101631.436
101633.053
101634.189
101635.415
101636.822
101638.462
101640.874
101642.229
101643.477
101645.244
101647.094
101649.028
101650.986
101652.696
101655.053
101657.316
101658.935
101660.459
101662.122
101607.268
101607.274
101607.282
101607.292
101607.304
101607.319
101607.336
101607.356
101607.378
101607.404
101607.433
101607.464
101607.499
101607.537
101607.579
101607.623
101607.672
101607.727
101607.783
101607.838
101607.9
101607.968
101608.038
101608.111
101608.189
101608.27
101608.355
101608.445
101608.541
101608.642
101608.751
101608.869
101608.996
101609.137
101609.292
101609.467
101609.664
101609.889
101610.146
101610.442
101610.782
101611.175
101611.625
101612.141
101612.729
101613.392
101614.133
101614.955
101615.858
101616.84
101617.895
101619.016
101620.202
101621.392
101622.57
101623.701
101625.067
101626.774
101628.389
101630.067
101631.789
101633.562
101635.305
101636.562
101637.999
101639.931
101641.084
101641.832
101643.506
101645.785
101647.94
101650.222
101652.054
101653.785
101655.699
101656.861
101658.371
101660.698
101662.607
101664.658
101605.264
101605.276
101605.291
101605.308
101605.328
101605.35
101605.376
101605.405
101605.437
101605.473
101605.511
101605.554
101605.6
101605.65
101605.706
101605.764
101605.823
101605.888
101605.958
101606.032
101606.109
101606.19
101606.276
101606.366
101606.461
101606.561
101606.667
101606.78
101606.901
101607.032
101607.174
101607.33
101607.502
101607.695
101607.912
101608.158
101608.438
101608.759
101609.126
101609.545
101610.024
101610.569
101611.187
101611.883
101612.66
101613.52
101614.468
101615.502
101616.619
101617.814
101619.077
101620.424
101621.877
101623.404
101624.961
101626.761
101628.433
101629.739
101631.091
101632.401
101633.685
101635.261
101637.008
101638.909
101640.254
101641.025
101642.677
101645.422
101647.419
101648.912
101650.209
101651.426
101653.011
101655.188
101657.292
101659.45
101661.426
101663.593
101665.745
101667.384
101602.953
101602.973
101602.997
101603.023
101603.053
101603.085
101603.122
101603.162
101603.205
101603.253
101603.305
101603.362
101603.421
101603.484
101603.552
101603.626
101603.703
101603.784
101603.87
101603.96
101604.056
101604.156
101604.262
101604.374
101604.492
101604.619
101604.754
101604.9
101605.059
101605.233
101605.425
101605.639
101605.879
101606.15
101606.456
101606.804
101607.2
101607.649
101608.159
101608.734
101609.38
101610.102
101610.905
101611.792
101612.761
101613.813
101614.957
101616.216
101617.547
101618.922
101620.334
101621.803
101623.272
101624.673
101626.043
101627.417
101629.159
101631.196
101632.637
101633.814
101635.166
101636.54
101638.054
101639.907
101641.796
101643.816
101645.597
101647.003
101648.364
101650.321
101652.807
101654.862
101656.712
101658.035
101659.746
101662.524
101665.005
101666.889
101668.402
101670.046
101600.29
101600.319
101600.354
101600.392
101600.433
101600.478
101600.527
101600.58
101600.638
101600.699
101600.765
101600.836
101600.912
101600.992
101601.076
101601.166
101601.26
101601.36
101601.465
101601.576
101601.693
101601.817
101601.948
101602.088
101602.238
101602.401
101602.577
101602.77
101602.984
101603.221
101603.486
101603.784
101604.12
101604.499
101604.928
101605.413
101605.958
101606.569
101607.251
101608.005
101608.833
101609.733
101610.699
101611.723
101612.778
101613.81
101614.804
101616.13
101617.941
101619.687
101621.393
101622.992
101624.572
101626.443
101628.576
101630.614
101632.017
101632.949
101634.067
101635.85
101638.177
101640.077
101641.21
101642.265
101644.189
101646.437
101648.39
101650.542
101652.389
101653.736
101655.096
101656.702
101658.286
101660.632
101663.799
101665.566
101666.662
101668.628
101670.861
101673.021
101597.235
101597.275
101597.324
101597.375
101597.43
101597.488
101597.552
101597.62
101597.692
101597.769
101597.852
101597.939
101598.031
101598.129
101598.232
101598.34
101598.455
101598.576
101598.703
101598.839
101598.983
101599.137
101599.302
101599.48
101599.675
101599.888
101600.123
101600.384
101600.676
101601.003
101601.372
101601.788
101602.258
101602.787
101603.382
101604.049
101604.793
101605.619
101606.531
101607.532
101608.626
101609.816
101611.109
101612.515
101614.065
101615.741
101617.673
101619.297
101620.497
101621.937
101623.805
101625.424
101626.672
101628.079
101629.89
101631.796
101633.23
101634.294
101635.928
101637.761
101639.058
101641.031
101643.96
101645.902
101646.979
101648.119
101649.713
101651.736
101653.802
101655.661
101657.768
101659.965
101661.919
101663.479
101664.543
101666.411
101668.907
101670.527
101672.566
101675.005
101593.762
101593.816
101593.88
101593.946
101594.016
101594.09
101594.169
101594.253
101594.341
101594.435
101594.535
101594.639
101594.75
101594.866
101594.989
101595.118
101595.255
101595.4
101595.555
101595.721
101595.899
101596.092
101596.303
101596.533
101596.788
101597.072
101597.388
101597.743
101598.143
101598.592
101599.099
101599.669
101600.309
101601.024
101601.82
101602.701
101603.67
101604.728
101605.877
101607.113
101608.43
101609.818
101611.263
101612.741
101614.243
101615.82
101617.322
101619.075
101621.317
101622.947
101624.287
101625.729
101627.167
101628.945
101630.776
101632.519
101634.449
101636.65
101638.674
101640.231
101641.579
101642.947
101644.202
101646.086
101648.858
101650.852
101652.302
101653.496
101655.426
101657.801
101659.972
101662.254
101664.74
101667.276
101668.599
101670.459
101673.336
101675.074
101676.794
101678.339
101589.881
101589.95
101590.031
101590.113
101590.198
101590.288
101590.383
101590.483
101590.589
101590.699
101590.816
101590.938
101591.067
101591.203
101591.346
101591.499
101591.661
101591.834
101592.021
101592.223
101592.443
101592.684
101592.95
101593.244
101593.573
101593.94
101594.351
101594.813
101595.33
101595.909
101596.554
101597.272
101598.065
101598.938
101599.891
101600.925
101602.04
101603.234
101604.51
101605.871
101607.318
101608.85
101610.453
101612.163
101613.962
101615.846
101617.789
101619.23
101620.257
101622.184
101624.634
101626.627
101628.943
101630.971
101632.71
101634.375
101636.05
101637.761
101639.376
101641.329
101643.66
101645.516
101647.234
101648.917
101650.276
101652.309
101655.455
101658.076
101659.933
101661.573
101663.512
101665.372
101667.231
101669.071
101671.24
101673.482
101674.381
101675.502
101677.598
101680.25
101585.648
101585.733
101585.831
101585.93
101586.032
101586.138
101586.249
101586.365
101586.487
101586.615
101586.749
101586.89
101587.04
101587.198
101587.367
101587.547
101587.742
101587.953
101588.183
101588.436
101588.715
101589.025
101589.371
101589.759
101590.193
101590.681
101591.227
101591.839
101592.522
101593.281
101594.12
101595.042
101596.048
101597.137
101598.307
101599.552
101600.861
101602.204
101603.592
101605.01
101606.468
101608.063
101610.02
101612.224
101614.31
101616.384
101618.662
101621.038
101623.046
101624.669
101626.139
101627.982
101630.295
101632.706
101634.548
101636.024
101637.645
101639.385
101641.319
101643.205
101645.035
101646.791
101648.697
101651.328
101653.591
101655.089
101656.483
101658.397
101661.107
101663.749
101666.314
101668.835
101670.467
101671.658
101673.511
101675.504
101677.298
101679.306
101681.201
101683.615
101581.157
101581.257
101581.373
101581.489
101581.608
101581.731
101581.861
101581.995
101582.137
101582.286
101582.443
101582.611
101582.789
101582.981
101583.188
101583.413
101583.659
101583.93
101584.231
101584.565
101584.938
101585.357
101585.826
101586.352
101586.943
101587.603
101588.339
101589.156
101590.059
101591.052
101592.136
101593.314
101594.586
101595.953
101597.416
101598.979
101600.636
101602.375
101604.234
101606.73
101609.7
101612.634
101614.882
101616.4
101617.774
101619.086
101620.434
101621.884
101623.373
101625.113
101627.664
101629.871
101631.24
101632.305
101634.063
101636.89
101639.598
101642.284
101644.43
101646.359
101648.641
101651.314
101653.021
101654.161
101655.779
101657.778
101659.872
101662.011
101664.087
101666.077
101667.796
101669.177
101670.999
101673.527
101675.699
101677.931
101679.944
101682.305
101684.261
101686.788
101618.925
101618.927
101618.928
101618.927
101618.925
101618.922
101618.917
101618.91
101618.901
101618.891
101618.88
101618.866
101618.85
101618.833
101618.814
101618.792
101618.768
101618.742
101618.714
101618.683
101618.65
101618.613
101618.574
101618.532
101618.487
101618.439
101618.387
101618.331
101618.272
101618.209
101618.142
101618.071
101617.995
101617.915
101617.83
101617.74
101617.644
101617.544
101617.438
101617.326
101617.209
101617.085
101616.954
101616.817
101616.673
101616.521
101616.362
101616.194
101616.017
101615.831
101615.635
101615.426
101615.202
101614.961
101614.698
101614.41
101614.093
101613.741
101613.347
101612.902
101612.396
101611.819
101611.158
101610.395
101609.515
101608.505
101607.367
101606.12
101604.779
101603.34
101601.758
101599.924
101597.761
101595.241
101592.436
101589.514
101586.535
101583.126
101578.974
101575.173
101617.016
101617.018
101617.02
101617.019
101617.017
101617.013
101617.007
101617
101616.99
101616.978
101616.965
101616.949
101616.931
101616.911
101616.888
101616.863
101616.835
101616.805
101616.772
101616.735
101616.696
101616.654
101616.608
101616.558
101616.505
101616.449
101616.388
101616.323
101616.253
101616.179
101616.1
101616.016
101615.927
101615.832
101615.731
101615.625
101615.512
101615.393
101615.267
101615.134
101614.994
101614.846
101614.689
101614.524
101614.35
101614.167
101613.974
101613.769
101613.553
101613.325
101613.081
101612.819
101612.536
101612.228
101611.891
101611.52
101611.108
101610.645
101610.124
101609.532
101608.86
101608.097
101607.235
101606.265
101605.176
101603.958
101602.598
101601.087
101599.43
101597.638
101595.738
101593.664
101590.913
101587.772
101585.351
101582.452
101578.949
101574.718
101569.721
101565.625
101615.366
101615.369
101615.371
101615.371
101615.369
101615.365
101615.359
101615.351
101615.341
101615.328
101615.313
101615.296
101615.276
101615.254
101615.229
101615.201
101615.171
101615.137
101615.1
101615.06
101615.017
101614.969
101614.918
101614.864
101614.805
101614.742
101614.674
101614.601
101614.524
101614.441
101614.353
101614.26
101614.16
101614.054
101613.942
101613.823
101613.696
101613.563
101613.421
101613.271
101613.113
101612.945
101612.769
101612.582
101612.384
101612.175
101611.954
101611.721
101611.474
101611.21
101610.928
101610.624
101610.296
101609.94
101609.551
101609.125
101608.652
101608.126
101607.534
101606.865
101606.104
101605.238
101604.251
101603.135
101601.882
101600.491
101598.958
101597.274
101595.415
101593.354
101591.109
101588.776
101586.079
101582.678
101578.602
101574.671
101570.244
101565.72
101560.838
101556.4
101614.003
101614.007
101614.01
101614.011
101614.009
101614.006
101614
101613.992
101613.982
101613.969
101613.953
101613.935
101613.915
101613.891
101613.865
101613.836
101613.804
101613.768
101613.729
101613.687
101613.641
101613.591
101613.537
101613.479
101613.417
101613.35
101613.278
101613.201
101613.118
101613.03
101612.937
101612.837
101612.73
101612.617
101612.497
101612.37
101612.235
101612.091
101611.94
101611.778
101611.607
101611.427
101611.237
101611.036
101610.823
101610.598
101610.36
101610.107
101609.839
101609.553
101609.245
101608.914
101608.555
101608.165
101607.737
101607.265
101606.74
101606.153
101605.491
101604.742
101603.892
101602.927
101601.836
101600.606
101599.23
101597.7
101596.006
101594.137
101592.056
101589.694
101586.912
101583.786
101581.045
101578.359
101575.267
101571.327
101566.171
101560.236
101554.87
101549.155
101612.946
101612.951
101612.955
101612.956
101612.956
101612.953
101612.947
101612.94
101612.93
101612.917
101612.902
101612.885
101612.864
101612.841
101612.815
101612.785
101612.753
101612.717
101612.678
101612.635
101612.589
101612.538
101612.484
101612.425
101612.361
101612.293
101612.22
101612.142
101612.058
101611.969
101611.873
101611.771
101611.663
101611.548
101611.425
101611.294
101611.156
101611.009
101610.852
101610.686
101610.511
101610.324
101610.127
101609.917
101609.694
101609.458
101609.206
101608.938
101608.652
101608.346
101608.016
101607.661
101607.278
101606.862
101606.41
101605.916
101605.373
101604.773
101604.106
101603.359
101602.516
101601.559
101600.473
101599.216
101597.745
101596.049
101594.117
101591.966
101589.622
101587.08
101584.831
101582.382
101578.41
101574.025
101569.38
101564.933
101560.678
101555.939
101548.976
101542.094
101612.201
101612.207
101612.212
101612.214
101612.214
101612.212
101612.208
101612.202
101612.193
101612.181
101612.167
101612.151
101612.131
101612.109
101612.084
101612.056
101612.025
101611.99
101611.952
101611.911
101611.866
101611.817
101611.764
101611.707
101611.645
101611.579
101611.507
101611.431
101611.349
101611.262
101611.169
101611.07
101610.964
101610.851
101610.732
101610.605
101610.471
101610.328
101610.177
101610.017
101609.847
101609.669
101609.479
101609.279
101609.068
101608.843
101608.603
101608.346
101608.075
101607.786
101607.475
101607.137
101606.767
101606.359
101605.907
101605.4
101604.825
101604.17
101603.422
101602.567
101601.59
101600.46
101599.322
101598.186
101596.914
101595.518
101594.003
101592.052
101589.457
101586.48
101583.209
101580.379
101577.536
101573.037
101568.717
101564.789
101558.851
101552.357
101546.074
101539.505
101611.763
101611.77
101611.775
101611.779
101611.78
101611.779
101611.776
101611.771
101611.764
101611.754
101611.742
101611.727
101611.71
101611.69
101611.667
101611.641
101611.613
101611.581
101611.546
101611.508
101611.466
101611.421
101611.371
101611.318
101611.261
101611.199
101611.133
101611.061
101610.985
101610.904
101610.817
101610.724
101610.625
101610.519
101610.407
101610.288
101610.161
101610.026
101609.883
101609.731
101609.571
101609.4
101609.219
101609.027
101608.824
101608.608
101608.376
101608.128
101607.868
101607.593
101607.298
101606.98
101606.637
101606.265
101605.868
101605.448
101604.995
101604.491
101603.919
101603.271
101602.532
101601.705
101600.64
101599.265
101597.676
101595.797
101593.563
101591.724
101590.327
101588.543
101585.218
101580.84
101575.93
101571.627
101566.84
101561.831
101557.047
101551.316
101544.979
101538.472
101611.616
101611.623
101611.629
101611.633
101611.636
101611.636
101611.635
101611.631
101611.625
101611.618
101611.607
101611.595
101611.58
101611.563
101611.543
101611.521
101611.496
101611.468
101611.438
101611.404
101611.367
101611.327
101611.283
101611.236
101611.184
101611.13
101611.07
101611.007
101610.939
101610.867
101610.79
101610.707
101610.62
101610.527
101610.428
101610.323
101610.213
101610.095
101609.972
101609.841
101609.703
101609.558
101609.405
101609.243
101609.073
101608.894
101608.705
101608.506
101608.294
101608.07
101607.829
101607.569
101607.286
101606.975
101606.625
101606.227
101605.781
101605.294
101604.758
101604.156
101603.476
101602.697
101601.797
101600.741
101599.518
101598.132
101596.54
101594.455
101591.721
101589.545
101587.455
101584.544
101581.241
101576.694
101571.165
101565.833
101560.443
101555.161
101548.472
101538.919
101611.733
101611.74
101611.747
101611.752
101611.755
101611.756
101611.756
101611.754
101611.751
101611.745
101611.737
101611.728
101611.716
101611.702
101611.686
101611.668
101611.647
101611.624
101611.598
101611.57
101611.539
101611.505
101611.469
101611.429
101611.386
101611.339
101611.29
101611.236
101611.179
101611.118
101611.053
101610.983
101610.909
101610.831
101610.748
101610.66
101610.567
101610.469
101610.366
101610.257
101610.142
101610.022
101609.895
101609.763
101609.624
101609.479
101609.327
101609.168
101609.002
101608.828
101608.643
101608.447
101608.237
101608.009
101607.76
101607.482
101607.168
101606.81
101606.403
101605.935
101605.396
101604.765
101604.027
101603.164
101602.159
101600.996
101599.665
101598.122
101596.293
101593.788
101591.156
101588.489
101585.435
101582.036
101577.984
101572.629
101566.229
101559.52
101552.909
101547.705
101612.078
101612.085
101612.091
101612.097
101612.1
101612.103
101612.104
101612.103
101612.101
101612.098
101612.092
101612.085
101612.077
101612.066
101612.054
101612.04
101612.024
101612.005
101611.985
101611.963
101611.938
101611.911
101611.882
101611.85
101611.816
101611.779
101611.739
101611.696
101611.651
101611.602
101611.55
101611.495
101611.437
101611.376
101611.311
101611.243
101611.171
101611.096
101611.017
101610.935
101610.85
101610.762
101610.67
101610.575
101610.478
101610.377
101610.274
101610.167
101610.058
101609.945
101609.828
101609.703
101609.571
101609.428
101609.271
101609.096
101608.898
101608.669
101608.403
101608.088
101607.714
101607.266
101606.727
101606.081
101605.307
101604.385
101603.293
101602.005
101600.485
101598.714
101596.517
101594.017
101591.166
101587.869
101584.038
101579.578
101574.238
101568.005
101562.015
101556.033
101612.613
101612.619
101612.625
101612.63
101612.634
101612.637
101612.638
101612.639
101612.638
101612.636
101612.633
101612.629
101612.623
101612.616
101612.607
101612.597
101612.586
101612.572
101612.558
101612.542
101612.524
101612.504
101612.482
101612.459
101612.434
101612.407
101612.378
101612.347
101612.314
101612.279
101612.242
101612.203
101612.161
101612.118
101612.073
101612.025
101611.976
101611.926
101611.873
101611.82
101611.765
101611.71
101611.654
101611.598
101611.542
101611.487
101611.433
101611.381
101611.33
101611.281
101611.234
101611.188
101611.141
101611.092
101611.039
101610.978
101610.906
101610.817
101610.704
101610.558
101610.368
101610.122
101609.806
101609.401
101608.889
101608.25
101607.461
101606.493
101605.316
101603.894
101602.186
101600.141
101597.73
101594.887
101591.543
101587.63
101582.929
101577.816
101571.002
101565.004
101613.288
101613.293
101613.298
101613.302
101613.305
101613.308
101613.31
101613.311
101613.311
101613.31
101613.309
101613.306
101613.303
101613.298
101613.293
101613.286
101613.279
101613.271
101613.261
101613.251
101613.239
101613.227
101613.213
101613.198
101613.183
101613.166
101613.147
101613.128
101613.107
101613.085
101613.062
101613.039
101613.014
101612.989
101612.963
101612.937
101612.911
101612.884
101612.858
101612.833
101612.809
101612.787
101612.766
101612.749
101612.736
101612.726
101612.722
101612.724
101612.733
101612.749
101612.772
101612.804
101612.843
101612.889
101612.941
101612.996
101613.051
101613.103
101613.146
101613.172
101613.173
101613.137
101613.051
101612.9
101612.665
101612.327
101611.863
101611.248
101610.452
101609.442
101608.189
101606.654
101604.787
101602.544
101599.845
101596.667
101592.824
101588.354
101582.989
101576.158
101614.06
101614.063
101614.066
101614.069
101614.071
101614.072
101614.074
101614.075
101614.075
101614.075
101614.074
101614.073
101614.072
101614.07
101614.067
101614.064
101614.061
101614.057
101614.053
101614.048
101614.042
101614.036
101614.03
101614.023
101614.015
101614.007
101613.999
101613.991
101613.983
101613.975
101613.967
101613.958
101613.95
101613.942
101613.935
101613.928
101613.923
101613.918
101613.914
101613.916
101613.923
101613.934
101613.95
101613.97
101613.997
101614.031
101614.073
101614.126
101614.189
101614.265
101614.354
101614.458
101614.576
101614.709
101614.857
101615.018
101615.191
101615.372
101615.558
101615.743
101615.919
101616.077
101616.206
101616.292
101616.317
101616.262
101616.107
101615.827
101615.394
101614.777
101613.955
101612.897
101611.563
101609.91
101607.875
101605.408
101602.424
101598.838
101594.529
101589.263
101614.873
101614.874
101614.874
101614.874
101614.874
101614.874
101614.875
101614.875
101614.875
101614.875
101614.874
101614.874
101614.874
101614.873
101614.873
101614.873
101614.872
101614.872
101614.872
101614.871
101614.871
101614.871
101614.87
101614.871
101614.872
101614.873
101614.875
101614.877
101614.879
101614.883
101614.888
101614.894
101614.901
101614.911
101614.924
101614.939
101614.958
101614.982
101615.008
101615.034
101615.063
101615.096
101615.136
101615.181
101615.233
101615.302
101615.392
101615.493
101615.608
101615.737
101615.883
101616.049