/*--------------------------------*- C++ -*----------------------------------*\
  =========                 |
  \\      /  F ield         | OpenFOAM: The Open Source CFD Toolbox
   \\    /   O peration     | Website:  https://openfoam.org
    \\  /    A nd           | Version:  8
     \\/     M anipulation  |
\*---------------------------------------------------------------------------*/
FoamFile
{
    version     2.0;
    format      ascii;
    class       volScalarField;
    location    "0.077";
    object      p_rgh;
}
// * * * * * * * * * * * * * * * * * * * * * * * * * * * * * * * * * * * * * //

dimensions      [1 -1 -2 0 0 0 0];

internalField   nonuniform List<scalar> 
42400
(
101617.52
101617.509
101617.499
101617.49
101617.482
101617.475
101617.469
101617.465
101617.461
101617.459
101617.459
101617.459
101617.461
101617.464
101617.469
101617.475
101617.483
101617.492
101617.503
101617.515
101617.529
101617.545
101617.562
101617.581
101617.602
101617.625
101617.649
101617.675
101617.704
101617.734
101617.767
101617.801
101617.839
101617.878
101617.92
101617.965
101618.019
101618.084
101618.155
101618.224
101618.284
101618.343
101618.406
101618.482
101618.572
101618.67
101618.776
101618.889
101619.008
101619.134
101619.28
101619.446
101619.632
101619.816
101619.996
101620.207
101620.447
101620.707
101620.98
101621.27
101621.578
101621.904
101622.256
101622.633
101623.021
101623.419
101623.821
101624.177
101624.642
101625.037
101624.946
101625.305
101626.279
101625.732
101624.241
101623.06
101624.878
101628.469
101628.386
101629.721
101617.206
101617.198
101617.19
101617.182
101617.176
101617.171
101617.167
101617.164
101617.162
101617.162
101617.162
101617.164
101617.166
101617.171
101617.176
101617.183
101617.191
101617.2
101617.211
101617.223
101617.237
101617.252
101617.269
101617.287
101617.307
101617.328
101617.351
101617.376
101617.402
101617.43
101617.459
101617.49
101617.523
101617.562
101617.609
101617.66
101617.708
101617.748
101617.784
101617.826
101617.878
101617.941
101618.008
101618.079
101618.155
101618.234
101618.315
101618.414
101618.536
101618.65
101618.753
101618.877
101619.024
101619.191
101619.37
101619.562
101619.772
101620.001
101620.256
101620.542
101620.862
101621.21
101621.583
101621.99
101622.443
101622.946
101623.521
101624.067
101624.688
101625.588
101625.98
101626.436
101627.624
101628.266
101629.093
101631.405
101632.808
101633.057
101635.468
101638.764
101616.749
101616.743
101616.737
101616.732
101616.728
101616.724
101616.722
101616.72
101616.72
101616.721
101616.722
101616.725
101616.729
101616.734
101616.74
101616.747
101616.756
101616.766
101616.778
101616.791
101616.805
101616.82
101616.837
101616.855
101616.875
101616.896
101616.919
101616.943
101616.968
101616.996
101617.028
101617.063
101617.101
101617.136
101617.166
101617.194
101617.225
101617.264
101617.31
101617.358
101617.409
101617.461
101617.515
101617.574
101617.649
101617.738
101617.815
101617.878
101617.964
101618.069
101618.182
101618.302
101618.434
101618.58
101618.744
101618.933
101619.15
101619.396
101619.67
101619.977
101620.324
101620.719
101621.164
101621.664
101622.232
101622.868
101623.637
101624.457
101625.326
101626.469
101627.704
101628.559
101630.438
101632.752
101632.734
101632.865
101634.296
101637.097
101639.27
101640.172
101616.178
101616.174
101616.169
101616.165
101616.163
101616.16
101616.159
101616.159
101616.159
101616.161
101616.164
101616.167
101616.172
101616.179
101616.186
101616.195
101616.205
101616.216
101616.229
101616.243
101616.259
101616.276
101616.294
101616.314
101616.335
101616.357
101616.382
101616.409
101616.438
101616.468
101616.495
101616.523
101616.551
101616.582
101616.618
101616.657
101616.698
101616.739
101616.782
101616.825
101616.871
101616.929
101617.002
101617.055
101617.094
101617.16
101617.241
101617.323
101617.408
101617.502
101617.607
101617.728
101617.868
101618.027
101618.209
101618.415
101618.656
101618.937
101619.263
101619.638
101620.07
101620.563
101621.12
101621.743
101622.454
101623.257
101624.199
101625.314
101626.466
101627.763
101629.259
101631.169
101632.508
101633.756
101636.06
101636.636
101637.777
101639.699
101642.056
101643.586
101615.511
101615.507
101615.503
101615.5
101615.498
101615.497
101615.496
101615.496
101615.497
101615.5
101615.503
101615.508
101615.514
101615.522
101615.53
101615.54
101615.552
101615.565
101615.58
101615.596
101615.613
101615.631
101615.651
101615.673
101615.697
101615.723
101615.75
101615.779
101615.808
101615.839
101615.873
101615.909
101615.946
101615.983
101616.022
101616.063
101616.103
101616.145
101616.198
101616.264
101616.309
101616.342
101616.398
101616.465
101616.53
101616.597
101616.671
101616.754
101616.849
101616.955
101617.075
101617.213
101617.373
101617.562
101617.787
101618.053
101618.365
101618.73
101619.153
101619.64
101620.2
101620.842
101621.561
101622.358
101623.213
101624.167
101625.026
101626.062
101627.811
101630.342
101632.173
101633.16
101634.304
101635.701
101637.253
101638.479
101640.051
101642.321
101644.86
101647.157
101614.748
101614.744
101614.74
101614.737
101614.735
101614.734
101614.734
101614.734
101614.736
101614.739
101614.743
101614.749
101614.756
101614.765
101614.775
101614.787
101614.8
101614.814
101614.83
101614.849
101614.871
101614.895
101614.921
101614.948
101614.978
101615.008
101615.041
101615.075
101615.11
101615.147
101615.186
101615.226
101615.268
101615.311
101615.351
101615.4
101615.463
101615.509
101615.543
101615.597
101615.66
101615.72
101615.782
101615.85
101615.924
101616.005
101616.095
101616.195
101616.31
101616.444
101616.601
101616.786
101617.007
101617.269
101617.58
101617.943
101618.366
101618.856
101619.427
101620.075
101620.814
101621.657
101622.591
101623.553
101624.458
101625.874
101628.265
101630.33
101631.534
101632.125
101632.991
101634.553
101636.362
101638.38
101640.28
101642.63
101644.807
101646.57
101647.826
101649.015
101613.882
101613.877
101613.873
101613.87
101613.868
101613.867
101613.867
101613.869
101613.871
101613.876
101613.881
101613.887
101613.895
101613.905
101613.917
101613.932
101613.949
101613.969
101613.99
101614.013
101614.037
101614.064
101614.093
101614.124
101614.158
101614.193
101614.23
101614.27
101614.311
101614.354
101614.399
101614.441
101614.491
101614.555
101614.607
101614.648
101614.703
101614.767
101614.828
101614.891
101614.958
101615.03
101615.108
101615.193
101615.288
101615.395
101615.517
101615.659
101615.825
101616.021
101616.252
101616.527
101616.851
101617.23
101617.67
101618.178
101618.765
101619.427
101620.201
101621.035
101621.957
101622.909
101624.168
101626.168
101628.725
101630.45
101631.186
101632.014
101633.213
101634.659
101636.6
101638.505
101640.324
101642.047
101643.39
101644.7
101646.212
101647.647
101649.762
101651.963
101612.886
101612.881
101612.877
101612.874
101612.873
101612.872
101612.873
101612.876
101612.88
101612.885
101612.893
101612.903
101612.915
101612.929
101612.944
101612.962
101612.981
101613.003
101613.028
101613.055
101613.084
101613.115
101613.149
101613.186
101613.225
101613.266
101613.31
101613.355
101613.399
101613.45
101613.514
101613.568
101613.613
101613.671
101613.737
101613.802
101613.869
101613.939
101614.014
101614.094
101614.181
101614.276
101614.382
101614.502
101614.638
101614.795
101614.978
101615.193
101615.446
101615.745
101616.096
101616.503
101616.975
101617.517
101618.139
101618.842
101619.643
101620.501
101621.518
101622.556
101623.795
101625.932
101628.111
101629.402
101630.337
101631.379
101632.61
101634.138
101635.721
101637.34
101638.528
101639.89
101641.811
101643.708
101645.771
101647.845
101649.553
101650.971
101652.886
101654.959
101611.743
101611.74
101611.737
101611.735
101611.735
101611.736
101611.739
101611.743
101611.75
101611.759
101611.769
101611.782
101611.796
101611.813
101611.832
101611.854
101611.879
101611.906
101611.935
101611.967
101612.002
101612.04
101612.08
101612.123
101612.166
101612.211
101612.263
101612.325
101612.38
101612.429
101612.489
101612.557
101612.624
101612.694
101612.767
101612.845
101612.928
101613.017
101613.114
101613.22
101613.339
101613.472
101613.624
101613.799
101614.002
101614.239
101614.517
101614.843
101615.226
101615.669
101616.18
101616.765
101617.431
101618.181
101619.021
101619.946
101620.967
101622.021
101623.364
101625.535
101627.154
101628.085
101629.12
101630.415
101632.234
101633.744
101634.786
101636.097
101637.407
101638.938
101641.224
101643.211
101644.684
101646.262
101648.012
101649.701
101651.384
101653.348
101655.812
101657.754
101610.427
101610.426
101610.425
101610.426
101610.428
101610.433
101610.439
101610.447
101610.457
101610.469
101610.484
101610.501
101610.52
101610.542
101610.567
101610.594
101610.625
101610.658
101610.694
101610.733
101610.774
101610.817
101610.864
101610.921
101610.98
101611.031
101611.083
101611.145
101611.214
101611.282
101611.354
101611.43
101611.51
101611.594
101611.685
101611.783
101611.89
101612.007
101612.137
101612.283
101612.45
101612.641
101612.863
101613.12
101613.42
101613.769
101614.177
101614.65
101615.194
101615.817
101616.524
101617.326
101618.223
101619.227
101620.336
101621.57
101622.87
101624.433
101625.738
101626.672
101627.997
101629.447
101631.038
101632.753
101633.872
101635.309
101637.03
101638.197
101639.974
101642.318
101643.618
101644.92
101646.943
101649.25
101651.269
101652.762
101654.335
101656.302
101658.265
101659.857
101608.914
101608.915
101608.918
101608.923
101608.93
101608.938
101608.949
101608.962
101608.977
101608.995
101609.015
101609.039
101609.065
101609.094
101609.126
101609.161
101609.199
101609.24
101609.283
101609.331
101609.386
101609.441
101609.494
101609.553
101609.618
101609.687
101609.758
101609.831
101609.909
101609.991
101610.078
101610.17
101610.269
101610.376
101610.492
101610.62
101610.762
101610.922
101611.103
101611.31
101611.548
101611.823
101612.143
101612.512
101612.94
101613.433
101613.996
101614.635
101615.353
101616.155
101617.043
101618.017
101619.071
101620.21
101621.401
101622.687
101624.086
101625.487
101627
101628.483
101629.975
101631.509
101633.032
101634.323
101635.676
101637.104
101638.813
101640.934
101642.278
101643.702
101645.554
101647.377
101649.195
101651.081
101653.04
101655.421
101657.435
101658.989
101660.646
101662.449
101607.174
101607.18
101607.188
101607.198
101607.21
101607.225
101607.242
101607.262
101607.285
101607.31
101607.339
101607.371
101607.405
101607.444
101607.485
101607.53
101607.578
101607.634
101607.689
101607.745
101607.807
101607.874
101607.945
101608.018
101608.095
101608.176
101608.261
101608.352
101608.447
101608.549
101608.658
101608.775
101608.903
101609.043
101609.199
101609.373
101609.571
101609.795
101610.053
101610.349
101610.689
101611.082
101611.532
101612.048
101612.636
101613.299
101614.041
101614.863
101615.766
101616.749
101617.808
101618.935
101620.13
101621.338
101622.559
101623.754
101625.126
101626.754
101628.35
101630.034
101631.788
101633.613
101635.399
101636.657
101638.05
101639.83
101640.982
101642.032
101643.83
101646.022
101648.143
101650.311
101652.139
101654.01
101655.879
101657.053
101658.571
101660.901
101662.942
101664.926
101605.17
101605.182
101605.198
101605.215
101605.235
101605.257
101605.283
101605.312
101605.344
101605.379
101605.418
101605.461
101605.506
101605.556
101605.613
101605.67
101605.729
101605.794
101605.865
101605.938
101606.015
101606.096
101606.182
101606.272
101606.366
101606.466
101606.573
101606.685
101606.806
101606.937
101607.079
101607.234
101607.407
101607.6
101607.817
101608.063
101608.343
101608.664
101609.03
101609.45
101609.929
101610.474
101611.091
101611.785
101612.56
101613.417
101614.36
101615.386
101616.492
101617.672
101618.917
101620.239
101621.647
101623.099
101624.611
101626.435
101628.275
101629.834
101631.258
101632.613
101633.941
101635.45
101637.149
101638.931
101640.253
101641.339
101643.207
101645.512
101647.246
101648.695
101650.101
101651.567
101653.388
101655.586
101657.545
101659.452
101661.467
101663.718
101665.811
101667.583
101602.86
101602.879
101602.903
101602.93
101602.959
101602.992
101603.028
101603.068
101603.112
101603.159
101603.212
101603.269
101603.328
101603.39
101603.459
101603.532
101603.609
101603.69
101603.776
101603.866
101603.961
101604.061
101604.167
101604.279
101604.397
101604.523
101604.658
101604.804
101604.963
101605.137
101605.329
101605.543
101605.782
101606.053
101606.36
101606.708
101607.105
101607.555
101608.065
101608.642
101609.291
101610.016
101610.821
101611.711
101612.683
101613.738
101614.882
101616.132
101617.454
101618.828
101620.245
101621.734
101623.232
101624.671
101626.117
101627.617
101629.393
101631.25
101632.63
101633.872
101635.223
101636.64
101638.236
101640.048
101641.931
101643.798
101645.394
101646.877
101648.534
101650.6
101652.964
101654.836
101656.541
101657.981
101659.965
101662.629
101664.988
101666.864
101668.433
101670.163
101600.196
101600.225
101600.26
101600.298
101600.339
101600.384
101600.433
101600.486
101600.544
101600.605
101600.671
101600.742
101600.818
101600.898
101600.982
101601.072
101601.166
101601.266
101601.371
101601.481
101601.598
101601.722
101601.853
101601.993
101602.143
101602.305
101602.481
101602.674
101602.887
101603.123
101603.388
101603.685
101604.02
101604.399
101604.828
101605.312
101605.857
101606.468
101607.15
101607.907
101608.738
101609.645
101610.623
101611.666
101612.749
101613.833
101614.909
101616.247
101617.95
101619.585
101621.203
101622.791
101624.422
101626.327
101628.413
101630.297
101631.691
101632.833
101634.12
101635.87
101638.009
101639.738
101640.891
101642.217
101644.262
101646.446
101648.467
101650.419
101652.051
101653.475
101654.992
101656.78
101658.755
101661.148
101663.868
101665.532
101666.794
101668.793
101670.977
101672.992
101597.14
101597.18
101597.229
101597.28
101597.335
101597.394
101597.457
101597.525
101597.597
101597.675
101597.757
101597.844
101597.937
101598.035
101598.138
101598.246
101598.361
101598.482
101598.61
101598.745
101598.889
101599.043
101599.208
101599.387
101599.581
101599.794
101600.028
101600.289
101600.581
101600.907
101601.275
101601.69
101602.157
101602.684
101603.275
101603.938
101604.675
101605.493
101606.394
101607.38
101608.452
101609.614
101610.868
101612.218
101613.681
101615.259
101617.147
101618.893
101620.338
101622.03
101623.97
101625.61
101626.893
101628.307
101630.025
101631.717
101633.079
101634.25
101635.868
101637.644
101639.192
101641.405
101644.046
101645.794
101646.998
101648.277
101649.842
101651.857
101653.956
101655.846
101657.931
101659.969
101661.763
101663.362
101664.824
101666.744
101668.884
101670.628
101672.807
101675.283
101593.665
101593.719
101593.783
101593.849
101593.919
101593.993
101594.072
101594.156
101594.245
101594.339
101594.438
101594.543
101594.653
101594.77
101594.893
101595.023
101595.16
101595.306
101595.461
101595.627
101595.806
101596
101596.211
101596.442
101596.698
101596.982
101597.299
101597.655
101598.055
101598.506
101599.014
101599.585
101600.226
101600.943
101601.741
101602.625
101603.598
101604.661
101605.816
101607.061
101608.391
101609.798
101611.27
101612.787
101614.348
101615.956
101617.498
101619.283
101621.333
101622.913
101624.33
101625.756
101627.186
101628.932
101630.73
101632.519
101634.438
101636.524
101638.591
101640.185
101641.523
101642.918
101644.377
101646.397
101648.795
101650.623
101652.211
101653.68
101655.686
101657.91
101660.017
101662.369
101664.884
101667.253
101668.444
101670.298
101673.212
101674.956
101676.702
101678.369
101589.779
101589.848
101589.929
101590.011
101590.097
101590.187
101590.282
101590.382
101590.488
101590.599
101590.715
101590.838
101590.967
101591.104
101591.248
101591.401
101591.564
101591.738
101591.925
101592.128
101592.35
101592.592
101592.86
101593.156
101593.487
101593.856
101594.271
101594.736
101595.257
101595.84
101596.492
101597.216
101598.016
101598.896
101599.858
101600.902
101602.028
101603.232
101604.518
101605.885
101607.331
101608.856
101610.451
101612.149
101613.935
101615.82
101617.629
101619.026
101620.372
101622.404
101624.671
101626.66
101628.93
101630.933
101632.648
101634.36
101636.082
101637.807
101639.434
101641.436
101643.718
101645.521
101647.155
101648.761
101650.431
101652.729
101655.534
101657.859
101659.63
101661.353
101663.489
101665.524
101667.456
101669.269
101671.264
101673.438
101674.564
101675.836
101677.983
101680.478
101585.538
101585.622
101585.72
101585.819
101585.921
101586.027
101586.138
101586.255
101586.377
101586.505
101586.639
101586.781
101586.93
101587.088
101587.257
101587.438
101587.633
101587.844
101588.074
101588.327
101588.606
101588.917
101589.262
101589.65
101590.084
101590.571
101591.117
101591.728
101592.41
101593.169
101594.007
101594.928
101595.935
101597.026
101598.2
101599.453
101600.776
101602.144
101603.573
101605.046
101606.55
101608.146
101609.987
101612.087
101614.213
101616.333
101618.59
101620.902
101622.9
101624.587
101626.224
101628.128
101630.335
101632.553
101634.39
101635.966
101637.643
101639.428
101641.366
101643.278
101645.106
101646.845
101648.818
101651.41
101653.498
101655.006
101656.685
101658.864
101661.444
101663.979
101666.497
101668.746
101670.349
101671.678
101673.514
101675.507
101677.243
101679.206
101681.223
101683.659
101581.035
101581.135
101581.251
101581.367
101581.486
101581.609
101581.738
101581.873
101582.014
101582.163
101582.32
101582.487
101582.665
101582.856
101583.062
101583.286
101583.532
101583.802
101584.102
101584.435
101584.807
101585.224
101585.691
101586.215
101586.803
101587.46
101588.193
101589.006
101589.904
101590.889
101591.964
101593.129
101594.384
101595.727
101597.158
101598.674
101600.264
101601.913
101603.77
101606.242
101609.083
101611.939
101614.34
101616.071
101617.549
101618.965
101620.499
101622.1
101623.547
101625.239
101627.501
101629.459
101630.908
101632.254
101634.288
101637.041
101639.614
101642.094
101644.257
101646.218
101648.382
101650.85
101652.628
101654.007
101655.74
101657.766
101659.863
101661.976
101664.016
101665.978
101667.721
101669.376
101671.407
101673.633
101675.78
101678.006
101679.948
101682.259
101684.195
101686.706
101619.385
101619.387
101619.388
101619.387
101619.385
101619.382
101619.377
101619.37
101619.362
101619.353
101619.341
101619.328
101619.313
101619.297
101619.278
101619.257
101619.235
101619.21
101619.182
101619.153
101619.12
101619.086
101619.048
101619.008
101618.964
101618.917
101618.868
101618.814
101618.757
101618.697
101618.632
101618.564
101618.491
101618.414
101618.332
101618.246
101618.154
101618.057
101617.955
101617.848
101617.735
101617.615
101617.49
101617.358
101617.219
101617.074
101616.92
101616.759
101616.589
101616.411
101616.222
101616.021
101615.805
101615.572
101615.318
101615.039
101614.732
101614.388
101614.002
101613.565
101613.067
101612.497
101611.842
101611.087
101610.215
101609.213
101608.08
101606.832
101605.487
101604.044
101602.473
101600.681
101598.587
101596.164
101593.443
101590.565
101587.601
101584.314
101580.35
101576.517
101617.43
101617.432
101617.433
101617.433
101617.431
101617.427
101617.422
101617.414
101617.405
101617.393
101617.38
101617.365
101617.347
101617.328
101617.306
101617.281
101617.254
101617.225
101617.192
101617.157
101617.119
101617.078
101617.033
101616.985
101616.933
101616.878
101616.819
101616.755
101616.688
101616.616
101616.539
101616.457
101616.37
101616.278
101616.18
101616.076
101615.967
101615.851
101615.729
101615.599
101615.463
101615.318
101615.166
101615.006
101614.837
101614.658
101614.47
101614.271
101614.061
101613.838
101613.601
101613.346
101613.07
101612.769
101612.44
101612.077
101611.672
101611.218
101610.704
101610.119
101609.452
101608.693
101607.833
101606.863
101605.774
101604.555
101603.195
101601.684
101600.021
101598.215
101596.29
101594.208
101591.525
101588.427
101585.993
101583.13
101579.611
101575.439
101570.651
101566.478
101615.729
101615.732
101615.734
101615.734
101615.732
101615.728
101615.722
101615.714
101615.704
101615.692
101615.677
101615.66
101615.641
101615.619
101615.595
101615.567
101615.537
101615.504
101615.468
101615.429
101615.386
101615.34
101615.29
101615.236
101615.178
101615.116
101615.049
101614.978
101614.902
101614.821
101614.735
101614.643
101614.545
101614.441
101614.331
101614.214
101614.09
101613.958
101613.819
101613.672
101613.517
101613.352
101613.179
101612.995
101612.801
101612.596
101612.379
101612.15
101611.907
101611.648
101611.371
101611.072
101610.749
101610.398
101610.014
101609.593
101609.125
101608.603
101608.016
101607.35
101606.592
101605.727
101604.741
101603.623
101602.365
101600.967
101599.424
101597.73
101595.861
101593.787
101591.508
101589.096
101586.399
101583.147
101579.168
101575.182
101570.673
101565.96
101560.979
101556.203
101614.312
101614.316
101614.318
101614.319
101614.318
101614.314
101614.308
101614.3
101614.29
101614.277
101614.262
101614.244
101614.224
101614.201
101614.175
101614.146
101614.114
101614.079
101614.041
101613.999
101613.953
101613.904
101613.851
101613.793
101613.731
101613.665
101613.594
101613.518
101613.436
101613.349
101613.257
101613.158
101613.053
101612.941
101612.822
101612.696
101612.562
101612.421
101612.271
101612.111
101611.942
101611.764
101611.576
101611.376
101611.166
101610.943
101610.707
101610.456
101610.191
101609.907
101609.602
101609.274
101608.918
101608.53
101608.105
101607.636
101607.114
101606.529
101605.869
101605.121
101604.27
101603.302
101602.204
101600.965
101599.574
101598.025
101596.309
101594.414
101592.31
101589.928
101587.134
101583.963
101581.093
101578.214
101574.935
101571.065
101566.124
101560.359
101554.541
101548.479
101613.198
101613.202
101613.206
101613.208
101613.207
101613.204
101613.199
101613.191
101613.181
101613.169
101613.154
101613.136
101613.116
101613.092
101613.066
101613.037
101613.005
101612.969
101612.93
101612.888
101612.841
101612.791
101612.737
101612.678
101612.615
101612.547
101612.475
101612.397
101612.313
101612.224
101612.129
101612.028
101611.92
101611.806
101611.684
101611.554
101611.416
101611.27
101611.114
101610.95
101610.775
101610.59
101610.393
101610.184
101609.963
101609.728
101609.477
101609.211
101608.926
101608.62
101608.292
101607.937
101607.553
101607.137
101606.683
101606.186
101605.639
101605.035
101604.363
101603.61
101602.761
101601.798
101600.704
101599.443
101597.972
101596.268
101594.319
101592.131
101589.722
101587.116
101584.806
101582.413
101578.577
101574.043
101569.45
101564.733
101560.093
101555.198
101548.697
101541.984
101612.395
101612.401
101612.406
101612.408
101612.408
101612.406
101612.402
101612.395
101612.386
101612.375
101612.361
101612.344
101612.325
101612.303
101612.277
101612.249
101612.218
101612.184
101612.146
101612.104
101612.059
101612.01
101611.957
101611.899
101611.838
101611.771
101611.7
101611.624
101611.542
101611.455
101611.361
101611.262
101611.156
101611.044
101610.924
101610.797
101610.662
101610.519
101610.368
101610.208
101610.038
101609.859
101609.669
101609.469
101609.256
101609.031
101608.791
101608.535
101608.265
101607.976
101607.665
101607.327
101606.957
101606.55
101606.098
101605.592
101605.019
101604.366
101603.619
101602.762
101601.781
101600.649
101599.457
101598.251
101596.958
101595.556
101594.037
101592.14
101589.641
101586.708
101583.519
101580.477
101577.423
101573.178
101568.456
101563.988
101558.249
101551.905
101545.481
101538.447
101611.901
101611.908
101611.913
101611.917
101611.918
101611.917
101611.914
101611.909
101611.901
101611.891
101611.879
101611.864
101611.846
101611.826
101611.803
101611.777
101611.748
101611.716
101611.681
101611.643
101611.601
101611.555
101611.505
101611.452
101611.394
101611.332
101611.265
101611.193
101611.117
101611.035
101610.947
101610.854
101610.754
101610.648
101610.535
101610.415
101610.288
101610.153
101610.009
101609.856
101609.695
101609.523
101609.341
101609.148
101608.942
101608.724
101608.491
101608.242
101607.979
101607.7
101607.399
101607.075
101606.725
101606.346
101605.94
101605.509
101605.044
101604.531
101603.961
101603.315
101602.571
101601.73
101600.69
101599.358
101597.767
101595.875
101593.621
101591.67
101590.126
101588.345
101585.177
101581.027
101576.419
101571.643
101566.886
101562.117
101556.981
101550.913
101544.396
101537.29
101611.7
101611.707
101611.713
101611.717
101611.72
101611.72
101611.718
101611.715
101611.709
101611.701
101611.69
101611.678
101611.663
101611.645
101611.625
101611.602
101611.577
101611.549
101611.518
101611.483
101611.446
101611.405
101611.361
101611.313
101611.261
101611.205
101611.145
101611.081
101611.013
101610.939
101610.861
101610.778
101610.689
101610.595
101610.495
101610.389
101610.277
101610.158
101610.033
101609.9
101609.761
101609.614
101609.459
101609.295
101609.123
101608.942
101608.751
101608.55
101608.337
101608.111
101607.867
101607.604
101607.316
101606.998
101606.642
101606.239
101605.785
101605.284
101604.721
101604.095
101603.399
101602.606
101601.694
101600.629
101599.392
101597.983
101596.378
101594.318
101591.634
101589.163
101586.899
101584.038
101580.688
101576.365
101570.994
101565.408
101559.836
101554.123
101546.589
101537.452
101611.767
101611.774
101611.781
101611.786
101611.789
101611.79
101611.79
101611.788
101611.784
101611.778
101611.77
101611.76
101611.748
101611.734
101611.717
101611.698
101611.677
101611.653
101611.627
101611.598
101611.567
101611.532
101611.494
101611.454
101611.41
101611.363
101611.312
101611.257
101611.199
101611.137
101611.07
101610.999
101610.924
101610.844
101610.76
101610.67
101610.575
101610.475
101610.37
101610.259
101610.142
101610.019
101609.89
101609.754
101609.613
101609.464
101609.309
101609.146
101608.976
101608.797
101608.607
101608.405
101608.187
101607.951
101607.693
101607.404
101607.079
101606.709
101606.286
101605.8
101605.241
101604.591
101603.832
101602.946
101601.915
101600.721
101599.351
101597.769
101595.9
101593.453
101590.709
101587.821
101584.6
101581.035
101576.843
101571.486
101565.022
101558.307
101551.867
101546.25
101612.067
101612.074
101612.081
101612.086
101612.089
101612.092
101612.092
101612.092
101612.089
101612.085
101612.08
101612.072
101612.063
101612.052
101612.04
101612.025
101612.008
101611.989
101611.968
101611.945
101611.92
101611.892
101611.862
101611.829
101611.793
101611.755
101611.714
101611.67
101611.623
101611.573
101611.52
101611.463
101611.403
101611.34
101611.273
101611.202
101611.128
101611.05
101610.969
101610.885
101610.796
101610.705
101610.61
101610.511
101610.41
101610.305
101610.197
101610.086
101609.971
101609.853
101609.729
101609.598
101609.458
101609.306
101609.14
101608.954
101608.744
101608.502
101608.221
101607.889
101607.495
101607.026
101606.464
101605.791
101604.988
101604.033
101602.903
101601.572
101600.003
101598.175
101595.941
101593.349
101590.379
101586.957
101583.003
101578.402
101572.952
101566.569
101560.292
101554.038
101612.562
101612.568
101612.575
101612.58
101612.583
101612.586
101612.588
101612.588
101612.587
101612.585
101612.581
101612.576
101612.57
101612.562
101612.553
101612.543
101612.53
101612.517
101612.501
101612.484
101612.465
101612.444
101612.422
101612.397
101612.371
101612.343
101612.312
101612.28
101612.245
101612.209
101612.17
101612.129
101612.085
101612.04
101611.992
101611.943
101611.891
101611.838
101611.783
101611.726
101611.668
101611.609
101611.55
101611.49
101611.43
101611.371
101611.312
101611.254
101611.197
101611.142
101611.089
101611.035
101610.98
101610.923
101610.86
101610.788
101610.704
101610.602
101610.474
101610.311
101610.103
101609.837
101609.497
101609.067
101608.527
101607.857
101607.032
101606.026
101604.806
101603.337
101601.576
101599.472
101596.988
101594.067
101590.648
101586.662
101581.911
101576.729
101569.792
101563.501
101613.205
101613.209
101613.214
101613.218
101613.222
101613.224
101613.226
101613.227
101613.227
101613.226
101613.224
101613.221
101613.217
101613.212
101613.206
101613.199
101613.191
101613.182
101613.171
101613.16
101613.148
101613.134
101613.12
101613.104
101613.087
101613.068
101613.049
101613.027
101613.005
101612.981
101612.957
101612.931
101612.905
101612.878
101612.849
101612.821
101612.792
101612.763
101612.734
101612.706
101612.678
101612.652
101612.628
101612.607
101612.589
101612.575
101612.566
101612.563
101612.566
101612.575
101612.592
101612.617
101612.649
101612.686
101612.728
101612.773
101612.817
101612.857
101612.886
101612.897
101612.881
101612.827
101612.721
101612.547
101612.286
101611.92
101611.425
101610.776
101609.944
101608.895
101607.599
101606.018
101604.1
101601.803
101599.049
101595.815
101591.907
101587.389
101581.988
101575.135
101613.95
101613.953
101613.956
101613.959
101613.961
101613.962
101613.963
101613.964
101613.964
101613.964
101613.963
101613.962
101613.96
101613.957
101613.954
101613.95
101613.946
101613.942
101613.937
101613.931
101613.924
101613.917
101613.91
101613.902
101613.893
101613.884
101613.875
101613.865
101613.856
101613.846
101613.836
101613.826
101613.816
101613.806
101613.796
101613.787
101613.779
101613.771
101613.765
101613.763
101613.767
101613.775
101613.787
101613.804
101613.827
101613.856
101613.894
101613.942
101614
101614.07
101614.153
101614.25
101614.362
101614.487
101614.627
101614.779
101614.942
101615.112
101615.286
101615.458
101615.619
101615.761
101615.872
101615.937
101615.94
101615.861
101615.679
101615.369
101614.904
101614.253
101613.394
101612.296
101610.919
101609.221
101607.14
101604.627
101601.602
101597.976
101593.665
101588.473
101614.743
101614.743
101614.743
101614.743
101614.744
101614.744
101614.744
101614.744
101614.743
101614.743
101614.742
101614.742
101614.741
101614.74
101614.74
101614.739
101614.738
101614.737
101614.736
101614.734
101614.733
101614.732
101614.731
101614.731
101614.731
101614.731
101614.731
101614.732
101614.733
101614.735
101614.738
101614.743
101614.749
101614.757
101614.767
101614.781
101614.798
101614.819
101614.842
101614.866
101614.891
101614.922
101614.958
101615
101615.049
101615.116
101615.201
101615.298
101615.408
101615.532
101615.673
101615.833
101616.012