/*--------------------------------*- C++ -*----------------------------------*\
  =========                 |
  \\      /  F ield         | OpenFOAM: The Open Source CFD Toolbox
   \\    /   O peration     | Website:  https://openfoam.org
    \\  /    A nd           | Version:  8
     \\/     M anipulation  |
\*---------------------------------------------------------------------------*/
FoamFile
{
    version     2.0;
    format      ascii;
    class       surfaceScalarField;
    location    "0.077";
    object      phi;
}
// * * * * * * * * * * * * * * * * * * * * * * * * * * * * * * * * * * * * * //

dimensions      [1 0 -1 0 0 0 0];

internalField   nonuniform List<scalar> 
84340
(
-5.69310202e-08
3.02360235e-07
-2.45466875e-07
-2.25606772e-07
9.22599897e-07
-7.5398513e-07
-5.08850192e-07
1.57877178e-06
-1.29560381e-06
-9.11259508e-07
2.27254473e-06
-1.87022334e-06
-1.43878172e-06
3.00598263e-06
-2.47855933e-06
-2.09826412e-06
3.78102521e-06
-3.12165188e-06
-2.8970292e-06
4.59916829e-06
-3.80052212e-06
-3.8425088e-06
5.46146958e-06
-4.51611882e-06
-4.94194688e-06
6.36865572e-06
-5.26935676e-06
-6.2021694e-06
7.32119948e-06
-6.06112692e-06
-7.62941207e-06
8.31935195e-06
-6.89227074e-06
-9.2291932e-06
9.36315118e-06
-7.7635438e-06
-1.10062197e-05
1.04524327e-05
-8.67559308e-06
-1.2964313e-05
1.15868467e-05
-9.62895445e-06
-1.51063344e-05
1.27658712e-05
-1.06240659e-05
-1.74341189e-05
1.39888339e-05
-1.16612819e-05
-1.99483806e-05
1.52549154e-05
-1.27409037e-05
-2.26486131e-05
1.65631505e-05
-1.38631868e-05
-2.55329561e-05
1.79124204e-05
-1.50283665e-05
-2.85980386e-05
1.93014313e-05
-1.62366598e-05
-3.18387923e-05
2.07286857e-05
-1.74882668e-05
-3.52482309e-05
2.2192444e-05
-1.87833658e-05
-3.88171911e-05
2.36906701e-05
-2.01220981e-05
-4.25340454e-05
2.52209764e-05
-2.15045404e-05
-4.63843613e-05
2.67805408e-05
-2.29306761e-05
-5.0350522e-05
2.83660185e-05
-2.44003447e-05
-5.44112939e-05
2.99734146e-05
-2.59131685e-05
-5.85413083e-05
3.15979235e-05
-2.74684772e-05
-6.27104575e-05
3.32337184e-05
-2.90651836e-05
-6.6883269e-05
3.48737875e-05
-3.07016406e-05
-7.10184977e-05
3.65099485e-05
-3.23754392e-05
-7.50688985e-05
3.81327261e-05
-3.40831035e-05
-7.89805983e-05
3.97306201e-05
-3.5819762e-05
-8.2692048e-05
4.12896009e-05
-3.75790652e-05
-8.61282998e-05
4.27886732e-05
-3.93534165e-05
-8.9207431e-05
4.42118192e-05
-4.11337496e-05
-9.18442251e-05
4.55424153e-05
-4.29067512e-05
-9.39587356e-05
4.67576827e-05
-4.4644403e-05
-9.54275168e-05
4.77994527e-05
-4.63320037e-05
-9.60792589e-05
4.86053185e-05
-4.7955011e-05
-9.57165889e-05
4.91243011e-05
-4.94885154e-05
-9.41243003e-05
4.92802016e-05
-5.08741388e-05
-9.10695662e-05
4.89937104e-05
-5.20502129e-05
-8.6304401e-05
4.81655919e-05
-5.2932651e-05
-7.95455078e-05
4.66913536e-05
-5.34522594e-05
-7.04749968e-05
4.44530335e-05
-5.35256712e-05
-5.87406131e-05
4.13073592e-05
-5.30439848e-05
-4.3923205e-05
3.70543986e-05
-5.18741597e-05
-2.55934708e-05
3.15421105e-05
-4.98743136e-05
-3.42719066e-06
2.47348077e-05
-4.69036789e-05
2.33643456e-05
1.59562701e-05
-4.27505501e-05
5.56171529e-05
5.02717459e-06
-3.72828562e-05
9.42262705e-05
-8.45288193e-06
-3.01592762e-05
0.00014024699
-2.46142028e-05
-2.14098619e-05
0.000194913485
-4.45115004e-05
-1.01587739e-05
0.000259559003
-6.84610776e-05
3.81124552e-06
0.000335724792
-9.69892429e-05
2.08183926e-05
0.000425169082
-0.000130817506
4.1367126e-05
0.000529262562
-0.000170743409
6.6642435e-05
0.000649974466
-0.000217571277
9.68500101e-05
0.000789426721
-0.000272135324
0.000132671292
0.000949662353
-0.000335302759
0.000175052431
0.00113273798
-0.000408015348
0.000224921471
0.00134064028
-0.000491163198
0.000283238521
0.00157519184
-0.000585534104
0.00035095735
0.0018385039
-0.000692649284
0.000429310628
0.00213181667
-0.000811577889
0.000518237587
0.00245088179
-0.000937698259
0.000618605361
0.00280313709
-0.00109344507
0.000741162645
0.00320781282
-0.001258209
0.000853507173
0.00360770684
-0.00136582022
0.000965902447
0.00397068591
-0.00157791145
0.0012149117
0.00449752527
-0.00190079629
0.00137394016
0.00515025073
-0.00197095574
0.00131821795
0.00558228058
-0.00201647636
0.00158443962
0.00582681351
-0.00236107772
0.00211654336
0.00619803368
-0.00274590277
0.00237468663
0.00685602629
-0.00290424867
0.00224626509
0.00740770717
-0.0029082045
0.00235654657
-0.00303901006
0.00281067366
0.00763606664
-4.53907385e-08
3.47701814e-07
-1.79503858e-07
1.05664151e-06
-4.04240467e-07
1.80342488e-06
-7.23054355e-07
2.59126423e-06
-1.1405052e-06
3.42332895e-06
-1.66187619e-06
4.30228182e-06
-2.29290856e-06
5.2300763e-06
-3.03938471e-06
6.20781093e-06
-3.90684204e-06
7.23596714e-06
-4.90034186e-06
8.31454142e-06
-6.02428402e-06
9.44312329e-06
-7.28225937e-06
1.06209416e-05
-8.67692677e-06
1.18469e-05
-1.02099028e-05
1.31196061e-05
-1.18816625e-05
1.44373963e-05
-1.36914196e-05
1.5798337e-05
-1.56370036e-05
1.72002246e-05
-1.77147108e-05
1.86405601e-05
-1.9919124e-05
2.01165118e-05
-2.22429082e-05
2.16248675e-05
-2.46765684e-05
2.31619699e-05
-2.72081638e-05
2.47236333e-05
-2.98229869e-05
2.6305055e-05
-3.250318e-05
2.7900697e-05
-3.52272902e-05
2.95041419e-05
-3.79697708e-05
3.11079512e-05
-4.0700452e-05
3.27035067e-05
-4.33840296e-05
3.42808686e-05
-4.5979506e-05
3.58285169e-05
-4.84387924e-05
3.7332347e-05
-5.07075694e-05
3.87779473e-05
-5.27240409e-05
4.01483711e-05
-5.44192066e-05
4.14249128e-05
-5.57212863e-05
4.259075e-05
-5.65475994e-05
4.36139954e-05
-5.67819252e-05
4.44451006e-05
-5.62743886e-05
4.5033776e-05
-5.48472629e-05
4.53293921e-05
-5.23128806e-05
4.52638468e-05
-4.84737403e-05
4.47648903e-05
-4.30971534e-05
4.37463648e-05
-3.59380703e-05
4.21197131e-05
-2.67104089e-05
3.97645917e-05
-1.50863875e-05
3.65400633e-05
-7.40822882e-07
3.23442366e-05
1.67524709e-05
2.69581432e-05
3.76556505e-05
2.04025371e-05
6.27209921e-05
1.19873837e-05
9.26718998e-05
1.58949525e-06
0.000128340579
-1.09356625e-05
0.000170671188
-2.63762439e-05
0.00022074772
-4.50514067e-05
0.000279687411
-6.73948311e-05
0.000349016037
-9.39453874e-05
0.00042989223
-0.000125390684
0.000523863235
-0.000162435678
0.000632684685
-0.000205815136
0.000758160052
-0.000256298439
0.000902111294
-0.00031470164
0.00106638652
-0.000381855316
0.00125277005
-0.000458529941
0.00146291733
-0.000545463583
0.00169810193
-0.000643215263
0.00195948436
-0.000752562111
0.00224765104
-0.000873718161
0.00256286759
-0.00100788403
0.00290757303
-0.00115630186
0.00327644647
-0.00130659037
0.00365442649
-0.00147144302
0.00407323315
-0.00167703257
0.00454796421
-0.00184056607
0.00493730159
-0.00196726122
0.00527953994
-0.0022430435
0.0058186893
-0.00251011009
0.00638501311
-0.00258280083
0.00670562591
-0.00268168763
0.00683929608
-0.00287956591
0.00700159615
-0.00306653735
0.00729707874
-0.0032036769
-0.00331760493
0.00757568458
-3.42946163e-08
3.81901828e-07
-1.35099335e-07
1.1573101e-06
-3.03349982e-07
1.97151749e-06
-5.41207642e-07
2.82894393e-06
-8.51777083e-07
3.73370194e-06
-1.23876243e-06
4.68905288e-06
-1.70596062e-06
5.69704242e-06
-2.25710188e-06
6.75870189e-06
-2.89560839e-06
7.87420432e-06
-3.62431143e-06
9.04295503e-06
-4.44525418e-06
1.02637553e-05
-5.35952611e-06
1.15348801e-05
-6.36711877e-06
1.2854135e-05
-7.46678927e-06
1.42188931e-05
-8.65592145e-06
1.56261175e-05
-9.93038064e-06
1.70723558e-05
-1.12843401e-05
1.85537123e-05
-1.27100897e-05
2.00658046e-05
-1.41978059e-05
2.16036872e-05
-1.5735285e-05
2.31617676e-05
-1.73076215e-05
2.47336868e-05
-1.88968063e-05
2.6312155e-05
-2.0481261e-05
2.78888004e-05
-2.20353415e-05
2.94540189e-05
-2.35288307e-05
3.09968203e-05
-2.49267153e-05
3.25049686e-05
-2.61891574e-05
3.3965021e-05
-2.72710411e-05
3.53617624e-05
-2.81222012e-05
3.66786259e-05
-2.86879116e-05
3.78969368e-05
-2.89027601e-05
3.89915987e-05
-2.86813888e-05
3.99257249e-05
-2.79219885e-05
4.06641581e-05
-2.64950567e-05
4.11623774e-05
-2.42528358e-05
4.13702439e-05
-2.10371132e-05
4.1227754e-05
-1.66709843e-05
4.06659211e-05
-1.09485923e-05
3.96051691e-05
-3.65436423e-06
3.79676876e-05
5.46361818e-06
3.5644875e-05
1.66945249e-05
3.2513325e-05
3.034256e-05
2.84694472e-05
4.67880649e-05
2.33167653e-05
6.62224209e-05
1.71032872e-05
8.93921632e-05
9.17201659e-06
0.000116942833
-5.95050586e-07
0.000149607049
-1.22643025e-05
0.000188236249
-2.66445522e-05
0.000233786253
-4.39633345e-05
0.000287467371
-6.46197113e-05
0.00035023722
-8.91491435e-05
0.000423321052
-0.000118138455
0.00050813844
-0.000152215654
0.000606240155
-0.000192050858
0.000719232575
-0.000238387276
0.000848795441
-0.000292003257
0.00099658421
-0.000353609306
0.00116424445
-0.00042396503
0.00135337633
-0.000503841107
0.00156541726
-0.000593905075
0.0018015845
-0.000694706827
0.00206265271
-0.000806542085
0.00234856404
-0.000929137453
0.00265858653
-0.00106259614
0.00299150837
-0.00120665198
0.00334401906
-0.00136040719
0.00371482629
-0.0015271216
0.00410728768
-0.0016990642
0.00449770495
-0.00186187191
0.00486827882
-0.00204761713
0.00528203652
-0.00225433248
0.00571389523
-0.00239912635
0.00600654796
-0.0025357
0.00622642836
-0.00272999168
0.00651989772
-0.00287626787
0.00683228164
-0.00299406678
0.00703280809
-0.00308008652
0.00714960375
-0.00318332521
0.00724961538
-0.00330368117
-0.00342251167
0.00735452589
-2.66388103e-08
4.08472777e-07
-1.04302917e-07
1.23487802e-06
-2.329666e-07
2.1000705e-06
-4.13477775e-07
3.00933096e-06
-6.47382467e-07
3.96746957e-06
-9.36612714e-07
4.97813317e-06
-1.2830569e-06
6.0433233e-06
-1.68824167e-06
7.1637092e-06
-2.1529788e-06
8.33874878e-06
-2.67738072e-06
9.56714778e-06
-3.2606185e-06
1.0846766e-05
-3.90070134e-06
1.21747163e-05
-4.59430265e-06
1.35474684e-05
-5.33659849e-06
1.49608979e-05
-6.12109481e-06
1.64102977e-05
-6.93942992e-06
1.78903476e-05
-7.78114626e-06
1.93950561e-05
-8.63338978e-06
2.09176441e-05
-9.48056884e-06
2.24504284e-05
-1.03039965e-05
2.39847214e-05
-1.10815808e-05
2.55107586e-05
-1.17879935e-05
2.70180141e-05
-1.23942373e-05
2.84944465e-05
-1.28674312e-05
2.99265703e-05
-1.3170516e-05
3.12992157e-05
-1.32583721e-05
3.25920855e-05
-1.30767372e-05
3.37825954e-05
-1.25620101e-05
3.48461897e-05
-1.16389665e-05
3.57546814e-05
-1.02164378e-05
3.6473449e-05
-8.18802828e-06
3.69621703e-05
-5.4362734e-06
3.71728921e-05
-1.82361235e-06
3.70503579e-05
2.80809461e-06
3.65294665e-05
8.63563629e-06
3.5541437e-05
1.58532352e-05
3.40088298e-05
2.46876974e-05
3.1830078e-05
3.53908078e-05
2.89006226e-05
4.82391168e-05
2.51178948e-05
6.35696994e-05
2.03127645e-05
8.1580018e-05
1.45014364e-05
0.000102940949
7.10692955e-06
0.000128221764
-1.96562908e-06
0.000158067766
-1.27443291e-05
0.000193295721
-2.60575834e-05
0.000234716759
-4.20177444e-05
0.000283453219
-6.1002419e-05
0.000340319271
-8.35122685e-05
0.000406419318
-0.00011006505
0.000483027327
-0.000141229417
0.000571510203
-0.000177633761
0.000673325674
-0.000219955753
0.000789971852
-0.000268863774
0.000922993081
-0.000325074218
0.00107390878
-0.000389305367
0.00124416129
-0.000462258579
0.00143518577
-0.000544637157
0.00164818986
-0.000636973092
0.00188400081
-0.000739656489
0.0021429513
-0.00085286046
0.00242477235
-0.00097653323
0.00272856014
-0.00111033578
0.00305215945
-0.00125274316
0.00339203119
-0.00140247484
0.00374413365
-0.00155876175
0.00410373333
-0.00172001455
0.00446093427
-0.00188433015
0.00481828722
-0.00205642462
0.00517378878
-0.00221738011
0.00549113752
-0.00236497137
0.00576082045
-0.00252401909
0.00603295206
-0.00267126064
0.00627638806
-0.00277913662
0.0064225806
-0.00287618286
0.00653053886
-0.00298422288
0.00664380749
-0.00310732994
0.00678674215
-0.00322301502
0.00692538412
-0.0033219623
0.00704053067
-0.00341882325
-0.00352014817
0.00713816909
-2.36076331e-08
4.31965401e-07
-9.16252314e-08
1.30273403e-06
-2.03078893e-07
2.21133934e-06
-3.57535506e-07
3.16358133e-06
-5.54856877e-07
4.1645646e-06
-7.94891558e-07
5.21792191e-06
-1.07731569e-06
6.32548178e-06
-1.40117859e-06
7.48728604e-06
-1.764676e-06
8.70193872e-06
-2.16473838e-06
9.9668801e-06
-2.5968099e-06
1.12784835e-05
-3.05504093e-06
1.26325678e-05
-3.53188203e-06
1.40239027e-05
-4.01785934e-06
1.54464393e-05
-4.50134304e-06
1.68933145e-05
-4.96831407e-06
1.83568187e-05
-5.40213518e-06
1.9828342e-05
-5.78342476e-06
2.12983605e-05
-6.08976658e-06
2.27561565e-05
-6.29469425e-06
2.41889934e-05
-6.36683787e-06
2.55822023e-05
-6.26985816e-06
2.69202859e-05
-5.96160425e-06
2.81853931e-05
-5.39280463e-06
2.93569177e-05
-4.50566942e-06
3.04111705e-05
-3.23482412e-06
3.13202683e-05
-1.5043947e-06
3.20511297e-05
7.75249304e-07
3.25654422e-05
3.71008828e-06
3.28186667e-05
7.42341594e-06
3.27588669e-05
1.20531855e-05
3.23310664e-05
1.77511444e-05
3.14735164e-05
2.46919236e-05
3.01080774e-05
3.30749408e-05
2.81448602e-05
4.31223989e-05
2.54923012e-05
5.51100599e-05
2.20194022e-05
6.9339751e-05
1.75985319e-05
8.60057701e-05
1.22326518e-05
0.000105694809
5.4268426e-06
0.000128911357
-2.90584713e-06
0.000156230695
-1.28200588e-05
0.000188369999
-2.50346366e-05
0.00022606359
-3.96615514e-05
0.000270349225
-5.70323658e-05
0.000321886215
-7.75970306e-05
0.000381686183
-0.000101820226
0.000450900002
-0.000130218794
0.000530744704
-0.00016335958
0.000622515832
-0.000201838822
0.000727578353
-0.000246294615
0.000847326851
-0.00029738495
0.000983144978
-0.000355776615
0.00113641084
-0.000422132422
0.00130839515
-0.000497061436
0.00150021608
-0.000581129381
0.00171270766
-0.000674753399
0.00194628169
-0.000778214411
0.002200831
-0.000891525655
0.00247557641
-0.00101440521
0.00276890088
-0.00114618842
0.00307847869
-0.0012861147
0.00340116298
-0.00143302402
0.00373304678
-0.00158463113
0.00406820407
-0.00173763658
0.00439943056
-0.00188999279
0.00472387473
-0.00204446338
0.00503080806
-0.00219126775
0.00530662768
-0.00233224788
0.0055522262
-0.00246298123
0.00576697275
-0.0025797199
0.00592790898
-0.00268495622
0.006044976
-0.00278832724
0.00615906924
-0.00289322784
0.00627969501
-0.00299680434
0.00638876461
-0.00309328738
0.00646925266
-0.00318781291
0.00655048063
-0.00330423706
0.00664795873
-0.00341943597
0.00676062591
-0.00353148762
-0.00363450234
0.00687498028
-2.4143448e-08
4.56043445e-07
-9.30889993e-08
1.37158815e-06
-2.04838281e-07
2.32298422e-06
-3.57532471e-07
3.3161588e-06
-5.49198478e-07
4.35610183e-06
-7.77421379e-07
5.44600382e-06
-1.0390201e-06
6.5869267e-06
-1.32987204e-06
7.77797041e-06
-1.64469835e-06
9.0165825e-06
-1.97657937e-06
1.02985621e-05
-2.31689751e-06
1.16185846e-05
-2.65474928e-06
1.29701829e-05
-2.97694087e-06
1.43458362e-05
-3.26779012e-06
1.5737007e-05
-3.50882727e-06
1.71340446e-05
-3.6784158e-06
1.85260729e-05
-3.75119213e-06
1.99007549e-05
-3.69782348e-06
2.12445959e-05
-3.48452674e-06
2.25424286e-05
-3.0726907e-06
2.37766896e-05
-2.41825426e-06
2.49272595e-05
-1.46965353e-06
2.5971137e-05
-1.66366273e-07
2.68815139e-05
1.56268707e-06
2.76272248e-05
3.80079292e-06
2.81723743e-05
6.64163804e-06
2.84786803e-05
1.01906305e-05
2.85013403e-05
1.45683019e-05
2.81869174e-05
1.99124901e-05
2.7473567e-05
2.63798122e-05
2.62905733e-05
3.41525193e-05
2.45573278e-05
4.34423558e-05
2.21825866e-05
5.44998943e-05
1.90493862e-05
6.76125062e-05
1.50310333e-05
8.29809763e-05
1.01225538e-05
0.00010108996
3.90909816e-06
0.00012237951
-3.69236994e-06
0.000147369345
-1.27585953e-05
0.000176692457
-2.38977406e-05
0.000211011611
-3.72265158e-05
0.000251238428
-5.30484234e-05
0.000297964184
-7.17619714e-05
0.000352082694
-9.37816583e-05
0.000414615387
-0.000119566673
0.000486642913
-0.000149626175
0.000569327118
-0.000184506053
0.000663892298
-0.000224785575
0.000771601475
-0.000271070338
0.00089373789
-0.000323976779
0.00103155134
-0.000384109582
0.00118620702
-0.000452042122
0.00135871535
-0.000528286433
0.0015498503
-0.000613268875
0.00176005484
-0.000707267488
0.00198930733
-0.000810383322
0.00223700386
-0.000922451364
0.00250190134
-0.00104311329
0.00278195798
-0.00117158377
0.00307443884
-0.00130688759
0.00337541998
-0.00144717124
0.0036810323
-0.00159172881
0.00398564303
-0.00173763675
0.0042860873
-0.00188507751
0.0045754977
-0.00202704922
0.00484502974
-0.00215952686
0.00508326759
-0.00228270303
0.00528775688
-0.00239575842
0.00545403817
-0.00249853014
0.00558856981
-0.00259751312
0.00570629449
-0.00269744404
0.00581361631
-0.00279227643
0.00591226442
-0.00288697271
0.00599873348
-0.00297969372
0.0060834746
-0.0030815413
0.00617432772
-0.00318413564
0.00626521525
-0.00327869573
0.00634005151
-0.00337906904
0.00640809679
-0.00348747637
0.00647760572
-0.00360099359
-0.00372413726
0.00656724011
-2.63556844e-08
4.82300626e-07
-1.00625269e-07
1.44572156e-06
-2.19409526e-07
2.44161427e-06
-3.79051059e-07
3.47562925e-06
-5.75296665e-07
4.55216026e-06
-8.02943894e-07
5.67344799e-06
-1.0554971e-06
6.8392607e-06
-1.32484665e-06
8.04708401e-06
-1.6009737e-06
9.29245596e-06
-1.87192983e-06
1.05692457e-05
-2.12347035e-06
1.18698324e-05
-2.3383516e-06
1.318475e-05
-2.49632325e-06
1.45034703e-05
-2.57377999e-06
1.58141009e-05
-2.5431647e-06
1.71030397e-05
-2.3725382e-06
1.83550287e-05
-2.02524123e-06
1.95530102e-05
-1.4589396e-06
2.06778132e-05
-6.24174419e-07
2.17071465e-05
5.35842144e-07
2.2616118e-05
2.08559966e-06
2.33769067e-05
4.09936644e-06
2.39567316e-05
6.66178033e-06
2.43184146e-05
9.86939962e-06
2.44188698e-05
1.38322723e-05
2.42087128e-05
1.86791747e-05
2.36309321e-05
2.45588572e-05
2.26207521e-05
3.1640987e-05
2.11038178e-05
4.01175938e-05
1.89959234e-05
5.02140655e-05
1.61929942e-05
6.2190693e-05
1.25795175e-05
7.6245568e-05
8.1264467e-06
9.28019748e-05
2.49164778e-06
0.000112251982
-4.42037314e-06
0.000135057097
-1.26840538e-05
0.000161744504
-2.27799023e-05
0.000192908621
-3.48581716e-05
0.000229350805
-4.920256e-05
0.000271610984
-6.61597913e-05
0.000320479119
-8.60966202e-05
0.000376853114
-0.000109424479
0.000441687463
-0.000136598478
0.000516013047
-0.000168109488
0.000600926149
-0.000204482101
0.000697561873
-0.00024626428
0.000807069942
-0.00029401656
0.000930580182
-0.000348298283
0.00106915448
-0.00040964714
0.00122372832
-0.000478553122
0.00139504291
-0.000555426707
0.00158356033
-0.000640562092
0.001789371
-0.000734099624
0.00201206577
-0.00083596597
0.00225064704
-0.000945850864
0.00250345909
-0.00106319725
0.00276804501
-0.00118703902
0.00304129867
-0.00131636853
0.00331927936
-0.00144956597
0.00359793695
-0.00158554661
0.00387149878
-0.00172073449
0.00413683013
-0.00185706152
0.00438759672
-0.00198840466
0.00461415217
-0.00211163403
0.004810603
-0.00222350092
0.00497691646
-0.00232584087
0.00511194535
-0.00241773228
0.00522595871
-0.0025097716
0.00532995949
-0.00260253022
0.00542333286
-0.0026908852
0.00550640036
-0.00278050982
0.0055867197
-0.00287259318
0.00566189278
-0.00296214223
0.00573536784
-0.0030531649
0.00580369556
-0.0031498644
0.00587383344
-0.00325426738
0.00595507191
-0.00335992893
0.0060424567
-0.00346644972
0.00613084314
-0.00357585979
0.00621134002
-0.00368148976
-0.00380109277
0.00628829382
-2.67063523e-08
5.0896377e-07
-1.00729738e-07
1.51968661e-06
-2.1687988e-07
2.55769921e-06
-3.69151925e-07
3.62782915e-06
-5.50377093e-07
4.73330614e-06
-7.51841014e-07
5.87482504e-06
-9.62919748e-07
7.05024434e-06
-1.17073594e-06
8.25479606e-06
-1.35977548e-06
9.48138133e-06
-1.51152593e-06
1.07208708e-05
-1.60408893e-06
1.19622576e-05
-1.61206976e-06
1.31925792e-05
-1.50579211e-06
1.43970257e-05
-1.25068306e-06
1.5558808e-05
-8.06766878e-07
1.66589212e-05
-1.28230386e-07
1.76762697e-05
8.37521362e-07
1.85870138e-05
2.15087051e-06
1.93641952e-05
3.88036388e-06
1.99773583e-05
6.10491417e-06
2.03912445e-05
8.91515543e-06
2.05663115e-05
1.24149124e-05
2.04565875e-05
1.67232253e-05
2.00096795e-05
2.19762941e-05
1.91653409e-05
2.8329875e-05
1.78546318e-05
3.59580489e-05
1.60022154e-05
4.5063441e-05
1.35147728e-05
5.58776258e-05
1.02889976e-05
6.85968668e-05
6.27599617e-06
8.35914869e-05
1.19764219e-06
0.000101213522
-5.04329407e-06
0.000121864243
-1.25251101e-05
0.000146002149
-2.1647155e-05
0.000174135828
-3.25550081e-05
0.000206956767
-4.55060061e-05
0.000244981167
-6.08053781e-05
0.000288904592
-7.87827301e-05
0.000339506172
-9.98053358e-05
0.000397623377
-0.000124278251
0.000464164763
-0.000152639324
0.000540095738
-0.000185356823
0.000626419819
-0.000222923978
0.000724157445
-0.000265848569
0.000834315597
-0.000314641751
0.000957851175
-0.000369801378
0.00109562398
-0.000431790918
0.00124833804
-0.000501013902
0.00141647263
-0.000577783321
0.00160020349
-0.00066228558
0.001799324
-0.000754548823
0.00201312748
-0.000854367083
0.00224031671
-0.000961290245
0.00247895495
-0.00107460542
0.00272640815
-0.00119330516
0.00297938099
-0.00131617102
0.00323389538
-0.00144155425
0.00348563394
-0.00156810776
0.00372968254
-0.00169361518
0.00396251872
-0.00181838325
0.00417906535
-0.00193728149
0.00437007582
-0.00204807217
0.00453104409
-0.00214937302
0.00466340347
-0.00224399325
0.00477376366
-0.00233386076
0.00486981705
-0.00242189327
0.00496075586
-0.00250866971
0.00504180059
-0.00259081485
0.00511316191
-0.00267388925
0.00518191236
-0.00275963267
0.00524551415
-0.00284410819
0.00530987301
-0.00293694758
0.00538015725
-0.00303242231
0.00545503835
-0.00312804202
0.00552870212
-0.00322352408
0.00559732803
-0.00332288938
0.00566325239
-0.0034258501
0.00572926736
-0.0035324614
0.0057955672
-0.00364215756
0.00587070105
-0.00375662356
-0.00387472649
0.00594433231
-2.33668608e-08
5.32271346e-07
-8.53456276e-08
1.58158553e-06
-1.78104611e-07
2.65036924e-06
-2.92415141e-07
3.74204192e-06
-4.17205753e-07
4.85799036e-06
-5.39111798e-07
5.99661598e-06
-6.42035367e-07
7.15304377e-06
-7.06720291e-07
8.31934736e-06
-7.10281663e-07
9.48479905e-06
-6.25736188e-07
1.06361708e-05
-4.21461898e-07
1.17578172e-05
-6.06844751e-08
1.28316231e-05
4.98981861e-07
1.38371673e-05
1.30620372e-06
1.47513794e-05
2.41661583e-06
1.55482866e-05
3.89391225e-06
1.61987337e-05
5.8110407e-06
1.66696274e-05
8.2513751e-06
1.69235829e-05
1.13101692e-05
1.69182642e-05
1.50961941e-05
1.66048959e-05
1.97336375e-05
1.59285186e-05
2.53637269e-05
1.48261204e-05
3.21489228e-05
1.32240757e-05
4.02765889e-05
1.10372339e-05
4.99235018e-05
8.20724154e-06
6.13132412e-05
4.61195821e-06
7.47589988e-05
6.84593916e-08
9.05651397e-05
-5.51773999e-06
0.000109085049
-1.2244561e-05
0.00013072159
-2.04396042e-05
0.000155920454
-3.02429204e-05
0.000185275893
-4.18813755e-05
0.000219252694
-5.56248488e-05
0.000258463393
-7.17666724e-05
0.000303588704
-9.06323585e-05
0.000355362843
-0.000112580642
0.000414579421
-0.000138000522
0.000482081859
-0.000167309079
0.000558749697
-0.000200947482
0.000645481377
-0.000239372492
0.000743170468
-0.000283047489
0.000852673745
-0.000332428927
0.000974772323
-0.000387948903
0.00111012244
-0.000449993725
0.00125919759
-0.000518878449
0.00142222268
-0.000594818031
0.00159910328
-0.000677896593
0.00178935505
-0.000768037291
0.00199203362
-0.000864966327
0.00220564051
-0.00096815777
0.00242808261
-0.00107681105
0.00265664094
-0.00118985031
0.00288800523
-0.00130597122
0.00311839291
-0.0014236942
0.00334366731
-0.00154144654
0.0035596486
-0.00165753649
0.00376211711
-0.00177057697
0.00394761086
-0.00187910941
0.00410915263
-0.00197992516
0.00424538864
-0.00207351743
0.00435687865
-0.00215956175
0.00445066503
-0.00224315878
0.00453341113
-0.00232673834
0.00461126262
-0.00241171102
0.00468264983
-0.00249327889
0.00474612593
-0.00257214328
0.00480907925
-0.00265376519
0.00486795822
-0.00273276465
0.00492358608
-0.00281525635
0.00498338462
-0.00290390371
0.00504058198
-0.00299414144
0.00509388253
-0.00308571868
0.00514946059
-0.00318361517
0.00521132425
-0.00328538272
0.00528116343
-0.00339272444
0.00535575182
-0.00350043458
0.00542865937
-0.00360536584
0.00549839197
-0.00371188866
0.00556703379
-0.00382526472
-0.00393932005
0.00563162618
-1.47798722e-08
5.47048896e-07
-4.83856899e-08
1.61519142e-06
-8.9181449e-08
2.6911673e-06
-1.23357271e-07
3.77622147e-06
-1.34404186e-07
4.86904169e-06
-1.02576234e-07
5.96479249e-06
-4.3645677e-09
7.05483607e-06
1.88051502e-07
8.1269342e-06
5.07307141e-07
9.16554473e-06
9.91372844e-07
1.01521043e-05
1.68415352e-06
1.10650328e-05
2.63609403e-06
1.18796755e-05
3.90511607e-06
1.25681339e-05
5.55738388e-06
1.30990952e-05
7.66861595e-06
1.34370322e-05
1.03251893e-05
1.35421311e-05
1.3625563e-05
1.33692166e-05
1.76817623e-05
1.28673373e-05
2.26213192e-05
1.19786508e-05
2.85896617e-05
1.0636485e-05
3.57508004e-05
8.76729837e-06
4.42670848e-05
6.30973968e-06
5.4367822e-05
3.12322668e-06
6.62979216e-05
-8.92994276e-07
8.03279224e-05
-5.8229068e-06
9.67733296e-05
-1.1833619e-05
0.0001159861
-1.91445046e-05
0.000138359218
-2.78910769e-05
0.000164397523
-3.82831122e-05
0.000194515707
-5.05580637e-05
0.000229247093
-6.4974615e-05
0.00026918544
-8.18200651e-05
0.000314971128
-0.000101410916
0.000367295166
-0.000124091131
0.000426892761
-0.000150230415
0.000494532943
-0.000180221331
0.000571004688
-0.000214472816
0.000657097776
-0.000253402766
0.000753576835
-0.000297427186
0.000861149581
-0.000346945937
0.000980426334
-0.000402324988
0.00111187178
-0.000463875176
0.00125574942
-0.000531827404
0.00141205996
-0.000606305189
0.0015804762
-0.000687295663
0.00176027877
-0.00077462167
0.00195030515
-0.000867924074
0.00214889342
-0.000966626683
0.00235384805
-0.001069922
0.00256245026
-0.00117676098
0.00277150023
-0.00128586191
0.00297739495
-0.00139574582
0.00317628768
-0.00150486454
0.00336439886
-0.00161180582
0.00353815686
-0.00171520472
0.00369504098
-0.00181442056
0.00383236511
-0.00190790069
0.00394838142
-0.00199512495
0.00404408266
-0.00207562513
0.00412588909
-0.00215532216
0.00420130233
-0.00223497277
0.00427168546
-0.00231353988
0.00433458268
-0.00238963295
0.00439076246
-0.00246788666
0.00444513663
-0.00254764915
0.00450023401
-0.00262723717
0.00455198896
-0.00270551481
0.00460787676
-0.00278864778
0.00466252875
-0.00286990479
0.00471370588
-0.0029550756
0.00476945131
-0.00304988103
0.00482748904
-0.00314375185
0.00488254688
-0.00323866893
0.00493450682
-0.0033373385
0.00498361769
-0.00344182981
0.00503759974
-0.00355441157
0.00510264331
-0.00367040605
0.00517315633
-0.00378239898
0.00524537083
-0.00389747673
-0.00401173768
0.00531778928
-2.34722707e-10
5.47265087e-07
1.34185464e-08
1.60151417e-06
5.78557469e-08
2.64670408e-06
1.53092573e-07
3.68095655e-06
3.22859341e-07
4.69924472e-06
5.95206358e-07
5.6924131e-06
1.00309494e-06
6.64691285e-06
1.58499e-06
7.54500216e-06
2.38547545e-06
8.36501981e-06
3.45601476e-06
9.08152281e-06
4.8557441e-06
9.6652585e-06
6.65223943e-06
1.00831321e-05
8.92287442e-06
1.02974475e-05
1.17557917e-05
1.02661227e-05
1.52512631e-05
9.94150142e-06
1.95231483e-05
9.27018189e-06
2.47009101e-05
8.19138553e-06
3.09310285e-05
6.63714344e-06
3.83621639e-05
4.54743302e-06
4.71971856e-05
1.8013735e-06
5.76497722e-05
-1.68538635e-06
6.99598536e-05
-6.00045033e-06
8.43987854e-05
-1.13158255e-05
0.000101268062
-1.77624048e-05
0.000120941321
-2.54963152e-05
0.000143810102
-3.47025684e-05
0.000170253029
-4.55876194e-05
0.000200740893
-5.83791523e-05
0.000235787562
-7.33300199e-05
0.00027594786
-9.07186299e-05
0.000321820956
-0.000110848013
0.000374045279
-0.000134044728
0.000433290628
-0.000160656647
0.000500247445
-0.000191048376
0.000575611737
-0.000225595183
0.000660064298
-0.000264674423
0.000754245089
-0.000308654194
0.000858720528
-0.000357878858
0.000973944211
-0.000412651585
0.00110021122
-0.000473213737
0.00123760705
-0.000539721676
0.00138595253
-0.000612221599
0.00154474772
-0.000690623612
0.00171311861
-0.000774677193
0.00188977238
-0.000863950623
0.0020729744
-0.000957824945
0.00226052602
-0.00105547693
0.00244978565
-0.00115588752
0.00263773001
-0.00125786747
0.00282108581
-0.00136011783
0.00299654285
-0.00146131984
0.00316094968
-0.00156015341
0.00331147846
-0.00165539383
0.00344598004
-0.00174630769
0.00356342879
-0.00183265335
0.00366353721
-0.00191452849
0.00374771322
-0.0019920758
0.00381944908
-0.00206685945
0.00388510237
-0.00214127645
0.00394555943
-0.00221577678
0.00400195545
-0.00229136553
0.00405434567
-0.00236592677
0.00410447934
-0.00243976231
0.00415161336
-0.0025150158
0.00419247459
-0.00258850498
0.00423612697
-0.00267088421
0.00428450732
-0.00275389104
0.00433105914
-0.00283519374
0.00438069812
-0.00291953751
0.0044335011
-0.00300787342
0.00448445388
-0.00310082807
0.00453954535
-0.00319883813
0.00459745857
-0.00329657668
0.00465643336
-0.00339630723
0.00471325054
-0.00349864208
0.00476321541
-0.00360437157
0.00480343654
-0.00371062209
0.00485161902
-0.00383057584
0.00490609423
-0.00395194644
-0.0040758626
0.00497022195
2.07008526e-08
5.26591671e-07
1.01886824e-07
1.52036655e-06
2.67386637e-07
2.48124786e-06
5.45193836e-07
3.40319754e-06
9.68163606e-07
4.2763272e-06
1.57472626e-06
5.08590629e-06
2.40957435e-06
5.81212388e-06
3.52440126e-06
6.43023732e-06
4.97871387e-06
6.91077198e-06
6.84058967e-06
7.21971415e-06
9.18799003e-06
7.31792733e-06
1.21095946e-05
7.16159848e-06
1.57062187e-05
6.7008956e-06
2.0092425e-05
5.87998952e-06
2.53979479e-05
4.63605189e-06
3.17587694e-05
2.90943352e-06
3.93497448e-05
6.0048209e-07
4.83575738e-05
-2.37061581e-06
5.89925255e-05
-6.08745136e-06
7.14915011e-05
-1.06975384e-05
8.61203366e-05
-1.63141625e-05
0.000103199199
-2.30792589e-05
0.000123038613
-3.11551929e-05
0.00014599848
-4.07222331e-05
0.000172483013
-5.19808187e-05
0.000202933493
-6.51530306e-05
0.000237828898
-8.0483018e-05
0.000277686654
-9.82369171e-05
0.000323058875
-0.000118702265
0.000374526544
-0.000142186341
0.00043269147
-0.000169013
0.000498164515
-0.000199517855
0.000571549495
-0.000234041731
0.000653422673
-0.000272921682
0.000744306815
-0.000316479478
0.000844639651
-0.00036500744
0.000954736824
-0.000418751576
0.00107475003
-0.000477892309
0.00120462122
-0.000542523035
0.0013440351
-0.000612627925
0.00149237264
-0.00068805955
0.00164866967
-0.000768519009
0.00181158612
-0.000853540468
0.00197939356
-0.000942485094
0.00214999079
-0.00103454832
0.00232094502
-0.00112877964
0.00248957212
-0.00122410445
0.00265303073
-0.00131934651
0.00280847798
-0.00141331498
0.00295330794
-0.00150494794
0.00308544611
-0.00159345793
0.00320366772
-0.00167837472
0.00330766207
-0.00175938751
0.00339789659
-0.00183654114
0.0034758452
-0.00191060036
0.00354381935
-0.00198250066
0.00360558235
-0.00205383628