/*--------------------------------*- C++ -*----------------------------------*\
  =========                 |
  \\      /  F ield         | OpenFOAM: The Open Source CFD Toolbox
   \\    /   O peration     | Website:  https://openfoam.org
    \\  /    A nd           | Version:  8
     \\/     M anipulation  |
\*---------------------------------------------------------------------------*/
FoamFile
{
    version     2.0;
    format      ascii;
    class       volScalarField;
    location    "0.077";
    object      T;
}
// * * * * * * * * * * * * * * * * * * * * * * * * * * * * * * * * * * * * * //

dimensions      [0 0 0 1 0 0 0];

internalField   nonuniform List<scalar> 
42400
(
472.214286
470.625288
468.99415
467.319643
465.600567
463.835768
462.024155
460.164721
458.256571
456.298943
454.291249
452.233103
450.124359
447.965156
445.755961
443.497618
441.191393
438.839034
436.442815
434.005596
431.530871
429.022817
426.48634
423.92711
421.351588
418.767048
416.181575
413.604052
411.04413
408.512175
406.01919
403.576721
401.196736
398.891491
396.673366
394.5547
392.547603
390.663798
388.914448
387.309967
385.859825
384.572386
383.454737
382.512553
381.749967
381.169506
380.771959
380.556274
380.520025
380.656771
380.959343
381.416295
382.012641
382.729136
383.543842
384.426787
385.334706
386.23501
387.121261
387.857184
388.214327
388.143152
387.540202
386.670923
385.502841
383.957731
381.921358
379.290463
375.991763
372.155525
367.801621
362.379953
356.823325
351.811808
345.38444
337.92604
331.062002
326.260092
320.031657
315.023189
472.248699
470.729335
469.169771
467.568908
465.925684
464.239092
462.5082
460.732171
458.910291
457.041994
455.126898
453.164837
451.155902
449.100478
446.999293
444.853462
442.664537
440.434556
438.166097
435.862325
433.527046
431.164747
428.780644
426.380709
423.9717
421.561174
419.157482
416.769758
414.407878
412.082406
409.804515
407.585887
405.438591
403.374947
401.407377
399.548221
397.809533
396.202847
394.738942
393.427561
392.277138
391.294557
390.484906
389.851206
389.394103
389.111695
388.99908
389.048256
389.24858
389.58318
390.032434
390.569559
391.157699
391.761867
392.352881
392.928012
393.210694
393.157468
392.720063
391.864992
390.76302
389.335718
387.507109
385.121893
382.143119
378.54511
374.336301
369.575416
364.220549
358.438874
352.585306
346.190852
339.377742
333.358926
327.70967
321.580971
315.796007
310.659434
306.62817
302.981681
472.292643
470.86219
469.394001
467.887131
466.340681
464.753821
463.125806
461.456004
459.743916
457.989208
456.191744
454.351619
452.469199
450.545159
448.580529
446.576735
444.535652
442.459644
440.351616
438.215063
436.054107
433.873545
431.678879
429.476344
427.272925
425.07636
422.89513
420.738428
418.616118
416.538667
414.51706
412.562691
410.68721
408.902355
407.219743
405.650625
404.205603
402.894323
401.725164
400.704907
399.838373
399.128032
398.573709
398.172093
397.916925
397.797564
397.798914
397.900247
398.076027
398.296638
398.536601
398.781821
398.834827
398.676385
398.187802
397.30238
396.215804
394.854578
393.147048
390.981787
388.281446
385.016161
381.171887
376.758278
371.806191
366.362291
360.497164
354.356688
348.001144
341.465723
335.128628
329.085267
323.040324
317.474015
312.690381
308.674072
304.969927
301.930266
300.316762
300.031207
472.342837
471.013937
469.650106
468.250566
466.814601
465.341574
463.83095
462.28232
460.695425
459.070188
457.406743
455.705474
453.967045
452.192447
450.383031
448.540555
446.667222
444.765729
442.8393
440.891733
438.927428
436.951423
434.96941
432.987755
431.013493
429.054323
427.118575
425.21516
423.353497
421.543411
419.795012
418.118519
416.52406
415.021431
413.619816
412.327484
411.15145
410.097094
409.167724
408.364273
407.684791
407.12432
406.673603
406.318651
406.043106
405.827115
405.650618
405.467846
405.175509
404.722713
404.049541
403.083065
401.948314
400.584196
398.92677
396.895389
394.399275
391.402607
387.879925
383.822707
379.242208
374.170637
368.664019
362.791266
356.635265
350.290601
343.852098
337.460365
331.273241
325.31505
319.731532
314.745678
310.441038
306.715849
303.666666
301.222786
300.129381
299.907981
299.858953
299.845054
472.395611
471.173479
469.919362
468.632654
467.312829
465.95945
464.572198
463.150893
461.695521
460.206261
458.68352
457.127962
455.540541
453.922542
452.275609
450.601788
448.903558
447.183866
445.446155
443.694396
441.933102
440.167342
438.402744
436.645483
434.902257
433.180238
431.487009
429.830466
428.218699
426.659834
425.16184
423.7323
422.378154
421.105389
419.918698
418.821106
417.813584
416.894612
416.060011
415.30244
414.611532
413.974872
413.374708
412.752449
412.070971
411.28691
410.351002
409.241271
407.987405
406.541457
404.85207
402.855806
400.472932
397.66613
394.404406
390.667394
386.449305
381.759564
376.624211
371.086778
365.208292
359.066982
352.76001
346.389457
340.05727
333.864316
327.919853
322.323205
317.205478
312.652451
308.727337
305.467523
303.039038
301.127426
300.132533
299.924158
299.877639
299.859443
299.855901
299.854306
472.446925
471.32861
470.181174
469.004184
467.797289
466.560247
465.292938
463.995391
462.66781
461.310596
459.924379
458.510045
457.068763
455.602016
454.111627
452.599786
451.06907
449.522467
447.963383
446.395651
444.823529
443.251681
441.68515
440.129312
438.589805
437.07244
435.583085
434.127516
432.71124
431.339284
430.015952
428.744544
427.527066
426.363885
425.253377
424.191764
423.172721
422.184071
421.207277
420.219283
419.192999
418.097679
416.902104
415.613922
414.200519
412.62568
410.847672
408.81322
406.467947
403.776157
400.705683
397.230828
393.335481
389.01427
384.274155
379.135756
373.633441
367.816588
361.74824
355.504951
349.172339
342.849445
336.644699
330.670889
325.030007
319.809015
315.099163
310.967839
307.478279
304.682005
302.580895
301.141512
300.174003
299.930742
299.876931
299.865523
299.858107
299.850425
299.836689
299.823957
472.492282
471.465731
470.412593
469.332582
468.2255
467.091257
465.929887
464.741572
463.526658
462.285681
461.019384
459.728742
458.414977
457.07958
455.724324
454.351275
452.962795
451.561542
450.15046
448.732756
447.311863
445.891397
444.47508
443.066659
441.669786
440.287889
438.924002
437.580575
436.259247
434.960604
433.683894
432.426731
431.184851
429.951714
428.716686
427.46587
426.182821
424.85269
423.459609
421.983088
420.399051
418.679081
416.788467
414.684946
412.336206
409.710214
406.776684
403.508918
399.885806
395.893251
391.525626
386.787074
381.692553
376.268672
370.554393
364.60157
358.471998
352.238206
345.981337
339.793809
333.766082
328.005264
322.615246
317.694861
313.324693
309.562337
306.45233
304.010475
302.213381
301.009501
300.273035
299.954708
299.887485
299.868613
299.863128
299.851607
299.834215
299.818823
299.807141
299.805419
472.526913
471.570426
470.589286
469.583307
468.552389
467.496526
466.415825
465.310516
464.180971
463.027711
461.851422
460.652965
459.433382
458.193898
456.935921
455.661035
454.37098
453.067628
451.752946
450.428948
449.097624
447.760861
446.420339
445.077409
443.732946
442.38718
441.03951
439.6883
438.330679
436.962324
435.577219
434.167397
432.72276
431.230801
429.678016
428.048827
426.324174
424.480509
422.493056
420.336585
417.984724
415.410677
412.588199
409.492709
406.102329
402.399189
398.370631
394.01039
389.319692
384.308248
378.995144
373.409544
367.591468
361.592222
355.47562
349.312019
343.177936
337.159619
331.345691
325.834918
320.715761
316.077232
311.995072
308.531537
305.719907
303.554708
301.991342
300.953134
300.338738
300.022709
299.914954
299.883818
299.869966
299.84795
299.825805
299.812974
299.809479
299.80726
299.805977
299.805733
472.546338
471.629146
470.688374
469.723872
468.735552
467.7234
466.687479
465.627934
464.545
463.439003
462.310354
461.159553
459.987174
458.793865
457.58033
456.347295
455.095481
453.825553
452.53807
451.23341
449.911686
448.57264
447.215516
445.838905
444.440576
443.01725
441.564298
440.075324
438.543395
436.959967
435.314803
433.595866
431.789234
429.879138
427.848109
425.677139
423.345959
420.833445
418.118191
415.179183
411.996528
408.552053
404.830374
400.819845
396.513498
391.909991
387.014501
381.8396
376.40608
370.743732
364.892051
358.901071
352.832853
346.758855
340.755932
334.908552
329.303355
324.031682
319.179412
314.825505
311.033333
307.845312
305.282722
303.331237
301.935783
301.009431
300.446889
300.142199
299.994994
299.92911
299.891812
299.852429
299.822704
299.813387
299.81124
299.810636
299.809726
299.808055
299.806869
299.805983
472.547288
471.631998
470.69313
469.730477
468.743871
467.733182
466.69832
465.639228
464.555878
463.448264
462.316388
461.160243
459.979789
458.774915
457.545413
456.29094
455.010957
453.704661
452.370897
451.008053
449.61393
448.185575
446.719093
445.208927
443.649226
442.033753
440.355342
438.606106
436.775932
434.853297
432.825332
430.677882
428.395629
425.962291
423.360897
420.574156
417.584909
414.3767
410.934083
407.243483
403.293928
399.077821
394.591744
389.837285
384.82187
379.559601
374.072085
368.389261
362.550169
356.603594
350.608584
344.636056
338.763896
333.075214
327.656754
322.595581
317.974402
313.865138
310.32031
307.369618
305.020249
303.236866
301.953752
301.089032
300.547684
300.233249
300.059693
299.962504
299.900155
299.854196
299.824734
299.818716
299.815744
299.81198
299.810288
299.809885
299.810176
299.810816
299.812735
299.812921
472.530044
471.579865
470.605139
469.605567
468.580854
467.530696
466.454781
465.352763
464.224261
463.068835
461.885975
460.67507
459.43486
458.163435
456.858973
455.519639
454.143209
452.727014
451.267875
449.762043
448.205176
446.5923
444.917816
443.176107
441.360023
439.460834
437.468797
435.373182
433.162275
430.823453
428.343312
425.707852
422.90271
419.913482
416.726106
413.327123
409.704221
405.846856
401.746875
397.399207
392.802604
387.960435
382.881534
377.581073
372.081443
366.413098
360.615319
354.73681
348.835941
342.980458
337.24708
331.7181
326.478126
321.609735
317.189121
313.279714
309.928158
307.152745
304.94477
303.262236
302.041908
301.202776
300.654505
300.310871
300.101875
299.976928
299.900645
299.852216
299.827412
299.81996
299.817225
299.816265
299.814978
299.812573
299.810499
299.809705
299.810088
299.811875
299.814347
299.816253
472.493452
471.469243
470.418428
469.34054
468.235058
467.101402
465.938904
464.746595
463.522967
462.266682
460.976152
459.649492
458.285001
456.881076
455.435378
453.944838
452.405913
450.814545
449.166098
447.455292
445.676183
443.822106
441.885612
439.858471
437.731635
435.495253
433.138715
430.65073
428.019445
425.232606
422.277767
419.142568
415.814963
412.283533
408.538013
404.569801
400.372539
395.942768
391.28066
386.390821
381.28316
375.973797
370.485983
364.850958
359.108667
353.308227
347.508047
341.77534
336.184693
330.815473
325.747767
321.059171
316.818954
313.081101
309.880074
307.225985
305.103201
303.468861
302.259176
301.399039
300.810806
300.423217
300.175494
300.020189
299.923777
299.865515
299.836257
299.825649
299.822627
299.819693
299.815694
299.811868
299.809597
299.809281
299.810668
299.812785
299.81361
299.814303
299.814598
299.816128
472.438795
471.304007
470.139546
468.9447
467.718649
466.460439
465.168529
463.84162
462.478556
461.07754
459.636489
458.152993
456.624282
455.047183
453.418072
451.732826
449.986772
448.174661
446.29063
444.328152
442.280031
440.138392
437.894681
435.539687
433.063592
430.45604
427.706242
424.803122
421.735502
418.492333
415.062826
411.436906
407.605627
403.56165
399.299815
394.817784
390.11678
385.202398
380.085484
374.783051
369.319176
363.725826
358.043479
352.321443
346.617704
340.998137
335.535117
330.305043
325.384414
320.844546
316.746191
313.135491
310.039172
307.460831
305.37951
303.753174
302.522886
301.622908
300.985618
300.548358
300.257579
300.071261
299.957733
299.893022
299.858809
299.841503
299.830966
299.8235
299.817566
299.812341
299.808792
299.808072
299.808162
299.80853
299.811525
299.817086
299.822129
299.820826
299.81789
299.817023
472.370384
471.097218
469.790609
468.449611
467.073119
465.659721
464.208092
462.716491
461.182896
459.604961
457.979978
456.304839
454.575991
452.789406
450.940545
449.024321
447.035068
444.96652
442.811801
440.563414
438.213259
435.752651
433.17237
430.462729
427.613676
424.61493
421.456157
418.127092
414.617838
410.919222
407.023197
402.923315
398.615292
394.09765
389.372453
384.446114
379.330263
374.042633
368.607916
363.0585
357.434993
351.786382
346.16969
340.648951
335.293401
330.174622
325.363457
320.925846
316.917574
313.378832
310.330551
307.772779
305.685135
304.029955
302.755427
301.801895
301.109471
300.623119
300.294692
300.082099
299.950721
299.877771
299.84311
299.82857
299.82434
299.822691
299.820621
299.818771
299.815889
299.812256
299.8096
299.808704
299.808524
299.811066
299.815569
299.819481
299.82659
299.831502
299.830254
299.826628
472.291385
470.85844
469.387742
467.878123
466.328192
464.736351
463.100847
461.419526
459.689886
457.909039
456.073672
454.180014
452.223793
450.20021
448.103912
445.928972
443.66888
441.316538
438.864272
436.303863
433.626586
430.823287
427.884475
424.800458
421.561489
418.157911
414.580483
410.820701
406.871193
402.726193
398.38209
393.838068
389.096826
384.165365
379.055819
373.7863
368.381683
362.874267
357.304183
351.719448
346.175495
340.734045
335.461204
330.424717
325.690465
321.317964
317.356757
313.843335
310.796572
308.217778
306.090573
304.382109
303.046343
302.031782
301.284301
300.751887
300.386232
300.145092
299.99407
299.906007
299.862004
299.84292
299.832594
299.827134
299.822413
299.819902
299.818746
299.817391
299.816102
299.815403
299.815664
299.816392
299.81634
299.817005
299.818523
299.820608
299.824218
299.834414
299.839775
299.842716
472.203764
470.593606
468.940941
467.244386
465.502313
463.712876
461.873887
459.98277
458.03655
456.031806
453.964638
451.830635
449.624845
447.341759
444.975292
442.518788
439.965029
437.30626
434.534237
431.640297
428.615451
425.450519
422.136237
418.663481
415.023548
411.208468
407.211398
403.027083
398.652392
394.08694
389.333781
384.400161
379.298303
374.046192
368.668294
363.19613
357.668609
352.132
346.639419
341.249699
336.025544
331.030959
326.328025
321.97323
318.013732
314.483442
311.399804
308.763107
306.563456
304.775517
303.362154
302.277411
301.470541
300.890936
300.490112
300.225065
300.058468
299.958687
299.90162
299.871561
299.854343
299.839561
299.826758
299.819477
299.81487
299.812874
299.812182
299.813208
299.815849
299.818458
299.819818
299.822544
299.825713
299.827292
299.82597
299.823928
299.824352
299.831485
299.839218
299.841437
472.108825
470.306656
468.456868
466.557874
464.6078
462.604439
460.545209
458.427112
456.246692
454.000002
451.682569
449.289375
446.814837
444.252807
441.596578
438.83891
435.972073
432.987916
429.877959
426.633516
423.245804
419.706186
416.006424
412.138992
408.097448
403.876888
399.474456
394.889947
390.12646
385.191111
380.095772
374.857796
369.500669
364.054522
358.556404
353.050218
347.586208
342.219916
337.010507
332.018493
327.302815
322.917595
318.908865
315.311656
312.147932
309.424981
307.134068
305.251655
303.74458
302.57401
301.694383
301.056046
300.609321
300.308508
300.113849
299.992768
299.920213
299.877966
299.853403
299.836969
299.828881
299.82558
299.825082
299.81765
299.811326
299.809841
299.810518
299.812833
299.816512
299.819119
299.820112
299.821888
299.824029
299.828635
299.830957
299.829106
299.827149
299.827782
299.832797
299.835166
472.007575
470.000636
467.940609
465.825674
463.653677
461.42208
459.127924
456.767782
454.337728
451.833306
449.249512
446.580779
443.820988
440.963483
438.001113
434.92629
431.731083
428.407322
424.946734
421.341154
417.582776
413.664451
409.58005
405.324888
400.896223
396.293822
391.520583
386.583208
381.492898
376.266027
370.924753
365.497489
360.019152
354.531105
349.080688
343.720267
338.505749
333.49457
328.743204
324.304444
320.22416
316.538468
313.271513
310.434169
308.023658
306.023903
304.405291
303.127934
302.144715
301.408237
300.87457
300.500945
300.247534
300.08055
299.973274
299.906429
299.865582
299.839468
299.825027
299.819499
299.818361
299.81965
299.822846
299.824502
299.821913
299.814998
299.813215
299.814515
299.817466
299.819521
299.819678
299.820514
299.821748
299.824701
299.830991
299.833828
299.834499
299.831656
299.827339
299.827298
471.900871
469.678128
467.396534
465.054028
462.648171
460.176096
457.63447
455.019461
452.326705
449.551295
446.687775
443.730153
440.67193
437.506159
434.225517
430.822416
427.289124
423.61797
419.801579
415.83315
411.706806
407.417993
402.963957
398.34427
393.561424
388.621461
383.534629
378.316019
372.986142
367.571386
362.104274
356.623439
351.173237
345.802919
340.56531
335.514988
330.706041
326.18949
322.010617
318.20688
314.805008
311.819354
309.250986
307.087728
305.306232
303.872656
302.746686
301.884355
301.239929
300.769654
300.435067
300.204258
300.05062
299.951496
299.889656
299.853963
299.835514
299.82873
299.822645
299.818727
299.817154
299.818424
299.824283
299.828921
299.831432
299.831827
299.829612
299.826963
299.82609
299.824688
299.823058
299.820274
299.820652
299.823442
299.828635
299.831489
299.832463
299.83455
299.833124
299.833148
471.789741
469.342245
466.8299
464.25041
461.601055
458.878657
456.079544
453.199522
450.233866
447.17732
444.024115
440.768017
437.40239
433.92029
430.314582
426.578123
422.703974
418.685671
414.517538
410.195066
405.715354
401.077603
396.283668
391.338648
386.251506
381.035669
375.70959
370.297201
364.828206
359.338119
353.868002
348.463793
343.175202
338.054131
333.152662
328.520692
324.203425
320.23884
316.655414
313.470612
310.691076
308.313296
306.320666
304.687056
303.378723
302.357034
301.580065
301.005318
300.592608
300.305767
300.113417
299.989959
299.914276
299.87076
299.851213
299.842574
299.834739
299.827273
299.822189
299.818706
299.817439
299.817474
299.823617
299.828807
299.832065
299.833561
299.835026
299.834828
299.833993
299.834324
299.834104
299.830984
299.825006
299.823611
299.827653
299.830657
299.830361
299.833414
299.841235
299.855142
472.614947
471.836332
471.037321
470.217467
469.376311
468.513388
467.62822
466.720313
465.789155
464.834213
463.854927
462.850705
461.82092
460.764905
459.681943
458.571264
457.432034
456.26335
455.064221
453.833561
452.570176
451.27275
449.939828
448.569802
447.160885
445.711097
444.218235
442.679845
441.093201
439.45529
437.762805
436.012136
434.199376
432.318044
430.361014
428.321522
426.191556
423.963491
421.632263
419.187861
416.619548
413.916007
411.065223
408.05459
404.871269
401.502705
397.937386
394.165903
390.182396
385.986428
381.585293
376.9967
372.251616
367.39691
362.497202
357.63508
352.910112
348.43484
344.325205
340.688067
337.606346
335.124933
333.241472
331.905409
331.026179
330.488565
330.172005
329.969712
329.801565
329.615749
329.382057
329.086892
328.735192
328.350391
327.960819
327.582443
327.219266
326.897125
326.658297
326.543273
472.612963
471.830295
471.027041
470.202686
469.356703
468.488552
467.597675
466.683497
465.745419
464.782818
463.795038
462.781388
461.741136
460.673502
459.57765
458.452682
457.297627
456.111433
454.892955
453.640946
452.354038
451.030734
449.669386
448.268188
446.825165
445.338162
443.804835
442.222326
440.586777
438.894196
437.140464
435.320816
433.42971
431.462987
429.415728
427.281021
425.05133
422.718504
420.27373
417.707395
415.009133
412.167917
409.17222
406.010285
402.670542
399.142238
395.416322
391.486661
387.351641
383.016169
378.494046
373.810567
369.005058
364.132886
359.26643
354.496996
349.930158
345.678999
341.853267
338.54539
335.815705
333.680759
332.108849
331.025353
330.326871
329.89972
329.637445
329.453758
329.288572
329.105226
328.880917
328.59933
328.254941
327.866599
327.482365
327.151122
326.94196
326.784931
326.702223
326.811422
472.607522
471.813814
470.999148
470.162944
469.304602
468.423503
467.519011
466.590465
465.63718
464.658441
463.6535
462.621567
461.561809
460.473342
459.35522
458.206434
457.025895
455.812432
454.56478
453.281568
451.96132
450.602435
449.202856
447.760199
446.272139
444.736052
443.148959
441.507784
439.809759
438.051453
436.228652
434.336734
432.370643
430.324877
428.193411
425.969625
423.646281
421.215502
418.668762
415.996908
413.190229
410.238579
407.131579
403.858939
400.410937
396.779105
392.957164
388.942279
384.736637
380.349367
375.79871
371.114259
366.338948
361.530872
356.766586
352.138082
347.74885
343.706462
340.111597
337.044589
334.551934
332.636445
331.254765
330.32425
329.738023
329.38388
329.161617
328.994508
328.833215
328.652621
328.442891
328.198516
327.915457
327.604605
327.310991
327.132286
327.051166
327.090039
327.465928
328.165467
472.598614
471.786855
470.953589
470.098164
469.219906
468.318119
467.392084
466.441058
465.464266
464.460906
463.430137
462.371078
461.282802
460.164326
459.01461
457.832543
456.616943
455.366502
454.079665
452.754788
451.390145
449.983817
448.533995
447.038797
445.495828
443.902476
442.255894
440.552984
438.790372
436.96437
435.070937
433.105652
431.063687
428.939775
426.728182
424.422676
422.016507
419.502398
416.872548
414.118667
411.232073
408.203832
405.024996
401.68695
398.181914
394.503642
390.648349
386.615913
382.411334
378.046447
373.541772
368.928304
364.24891
359.563556
354.947323
350.488494
346.284335
342.433847
339.027566
336.135484
333.795324
332.004299
330.717497
329.854595
329.313852
328.989776
328.789061
328.64022
328.496508
328.333166
328.143499
327.934912
327.720796
327.51993
327.344644
327.325175
327.573324
328.159834
329.099959
330.344709
472.586216
471.749352
470.890249
470.008184
469.10241
468.172153
467.21661
466.234954
465.226327
464.189837
463.124557
462.029516
460.903696
459.746028
458.555358
457.330372
456.069716
454.771994
453.435843
452.059736
450.641947
449.18062
447.673763
446.11923
444.5147
442.857669
441.145427
439.375046
437.543358
435.646938
433.682076
431.64476
429.530642
427.335017
425.052792
422.678466
420.206107
417.629343
414.941375
412.135011
409.202757
406.136962
402.930054
399.574891
396.06525
392.396503
388.566495
384.576653
380.433325
376.149252
371.74509
367.250766
362.708541
358.176592
353.726147
349.439751
345.407496
341.718917
338.454858
335.677194
333.418863
331.677188
330.41282
329.55583
329.017359
328.70119
328.515366
328.389247
328.278471
328.158778
328.022886
327.87865
327.744294
327.672946
327.73836
327.996729
328.52368
329.404267
330.665244
332.287531
472.570238
471.701033
470.808672
469.892363
468.951284
467.984582
466.991375
465.970754
464.921777
463.843471
462.734824
461.594786
460.422242
459.215969
457.974755
456.697414
455.38263
454.028985
452.63498
451.199029
449.719451
448.194462
446.622168
445.000561
443.327506
441.600738
439.817848
437.976273
436.073285
434.105976
432.071237
429.965739
427.785909
425.527903
423.187574
420.760443
418.241671
415.626041
412.907949
410.081429
407.140214
404.077855
400.887923
397.564323
394.101734
390.496215
386.74601
382.852529
378.821561
374.664612
370.400285
366.055527
361.670695
357.301092
353.015088
348.893041
344.984026
341.405714
338.231466
335.520163
333.305063
331.58711
330.332828
329.476434
328.925378
328.581084
328.383991
328.271485
328.189306
328.11318
328.02439
327.950896
327.938464
328.032122
328.314664
328.8382
329.667274
330.886241
332.539353
334.488145
472.550521
471.641414
470.708044
469.749547
468.765029
467.753562
466.714186
465.645914
464.547727
463.418576
462.257377
461.06298
459.834221
458.569969
457.268987
455.92999
454.55164
453.132547
451.671265
450.166293
448.61607
447.018977
445.373335
443.677407
441.929393
440.127431
438.269594
436.353888
434.378237
432.340483
430.238361
428.069485
425.831321
423.521153
421.136044
418.672797
416.12791
413.497533
410.777437
407.963004
405.049251
402.030906
398.902552
395.658886
392.29509
388.807368
385.19365
381.454474
377.594037
373.621372
369.551483
365.406284
361.21915
357.041137
352.926821
348.940827
345.182334
341.704888
338.582729
335.875897
333.623196
331.835853
330.494419
329.550371
328.933605
328.566435
328.376665
328.262074
328.191891
328.146438
328.146089
328.192913
328.323572
328.586337
329.049959
329.773901
330.820906
332.188589
333.727119
335.430747
472.526854
471.569865
470.587301
469.578234
468.541695
467.476686
466.382175
465.257102
464.100381
462.910897
461.687497
460.429049
459.134388
457.802303
456.431558
455.02089
453.569013
452.074618
450.536376
448.952944
447.322971
445.645097
443.917969
442.140241
440.310582
438.427684
436.490261
434.497057
432.446835
430.338379
428.170473
425.941881
423.651321
421.297418
418.878659
416.393333
413.839464
411.214741
408.516451
405.741427
402.88601
399.946066
396.917045
393.794136
390.57252
387.247764
383.816355
380.276417
376.628584
372.877011
369.030414
365.128633
361.1738
357.215971
353.296065
349.475346
345.823555
342.411296
339.307673
336.572898
334.250267
332.360263
330.896941
329.828198
329.10025
328.644937
328.386976
328.264507
328.231941
328.259304
328.346426
328.503353
328.748667
329.0999
329.540099
330.242077
331.198049
332.485215
333.627671
335.015737
472.499063
471.485854
470.44555
469.377156
468.279638
467.151927
465.992927
464.801515
463.576546
462.316865
461.021321
459.688738
458.317924
456.907682
455.456811
453.964112
452.428394
450.848483
449.223229
447.551514
445.832272
444.06449
442.247232
440.379647
438.460986
436.490609
434.468001
432.392775
430.264673
428.083558
425.849405
423.562273
421.222267
418.829494
416.383992
413.885656
411.33415
408.728802
406.068511
403.351637
400.575928
397.73846
394.835632
391.863222
388.816537
385.690662
382.48082
379.18284
375.793704
372.312127
368.763512
365.155129
361.489863
357.795777
354.112124
350.487776
346.979998
343.651483
340.566305
337.784403
335.355291
333.312123
331.666663
330.407202
329.499932
328.893712
328.527644
328.341499
328.286539
328.317592
328.422683
328.581761
328.788195
329.112475
329.673449
330.367776
331.361961
332.414991
333.312167
334.397058
472.467112
471.389277
470.282615
469.146066
467.978533
466.778885
465.545966
464.278608
462.975635
461.635864
460.258104
458.841168
457.38388
455.885079
454.343632
452.758439
451.128445
449.452655
447.730148
445.960092
444.141764
442.27457
440.358064
438.391968
436.376196
434.310864
432.196312
430.033114
427.822075
425.56423
423.260826
420.913292
418.523197
416.092188
413.621915
411.113933
408.569591
405.989908
403.375437
400.726128
398.041203
395.319048
392.557142
389.752046
386.899471
383.994455
381.031663
378.005854
374.912516
371.74871
368.50932
365.227023
361.901337
358.531509
355.144324
351.776798
348.473683
345.286135
342.269209
339.478177
336.963879
334.767643
332.916529
331.419795
330.267584
329.432328
328.873003
328.541463
328.387258
328.370973
328.444553
328.594232
328.79814
329.133879
329.629068
330.279619
331.160009
332.216114
333.189068
334.200522
472.431236
471.280843
470.099691
468.886658
467.640589
466.360302
465.044598
463.692266
462.302088
460.872853
459.403364
457.892443
456.33895
454.741784
453.099902
451.412332
449.678189
447.896693
446.067191
444.18918
442.262329
440.286511
438.261821
436.18861
434.067505
431.899432
429.685637
427.427695
425.127515
422.787332
420.409689
417.997403
415.553503
413.081172
410.583646
408.064107
405.525552
402.970644
400.401552
397.819787
395.226038
392.620028
390.000387
387.364586
384.708919
382.028586
379.31788
376.570501
373.780046
370.940676
368.041098
365.108059
362.152197
359.161975
356.136411
353.098139
350.07957
347.119051
344.259742
341.547572
339.028339
336.74415
334.729622
333.008415
331.590739
330.472436
329.635967
329.053211
328.689626
328.512015
328.502565
328.575064
328.742589
329.000446
329.390665
329.944128
330.688088
331.60479
332.790604
333.769192
472.392066
471.16246
469.899995
468.603496
467.271753
465.903535
464.497596
463.052687
461.567566
460.041008
458.471822
456.858856
455.201017
453.497284
451.746726
449.948519
448.101971
446.206545
444.261884
442.267842
440.224513
438.132262
435.991759
433.804007
431.570374
429.292616
426.972898
424.613804
422.218341
419.789928
417.332372
414.849827
412.346731
409.827723
407.29754
404.760897
402.222331
399.686043
397.155715
394.634325
392.123966
389.625677
387.139302
384.663391
382.195159
379.730535
377.264299
374.79035
372.302134
369.793264
367.25838
364.665222
362.056452
359.445489
356.819053
354.168589
351.508544
348.864772
346.267779
343.751606
341.352251
339.105566
337.04476
335.197793
333.585027
332.217531
331.096356
330.212875
329.550142
329.085035
328.776545
328.684617
328.736714
328.845474
329.03714
329.370237
329.860514
330.473802
331.399958
331.98307
472.350755
471.03761
469.6894
468.304893
466.88283
465.421934
463.920922
462.378515
460.793455
459.164514
457.490515
455.770344
454.00297
452.187462
450.323016
448.408973
446.444852
444.430373
442.365494
440.250444
438.085757
435.872308
433.61135
431.304546
428.954005
426.562302
424.1325
421.668162
419.173347
416.652597
414.1109
411.553646
408.98655
406.41556
403.846744
401.286149
398.73965
396.212775
393.710512
391.237119
388.795925
386.389149
384.017745
381.681284
379.377891
377.104271
374.855825
372.626893
370.411092
368.201817
365.992871
363.778926
361.531099
359.251504
356.989786
354.736551
352.472777
350.209129
347.960142
345.747466
343.596277
341.532911
339.583501
337.772345
336.120269
334.643172
333.350934
332.246853
331.327624
330.583802
329.998874
329.553177
329.206348
329.076521
329.134957
329.273318
329.484753
329.748018
330.224717
330.468023
472.309015
470.911466
469.476626
468.00321
466.489913
464.935417
463.338409
461.697588
460.011686
458.279484
456.499827
454.671648
452.793986
450.866015
448.887066
446.856657
444.774525
442.640661
440.455346
438.219187
435.933159
433.598645
431.217473
428.791954
426.324911
423.819711
421.280276
418.711093
416.117205
413.504189
410.87811
408.245461
405.613076
402.988024
400.377478
397.788564
395.2282
392.702913
390.218659
387.780637
385.393105
383.059195
380.780762
378.558263
376.390674
374.275462
372.208648
370.184973
368.198159
366.241206
364.306748
362.387405
360.476018
358.569255