/*--------------------------------*- C++ -*----------------------------------*\
  =========                 |
  \\      /  F ield         | OpenFOAM: The Open Source CFD Toolbox
   \\    /   O peration     | Website:  https://openfoam.org
    \\  /    A nd           | Version:  8
     \\/     M anipulation  |
\*---------------------------------------------------------------------------*/
FoamFile
{
    version     2.0;
    format      ascii;
    class       volScalarField;
    location    "0.047";
    object      p;
}
// * * * * * * * * * * * * * * * * * * * * * * * * * * * * * * * * * * * * * //

dimensions      [1 -1 -2 0 0 0 0];

internalField   nonuniform List<scalar> 
42400
(
101523.058
101523.045
101523.03
101523.016
101523.003
101522.992
101522.981
101522.971
101522.962
101522.954
101522.947
101522.941
101522.937
101522.933
101522.93
101522.929
101522.928
101522.929
101522.93
101522.932
101522.936
101522.94
101522.945
101522.95
101522.957
101522.964
101522.971
101522.979
101522.987
101522.996
101523.004
101523.013
101523.022
101523.03
101523.039
101523.047
101523.055
101523.062
101523.068
101523.086
101523.12
101523.157
101523.17
101523.151
101523.128
101523.116
101523.123
101523.139
101523.157
101523.175
101523.196
101523.215
101523.228
101523.271
101523.347
101523.438
101523.498
101523.509
101523.542
101523.624
101523.74
101523.86
101523.977
101524.104
101524.252
101524.42
101524.605
101524.896
101525.078
101525.02
101525.761
101526.269
101524.587
101524.054
101532.044
101539.266
101533.722
101531.722
101532.165
101529.326
101522.757
101522.746
101522.734
101522.723
101522.713
101522.704
101522.695
101522.687
101522.68
101522.674
101522.669
101522.665
101522.662
101522.66
101522.659
101522.659
101522.66
101522.662
101522.665
101522.669
101522.674
101522.679
101522.685
101522.692
101522.7
101522.708
101522.717
101522.726
101522.736
101522.746
101522.755
101522.765
101522.775
101522.785
101522.794
101522.81
101522.834
101522.863
101522.895
101522.906
101522.893
101522.876
101522.875
101522.89
101522.907
101522.924
101522.943
101522.961
101522.976
101522.983
101523.017
101523.093
101523.143
101523.139
101523.147
101523.194
101523.269
101523.343
101523.413
101523.491
101523.58
101523.692
101523.83
101523.985
101524.168
101524.392
101524.626
101525.051
101525.55
101525.627
101526.245
101527.75
101528.081
101528.828
101531.76
101531.728
101533.227
101534.65
101538.302
101540.711
101522.338
101522.329
101522.32
101522.311
101522.304
101522.297
101522.29
101522.285
101522.28
101522.277
101522.274
101522.272
101522.271
101522.272
101522.273
101522.276
101522.279
101522.284
101522.29
101522.296
101522.304
101522.313
101522.323
101522.334
101522.345
101522.358
101522.371
101522.386
101522.401
101522.416
101522.432
101522.448
101522.468
101522.495
101522.525
101522.55
101522.562
101522.564
101522.565
101522.577
101522.6
101522.623
101522.645
101522.668
101522.688
101522.7
101522.729
101522.778
101522.849
101522.887
101522.882
101522.903
101522.954
101523.008
101523.055
101523.105
101523.161
101523.228
101523.313
101523.413
101523.527
101523.656
101523.827
101524.043
101524.309
101524.655
101525.024
101525.597
101526.384
101527.058
101527.75
101528.516
101530.041
101532.253
101533.956
101536.225
101538.761
101540.572
101542.434
101544.312
101521.816
101521.808
101521.801
101521.794
101521.788
101521.783
101521.779
101521.776
101521.773
101521.772
101521.772
101521.773
101521.775
101521.779
101521.783
101521.789
101521.797
101521.805
101521.816
101521.827
101521.84
101521.854
101521.87
101521.887
101521.905
101521.924
101521.945
101521.966
101521.99
101522.017
101522.047
101522.079
101522.107
101522.127
101522.147
101522.166
101522.193
101522.228
101522.263
101522.297
101522.332
101522.364
101522.388
101522.431
101522.505
101522.553
101522.559
101522.58
101522.622
101522.68
101522.731
101522.776
101522.823
101522.877
101522.938
101523.006
101523.082
101523.167
101523.263
101523.38
101523.539
101523.73
101523.989
101524.295
101524.687
101525.148
101525.704
101526.331
101526.707
101527.577
101529.853
101532.399
101534.262
101535.28
101536.221
101537.433
101539.379
101540.839
101541.882
101543.197
101521.196
101521.189
101521.182
101521.177
101521.172
101521.168
101521.165
101521.164
101521.164
101521.165
101521.167
101521.171
101521.176
101521.183
101521.192
101521.202
101521.214
101521.228
101521.244
101521.261
101521.281
101521.302
101521.324
101521.347
101521.372
101521.401
101521.432
101521.465
101521.498
101521.533
101521.567
101521.603
101521.642
101521.686
101521.731
101521.776
101521.822
101521.868
101521.913
101521.952
101522.005
101522.087
101522.143
101522.164
101522.204
101522.263
101522.321
101522.373
101522.424
101522.479
101522.537
101522.597
101522.66
101522.728
101522.804
101522.892
101522.993
101523.113
101523.263
101523.446
101523.682
101523.943
101524.313
101524.681
101525.209
101525.59
101526.064
101527.763
101530.542
101532.311
101532.602
101532.729
101533.468
101534.962
101536.403
101537.627
101539.275
101541.153
101542.903
101544.412
101520.45
101520.444
101520.437
101520.432
101520.428
101520.425
101520.424
101520.424
101520.425
101520.429
101520.434
101520.441
101520.45
101520.46
101520.473
101520.488
101520.506
101520.525
101520.547
101520.57
101520.594
101520.622
101520.654
101520.69
101520.728
101520.768
101520.811
101520.855
101520.902
101520.952
101521.003
101521.056
101521.11
101521.166
101521.224
101521.281
101521.333
101521.398
101521.487
101521.553
101521.589
101521.646
101521.719
101521.786
101521.851
101521.915
101521.98
101522.045
101522.112
101522.18
101522.253
101522.333
101522.423
101522.525
101522.641
101522.779
101522.946
101523.147
101523.385
101523.67
101524.041
101524.465
101525.007
101525.354
101526.012
101528.28
101530.32
101530.961
101530.849
101531.071
101532.288
101533.932
101535.291
101536.522
101537.879
101539.34
101541.102
101542.457
101543.756
101545.062
101519.552
101519.546
101519.539
101519.534
101519.531
101519.529
101519.53
101519.531
101519.535
101519.541
101519.549
101519.559
101519.572
101519.588
101519.606
101519.625
101519.647
101519.672
101519.701
101519.735
101519.772
101519.812
101519.854
101519.899
101519.947
101519.997
101520.05
101520.106
101520.164
101520.225
101520.289
101520.356
101520.423
101520.486
101520.56
101520.657
101520.733
101520.785
101520.858
101520.943
101521.023
101521.1
101521.177
101521.254
101521.331
101521.408
101521.488
101521.572
101521.66
101521.756
101521.861
101521.98
101522.115
101522.271
101522.459
101522.683
101522.944
101523.256
101523.618
101524.004
101524.471
101524.99
101526.081
101528.215
101529.58
101529.655
101529.794
101530.63
101531.802
101532.89
101534.089
101535.796
101537.219
101538.62
101539.702
101540.815
101542.208
101543.438
101545.026
101546.326
101518.454
101518.447
101518.441
101518.437
101518.435
101518.435
101518.437
101518.441
101518.447
101518.456
101518.467
101518.481
101518.498
101518.518
101518.542
101518.57
101518.602
101518.636
101518.673
101518.714
101518.758
101518.806
101518.857
101518.912
101518.971
101519.032
101519.098
101519.167
101519.238
101519.308
101519.38
101519.46
101519.561
101519.646
101519.712
101519.796
101519.892
101519.983
101520.071
101520.161
101520.251
101520.342
101520.434
101520.529
101520.626
101520.727
101520.833
101520.948
101521.074
101521.214
101521.372
101521.553
101521.766
101522.014
101522.305
101522.651
101523.051
101523.517
101524.114
101524.602
101525.531
101527.463
101528.097
101528.126
101528.885
101529.872
101531.22
101532.494
101533.787
101535.063
101536.378
101537.642
101538.627
101539.605
101540.841
101542.021
101543.125
101544.413
101546.123
101547.599
101517.103
101517.097
101517.092
101517.09
101517.09
101517.092
101517.097
101517.104
101517.115
101517.128
101517.146
101517.166
101517.19
101517.217
101517.247
101517.281
101517.319
101517.361
101517.407
101517.456
101517.51
101517.568
101517.63
101517.695
101517.765
101517.838
101517.911
101517.991
101518.087
101518.183
101518.261
101518.342
101518.436
101518.539
101518.638
101518.737
101518.839
101518.941
101519.046
101519.152
101519.26
101519.371
101519.487
101519.608
101519.736
101519.874
101520.025
101520.192
101520.379
101520.592
101520.835
101521.114
101521.433
101521.805
101522.236
101522.735
101523.233
101523.729
101524.573
101526.291
101527.602
101528.002
101528.603
101529.256
101530.116
101531.458
101532.631
101533.665
101534.668
101535.654
101536.633
101537.712
101538.916
101540.195
101541.567
101542.973
101544.504
101545.926
101547.471
101548.745
101515.455
101515.452
101515.449
101515.45
101515.453
101515.459
101515.468
101515.481
101515.497
101515.517
101515.539
101515.566
101515.596
101515.631
101515.669
101515.712
101515.759
101515.81
101515.866
101515.926
101515.99
101516.059
101516.131
101516.205
101516.288
101516.384
101516.473
101516.555
101516.65
101516.753
101516.858
101516.963
101517.07
101517.18
101517.292
101517.407
101517.524
101517.645
101517.769
101517.898
101518.033
101518.175
101518.327
101518.491
101518.671
101518.868
101519.089
101519.336
101519.614
101519.928
101520.281
101520.681
101521.124
101521.611
101522.181
101522.967
101523.96
101525.327
101526.418
101526.58
101526.916
101527.807
101529.096
101530.003
101530.691
101531.409
101532.291
101533.508
101534.795
101536.072
101537.464
101539.078
101540.551
101541.851
101543.182
101544.582
101546.013
101547.513
101549.135
101550.8
101513.469
101513.469
101513.471
101513.476
101513.484
101513.495
101513.51
101513.528
101513.55
101513.577
101513.607
101513.642
101513.681
101513.724
101513.772
101513.825
101513.882
101513.945
101514.012
101514.083
101514.157
101514.238
101514.332
101514.422
101514.507
101514.604
101514.71
101514.816
101514.925
101515.038
101515.154
101515.274
101515.396
101515.522
101515.652
101515.786
101515.926
101516.072
101516.225
101516.389
101516.565
101516.756
101516.966
101517.197
101517.455
101517.744
101518.068
101518.431
101518.841
101519.296
101519.81
101520.402
101521.036
101521.627
101522.601
101523.932
101525.007
101525.442
101525.793
101526.578
101527.529
101528.605
101529.233
101530.06
101531.798
101533.388
101534.284
101535.1
101536.257
101537.492
101538.52
101539.541
101540.982
101542.635
101544.245
101545.82
101547.484
101549.105
101550.742
101552.545
101511.092
101511.097
101511.104
101511.115
101511.129
101511.147
101511.169
101511.195
101511.226
101511.261
101511.3
101511.345
101511.394
101511.448
101511.508
101511.572
101511.641
101511.714
101511.794
101511.885
101511.974
101512.062
101512.16
101512.266
101512.374
101512.485
101512.601
101512.72
101512.844
101512.971
101513.103
101513.239
101513.38
101513.527
101513.68
101513.841
101514.013
101514.196
101514.394
101514.61
101514.848
101515.111
101515.403
101515.729
101516.094
101516.502
101516.952
101517.449
101517.994
101518.568
101519.187
101519.918
101520.978
101522.482
101523.37
101523.704
101524.164
101524.828
101525.886
101527.109
101528.179
101528.89
101529.97
101531.551
101532.681
101533.44
101534.425
101535.933
101537.324
101538.722
101540.285
101542.042
101543.421
101544.541
101545.931
101547.394
101548.913
101550.508
101551.912
101553.575
101508.277
101508.288
101508.303
101508.321
101508.344
101508.37
101508.401
101508.437
101508.478
101508.523
101508.574
101508.63
101508.691
101508.757
101508.828
101508.905
101508.993
101509.081
101509.169
101509.267
101509.372
101509.48
101509.593
101509.71
101509.832
101509.958
101510.089
101510.224
101510.364
101510.51
101510.662
101510.82
101510.987
101511.164
101511.352
101511.555
101511.775
101512.015
101512.279
101512.572
101512.897
101513.258
101513.661
101514.11
101514.607
101515.16
101515.756
101516.405
101517.087
101517.775
101518.854
101520.321
101521.048
101521.417
101522.184
101523.381
101524.605
101525.626
101526.622
101527.532
101528.776
101530.391
101531.725
101532.652
101533.867
101535.184
101536.175
101537.095
101538.163
101539.336
101540.408
101541.257
101542.185
101543.838
101546.091
101548.352
101550.32
101552.437
101554.243
101555.14
101504.975
101504.994
101505.018
101505.046
101505.078
101505.115
101505.157
101505.205
101505.257
101505.314
101505.377
101505.446
101505.523
101505.603
101505.686
101505.777
101505.874
101505.977
101506.085
101506.198
101506.315
101506.438
101506.566
101506.7
101506.838
101506.982
101507.132
101507.288
101507.452
101507.625
101507.807
101508.002
101508.211
101508.438
101508.684
101508.955
101509.253
101509.583
101509.95
101510.356
101510.807
101511.306
101511.857
101512.463
101513.112
101513.837
101514.62
101515.579
101516.678
101518.028
101519.037
101519.418
101520.086
101521.061
101522.336
101523.488
101524.551
101525.957
101527.44
101528.696
101529.606
101530.315
101531.229
101532.438
101533.347
101534.326
101535.856
101537.342
101538.821
101540.275
101541.731
101543.606
101545.986
101548.213
101549.511
101550.493
101551.955
101553.471
101555.534
101557.436
101501.143
101501.172
101501.208
101501.248
101501.292
101501.341
101501.396
101501.456
101501.522
101501.594
101501.671
101501.753
101501.842
101501.937
101502.038
101502.144
101502.255
101502.373
101502.496
101502.624
101502.759
101502.899
101503.045
101503.198
101503.358
101503.525
101503.702
101503.89
101504.089
101504.304
101504.535
101504.787
101505.063
101505.366
101505.7
101506.07
101506.479
101506.932
101507.431
101507.979
101508.578
101509.227
101509.927
101510.678
101511.442
101512.253
101513.472
101514.84
101515.978
101516.711
101517.39
101518.459
101519.841
101521.497
101522.776
101523.718
101524.609
101525.478
101526.545
101527.636
101528.807
101530.039
101531.103
101532.514
101534.14
101535.745
101537.31
101539.126
101541.036
101542.98
101544.903
101546.553
101548.064
101549.108
101550.582
101552.946
101554.15
101555.145
101556.804
101558.816
101496.751
101496.792
101496.842
101496.895
101496.953
101497.016
101497.085
101497.16
101497.239
101497.325
101497.418
101497.515
101497.619
101497.728
101497.844
101497.965
101498.093
101498.226
101498.366
101498.512
101498.665
101498.825
101498.994
101499.172
101499.361
101499.563
101499.779
101500.013
101500.267
101500.545
101500.851
101501.189
101501.563
101501.98
101502.442
101502.956
101503.525
101504.154
101504.846
101505.603
101506.426
101507.313
101508.264
101509.278
101510.353
101511.4
101512.197
101512.983
101513.879
101514.971
101516.356
101517.707
101518.866
101520.072
101521.288
101522.69
101524.24
101525.439
101526.481
101527.756
101529.513
101531.414
101533.39
101534.884
101536.174
101537.68
101539.154
101540.544
101542.036
101543.599
101545.251
101546.887
101548.692
101550.599
101551.758
101552.867
101554.951
101557.353
101558.213
101559.182
101491.797
101491.852
101491.917
101491.985
101492.058
101492.136
101492.22
101492.31
101492.405
101492.506
101492.613
101492.726
101492.845
101492.97
101493.102
101493.239
101493.384
101493.535
101493.694
101493.862
101494.039
101494.226
101494.426
101494.64
101494.87
101495.12
101495.392
101495.691
101496.019
101496.382
101496.783
101497.228
101497.72
101498.264
101498.863
101499.521
101500.239
101501.019
101501.864
101502.776
101503.746
101504.806
101505.911
101507.046
101508.171
101509.255
101510.524
101511.909
101513.204
101514.442
101515.744
101517.056
101518.164
101519.178
101520.422
101521.861
101523.541
101525.682
101527.853
101529.672
101531.161
101532.625
101534.147
101535.88
101537.343
101538.59
101539.967
101541.409
101542.819
101544.15
101545.692
101547.559
101549.622
101551.759
101553.738
101555.632
101557.249
101558.244
101559.244
101561.439
101486.319
101486.389
101486.471
101486.556
101486.645
101486.74
101486.84
101486.945
101487.056
101487.174
101487.297
101487.427
101487.563
101487.706
101487.856
101488.014
101488.181
101488.357
101488.544
101488.743
101488.957
101489.188
101489.437
101489.709
101490.007
101490.335
101490.697
101491.098
101491.542
101492.033
101492.576
101493.174
101493.83
101494.545
101495.318
101496.148
101497.029
101497.946
101498.885
101499.864
101500.826
101502.136
101503.842
101505.325
101506.786
101508.426
101509.958
101511.3
101512.794
101514.334
101515.87
101517.49
101519.257
101521.003
101522.582
101524.134
101525.543
101526.769
101528.125
101529.798
101531.548
101533.056
101534.389
101535.755
101537.326
101539.057
101540.817
101542.675
101544.615
101546.562
101548.281
101549.857
101551.441
101553.042
101554.599
101556.167
101557.869
101559.883
101562.021
101563.536
101480.379
101480.465
101480.566
101480.668
101480.774
101480.885
101481.001
101481.124
101481.252
101481.387
101481.529
101481.678
101481.836
101482.002
101482.177
101482.365
101482.564
101482.779
101483.01
101483.262
101483.536
101483.837
101484.169
101484.537
101484.944
101485.398
101485.902
101486.463
101487.085
101487.774
101488.534
101489.37
101490.283
101491.279
101492.36
101493.529
101494.784
101496.103
101497.477
101499.297
101501.795
101503.576
101504.629
101505.655
101506.784
101508.38
101510.115
101511.495
101512.769
101514.133
101515.667
101517.258
101518.738
101520.155
101521.46
101522.732
101524.209
101525.859
101527.359
101528.768
101530.491
101532.454
101534.321
101536.067
101537.832
101540.021
101542.497
101544.931
101546.868
101548.2
101550.055
101551.912
101553.455
101554.973
101556.363
101557.986
101559.469
101561.208
101563.363
101565.088
101474.107
101474.209
101474.327
101474.446
101474.568
101474.695
101474.827
101474.966
101475.112
101475.265
101475.426
101475.597
101475.779
101475.973
101476.181
101476.406
101476.65
101476.918
101477.211
101477.536
101477.896
101478.297
101478.744
101479.244
101479.802
101480.424
101481.117
101481.885
101482.733
101483.666
101484.684
101485.788
101486.977
101488.247
101489.593
101491.001
101492.453
101493.911
101495.364
101496.939
101498.134
101499.184
101500.569
101501.996
101503.697
101505.36
101506.9
101508.778
101510.568
101512.279
101514.187
101516.362
101518.679
101520.753
101522.661
101524.282
101525.576
101526.782
101528.061
101529.527
101531.488
101534.139
101536.842
101539.577
101542.213
101543.749
101544.763
101545.722
101547.228
101549.917
101551.657
101553.099
101555.241
101557.448
101559.47
101561.839
101563.959
101565.12
101566.458
101567.776
101485.71
101485.711
101485.711
101485.713
101485.714
101485.717
101485.719
101485.723
101485.726
101485.731
101485.736
101485.741
101485.748
101485.754
101485.762
101485.77
101485.778
101485.787
101485.797
101485.808
101485.82
101485.832
101485.845
101485.859
101485.874
101485.891
101485.908
101485.926
101485.946
101485.967
101485.989
101486.014
101486.04
101486.067
101486.097
101486.13
101486.165
101486.203
101486.243
101486.287
101486.335
101486.387
101486.443
101486.504
101486.57
101486.642
101486.721
101486.806
101486.898
101486.998
101487.104
101487.219
101487.348
101487.485
101487.627
101487.782
101487.946
101488.112
101488.277
101488.434
101488.576
101488.694
101488.773
101488.787
101488.706
101488.496
101488.152
101487.671
101487.057
101486.301
101485.408
101484.301
101482.916
101481.413
101479.85
101478.143
101476.317
101474.258
101471.738
101468.812
101489.619
101489.619
101489.62
101489.621
101489.624
101489.628
101489.632
101489.638
101489.644
101489.652
101489.66
101489.67
101489.681
101489.693
101489.705
101489.72
101489.735
101489.751
101489.769
101489.788
101489.809
101489.831
101489.855
101489.88
101489.907
101489.936
101489.967
101490
101490.035
101490.072
101490.112
101490.155
101490.2
101490.248
101490.3
101490.355
101490.413
101490.476
101490.543
101490.615
101490.692
101490.775
101490.864
101490.959
101491.061
101491.171
101491.289
101491.415
101491.55
101491.695
101491.851
101492.016
101492.188
101492.368
101492.558
101492.769
101492.991
101493.213
101493.439
101493.669
101493.904
101494.137
101494.354
101494.546
101494.684
101494.755
101494.741
101494.622
101494.41
101494.064
101493.618
101493.076
101492.407
101491.579
101490.647
101489.828
101489.368
101488.963
101487.615
101484.419
101493.39
101493.39
101493.391
101493.394
101493.397
101493.402
101493.408
101493.415
101493.424
101493.434
101493.446
101493.459
101493.473
101493.489
101493.506
101493.525
101493.546
101493.568
101493.592
101493.618
101493.646
101493.676
101493.708
101493.742
101493.779
101493.818
101493.859
101493.904
101493.951
101494.001
101494.054
101494.111
101494.171
101494.235
101494.304
101494.376
101494.452
101494.534
101494.622
101494.715
101494.814
101494.92
101495.032
101495.152
101495.279
101495.415
101495.561
101495.716
101495.881
101496.057
101496.245
101496.446
101496.659
101496.886
101497.127
101497.383
101497.651
101497.926
101498.213
101498.515
101498.823
101499.125
101499.412
101499.683
101499.95
101500.209
101500.451
101500.666
101500.727
101500.621
101500.476
101500.322
101500.097
101499.832
101499.511
101499.307
101499.695
101500.251
101501.406
101500.419
101496.982
101496.982
101496.983
101496.986
101496.99
101496.995
101497.003
101497.011
101497.022
101497.034
101497.047
101497.063
101497.08
101497.099
101497.119
101497.142
101497.167
101497.193
101497.222
101497.253
101497.286
101497.322
101497.36
101497.401
101497.444
101497.49
101497.539
101497.592
101497.647
101497.707
101497.769
101497.836
101497.907
101497.982
101498.061
101498.146
101498.236
101498.331
101498.432
101498.539
101498.652
101498.772
101498.9
101499.035
101499.178
101499.331
101499.493
101499.665
101499.847
101500.041
101500.247
101500.466
101500.698
101500.945
101501.208
101501.486
101501.78
101502.092
101502.427
101502.776
101503.133
101503.504
101503.883
101504.257
101504.592
101504.871
101505.055
101505.235
101505.484
101505.782
101506.102
101506.215
101506.175
101506.16
101506.044
101505.77
101505.979
101506.716
101507.272
101507.417
101500.361
101500.361
101500.363
101500.366
101500.37
101500.376
101500.384
101500.394
101500.406
101500.419
101500.434
101500.451
101500.47
101500.491
101500.514
101500.539
101500.566
101500.595
101500.627
101500.661
101500.698
101500.737
101500.779
101500.824
101500.872
101500.923
101500.977
101501.035
101501.096
101501.16
101501.229
101501.302
101501.379
101501.46
101501.547
101501.638
101501.736
101501.84
101501.949
101502.064
101502.186
101502.314
101502.45
101502.593
101502.745
101502.906
101503.076
101503.255
101503.446
101503.647
101503.859
101504.084
101504.322
101504.573
101504.84
101505.121
101505.417
101505.729
101506.056
101506.395
101506.757
101507.143
101507.553
101507.96
101508.356
101508.764
101509.194
101509.585
101509.851
101509.997
101509.951
101510.07
101510.43
101510.818
101511.088
101511.29
101511.259
101511.18
101511.414
101512.155
101503.507
101503.507
101503.508
101503.511
101503.516
101503.523
101503.531
101503.541
101503.553
101503.567
101503.583
101503.601
101503.621
101503.643
101503.667
101503.693
101503.722
101503.753
101503.786
101503.822
101503.861
101503.902
101503.946
101503.993
101504.043
101504.097
101504.153
101504.214
101504.277
101504.345
101504.416
101504.492
101504.572
101504.656
101504.746
101504.842
101504.943
101505.05
101505.162
101505.28
101505.404
101505.535
101505.673
101505.818
101505.972
101506.135
101506.306
101506.487
101506.678
101506.88
101507.093
101507.318
101507.555
101507.805
101508.07
101508.348
101508.641
101508.948
101509.272
101509.612
101509.968
101510.337
101510.714
101511.093
101511.496
101511.938
101512.414
101512.882
101513.307
101513.713
101514.127
101514.468
101514.542
101514.461
101514.623
101515.147
101515.976
101516.981
101517.379
101517.423
101506.407
101506.407
101506.408
101506.411
101506.416
101506.423
101506.431
101506.441
101506.453
101506.467
101506.483
101506.501
101506.522
101506.544
101506.568
101506.595
101506.624
101506.655
101506.689
101506.725
101506.764
101506.806
101506.851
101506.898
101506.949
101507.003
101507.06
101507.12
101507.184
101507.252
101507.324
101507.4
101507.481
101507.567
101507.658
101507.754
101507.854
101507.959
101508.069
101508.184
101508.307
101508.435
101508.571
101508.714
101508.865
101509.024
101509.192
101509.369
101509.555
101509.751
101509.958
101510.176
101510.407
101510.65
101510.905
101511.173
101511.455
101511.753
101512.068
101512.398
101512.744
101513.107
101513.485
101513.877
101514.295
101514.74
101515.198
101515.656
101516.148
101516.705
101517.297
101517.867
101518.442
101519.049
101519.554
101519.812
101519.852
101519.777
101520.353
101521.335
101509.055
101509.055
101509.056
101509.059
101509.064
101509.07
101509.078
101509.088
101509.1
101509.113
101509.129
101509.146
101509.166
101509.188
101509.212
101509.238
101509.266
101509.297
101509.33
101509.366
101509.404
101509.445
101509.489
101509.535
101509.585
101509.638
101509.694
101509.753
101509.817
101509.884
101509.954
101510.029
101510.108
101510.19
101510.277
101510.369
101510.464
101510.565
101510.67
101510.781
101510.899
101511.022
101511.152
101511.289
101511.433
101511.585
101511.745
101511.913
101512.091
101512.278
101512.475
101512.682
101512.902
101513.134
101513.377
101513.632
101513.902
101514.187
101514.489
101514.805
101515.14
101515.495
101515.871
101516.269
101516.692
101517.132
101517.585
101518.058
101518.581
101519.133
101519.662
101520.184
101520.756
101521.375
101522.041
101522.648
101523.18
101523.806
101524.378
101524.532
101511.455
101511.454
101511.455
101511.457
101511.461
101511.467
101511.474
101511.483
101511.494
101511.507
101511.522
101511.538
101511.557
101511.578
101511.6
101511.625
101511.652
101511.682
101511.713
101511.748
101511.785
101511.824
101511.866
101511.911
101511.959
101512.009
101512.062
101512.119
101512.178
101512.241
101512.308
101512.378
101512.452
101512.529
101512.611
101512.696
101512.786
101512.88
101512.979
101513.084
101513.194
101513.31
101513.432
101513.56
101513.695
101513.838
101513.988
101514.146
101514.312
101514.487
101514.672
101514.869
101515.078
101515.297
101515.528
101515.771
101516.029
101516.303
101516.59
101516.891
101517.213
101517.558
101517.924
101518.313
101518.727
101519.169
101519.64
101520.145
101520.674
101521.211
101521.759
101522.365
101523.02
101523.646
101524.181
101524.723
101525.376
101526.043
101526.701
101527.498
101513.61
101513.609
101513.609
101513.61
101513.613
101513.618
101513.624
101513.632
101513.642
101513.654
101513.667
101513.682
101513.7
101513.719
101513.74
101513.763
101513.788
101513.815
101513.844
101513.876
101513.91
101513.946
101513.985
101514.026
101514.07
101514.116
101514.166
101514.218
101514.273
101514.331
101514.392
101514.456
101514.524
101514.595
101514.67
101514.749
101514.831
101514.919
101515.01
101515.107
101515.208
101515.314
101515.427
101515.546
101515.67
101515.8
101515.937
101516.083
101516.24
101516.404
101516.579
101516.763
101516.958
101517.163
101517.378
101517.607
101517.851
101518.115
101518.398
101518.697
101519.004
101519.325
101519.678
101520.062
101520.472
101520.908
101521.374
101521.876
101522.416
101522.995
101523.615
101524.262
101524.9
101525.539
101526.187
101526.872
101527.594
101528.138
101528.654
101529.313
101515.53
101515.528
101515.527
101515.527
101515.529
101515.532
101515.536
101515.543
101515.551
101515.56
101515.572
101515.585
101515.6
101515.617
101515.635
101515.656
101515.678
101515.702
101515.729
101515.757
101515.788
101515.82
101515.855
101515.892
101515.932
101515.974
101516.018
101516.065
101516.115
101516.167
101516.222
101516.281
101516.342
101516.407
101516.474
101516.545
101516.62
101516.698
101516.781
101516.869
101516.961
101517.057
101517.156
101517.26
101517.374
101517.497
101517.625
101517.761
101517.902
101518.053
101518.215
101518.386
101518.564
101518.754
101518.957
101519.172
101519.401
101519.647
101519.911
101520.202
101520.525
101520.871
101521.219
101521.571
101521.953
101522.366
101522.835
101523.358
101523.911
101524.499
101525.126
101525.795
101526.504
101527.242
101527.992
101528.718
101529.341
101529.939
101530.573
101531.3
101517.223
101517.219
101517.216
101517.215
101517.215
101517.216
101517.219
101517.223
101517.229
101517.237
101517.246
101517.256
101517.268
101517.282
101517.298
101517.316
101517.335
101517.356
101517.379
101517.403
101517.43
101517.459
101517.49
101517.522
101517.557
101517.595
101517.634
101517.675
101517.719
101517.765
101517.814
101517.866
101517.92
101517.977
101518.037
101518.101
101518.168
101518.237
101518.308
101518.382
101518.46
101518.547
101518.641
101518.74
101518.841
101518.947
101519.06
101519.183
101519.314
101519.451
101519.595
101519.75
101519.916
101520.094
101520.284
101520.487
101520.706
101520.939
101521.19
101521.457
101521.746
101522.059
101522.414
101522.819
101523.259
101523.719
101524.169
101524.628
101525.131
101525.675
101526.317
101527.048
101527.816
101528.614
101529.436
101530.268
101531.094
101531.913
101532.594
101533.104
101518.702
101518.697
101518.691
101518.688
101518.685
101518.684
101518.685
101518.687
101518.69
101518.695
101518.701
101518.708
101518.718
101518.728
101518.741
101518.755
101518.771
101518.788
101518.807
101518.828
101518.85
101518.875
101518.901
101518.929
101518.959
101518.991
101519.024
101519.06
101519.098
101519.138
101519.181
101519.227
101519.274
101519.323
101519.373
101519.425
101519.479
101519.539
101519.606
101519.676
101519.749
101519.823
101519.901
101519.984
101520.073
101520.168
101520.269
101520.376
101520.491
101520.614
101520.747
101520.889
101521.042
101521.207
101521.385
101521.577
101521.783
101522.006
101522.245
101522.503
101522.781
101523.08
101523.402
101523.748
101524.12
101524.552
101525.047
101525.588
101526.191
101526.878
101527.562
101528.193
101528.865
101529.596
101530.382
101531.199
101532.114
101533.1
101533.979
101534.703
101519.97
101519.962
101519.954
101519.948
101519.943
101519.939
101519.937
101519.936
101519.936
101519.938
101519.941
101519.945
101519.951
101519.959
101519.968
101519.978
101519.99
101520.004
101520.019
101520.036
101520.055
101520.075
101520.097
101520.121
101520.147
101520.175
101520.204
101520.235
101520.267
101520.3
101520.335
101520.371
101520.408
101520.449
101520.494
101520.543
101520.593
101520.643
101520.695
101520.751
101520.81
101520.873
101520.94
101521.012
101521.088
101521.17
101521.257
101521.352
101521.454
101521.564
101521.683