/*--------------------------------*- C++ -*----------------------------------*\
  =========                 |
  \\      /  F ield         | OpenFOAM: The Open Source CFD Toolbox
   \\    /   O peration     | Website:  https://openfoam.org
    \\  /    A nd           | Version:  8
     \\/     M anipulation  |
\*---------------------------------------------------------------------------*/
FoamFile
{
    version     2.0;
    format      ascii;
    class       surfaceScalarField;
    location    "0.047";
    object      phi;
}
// * * * * * * * * * * * * * * * * * * * * * * * * * * * * * * * * * * * * * //

dimensions      [1 0 -1 0 0 0 0];

internalField   nonuniform List<scalar> 
84340
(
-7.3503611e-08
3.62024379e-07
-2.88414015e-07
-2.93864741e-07
1.10244397e-06
-8.81910141e-07
-6.65478424e-07
1.87967324e-06
-1.50784594e-06
-1.19293212e-06
2.69189679e-06
-2.16419399e-06
-1.88119376e-06
3.53932819e-06
-2.85078589e-06
-2.73555645e-06
4.423153e-06
-3.56848019e-06
-3.76162174e-06
5.34537512e-06
-4.31897074e-06
-4.96525585e-06
6.30851227e-06
-5.10450949e-06
-6.35253248e-06
7.31528577e-06
-5.92760937e-06
-7.9296668e-06
8.36837274e-06
-6.79080551e-06
-9.70293943e-06
9.47025766e-06
-7.69651632e-06
-1.16786088e-05
1.062316e-05
-8.64698319e-06
-1.38628114e-05
1.18290167e-05
-9.64426447e-06
-1.62614521e-05
1.30894983e-05
-1.06902622e-05
-1.88800745e-05
1.44060336e-05
-1.17867657e-05
-2.1723736e-05
1.57798534e-05
-1.29354916e-05
-2.47968555e-05
1.72120186e-05
-1.41381389e-05
-2.81030666e-05
1.87034507e-05
-1.5396414e-05
-3.16450497e-05
2.02549567e-05
-1.67120759e-05
-3.54243566e-05
2.18672386e-05
-1.80869551e-05
-3.94412169e-05
2.35408988e-05
-1.95229749e-05
-4.36943247e-05
2.52764326e-05
-2.10221657e-05
-4.81805944e-05
2.70742031e-05
-2.25866687e-05
-5.28949012e-05
2.89344121e-05
-2.42187246e-05
-5.7829767e-05
3.08570369e-05
-2.59206617e-05
-6.29750163e-05
3.28417608e-05
-2.76948607e-05
-6.83173775e-05
3.48878658e-05
-2.95436966e-05
-7.38400202e-05
3.69941082e-05
-3.14694848e-05
-7.95220156e-05
3.9158546e-05
-3.34743782e-05
-8.53376842e-05
4.13783074e-05
-3.5560256e-05
-9.12558211e-05
4.36493329e-05
-3.77285798e-05
-9.7238947e-05
4.59662143e-05
-3.99802167e-05
-0.000103242856
4.83223065e-05
-4.23152438e-05
-0.000109216525
5.07097943e-05
-4.47326626e-05
-0.000115101697
5.31190268e-05
-4.72300537e-05
-0.000120830142
5.55359746e-05
-4.98033665e-05
-0.000126312348
5.79343731e-05
-5.24476013e-05
-0.000131450114
6.03001226e-05
-5.51573425e-05
-0.000136136788
6.26179651e-05
-5.79258123e-05
-0.000140278109
6.48855016e-05
-6.07381981e-05
-0.000143765131
6.70439053e-05
-6.35504691e-05
-0.000146405277
6.90087737e-05
-6.63617866e-05
-0.000147876889
7.06605029e-05
-6.91813569e-05
-0.000147848116
7.19536684e-05
-7.19741637e-05
-0.000145997601
7.27974576e-05
-7.46389636e-05
-0.000142014977
7.3071791e-05
-7.70446171e-05
-0.000135472409
7.26301013e-05
-7.91621044e-05
-0.00012590566
7.13146757e-05
-8.08700353e-05
-0.000112783764
6.89763604e-05
-8.2085988e-05
-9.55965755e-05
6.54356331e-05
-8.26096471e-05
-7.37276443e-05
6.03992782e-05
-8.22540885e-05
-4.66390145e-05
5.3767747e-05
-8.08412672e-05
-1.41351765e-05
4.56714587e-05
-7.81591578e-05
2.46026902e-05
3.50846535e-05
-7.3805189e-05
7.06358935e-05
2.17722669e-05
-6.77871427e-05
0.000125107908
5.23889241e-06
-5.96915504e-05
0.000189328483
-1.4546317e-05
-4.9653214e-05
0.000264822179
-3.90003179e-05
-3.64702748e-05
0.000353459383
-6.86471861e-05
-1.99647784e-05
0.000456776202
-0.000104001186
7.12006546e-07
0.00057668109
-0.000145581639
2.57070404e-05
0.000715271002
-0.000194547967
5.59916498e-05
0.000874359099
-0.000252020747
9.29700222e-05
0.00105636799
-0.000319081914
0.000137114817
0.00126444653
-0.000397143346
0.000189111135
0.0015011275
-0.000486854012
0.000250220516
0.00176846417
-0.000590223786
0.000322931435
0.00207578084
-0.000717048125
0.000409773064
0.00241603309
-0.000837974513
0.000497760272
0.00276382775
-0.000959661583
0.000611900609
0.00316730471
-0.00119458945
0.000791141178
0.00369310108
-0.00138242178
0.000856649289
0.00416518125
-0.00140304639
0.000930984464
0.00447555745
-0.00167500147
0.00136464
0.00496146672
-0.00211498947
0.00162908906
0.00572910442
-0.00229600548
0.00152836967
0.00635043244
-0.00223252496
0.00161119288
0.00663020646
-0.00247151229
0.00219172716
0.00682512294
-0.0028065811
0.00261161596
-0.00301307193
0.00266738519
0.00717075634
-5.98978533e-08
4.22008616e-07
-2.39367014e-07
1.28203305e-06
-5.41792021e-07
2.18223455e-06
-9.70760763e-07
3.12101754e-06
-1.53001153e-06
4.0987465e-06
-2.22359517e-06
5.11692014e-06
-3.05575838e-06
6.17773887e-06
-4.03088716e-06
7.28386013e-06
-5.15343016e-06
8.43806837e-06
-6.42781272e-06
9.64301766e-06
-7.85833939e-06
1.09010721e-05
-9.44908566e-06
1.22142224e-05
-1.12037738e-05
1.35840527e-05
-1.31256322e-05
1.50117397e-05
-1.52172474e-05
1.64980711e-05
-1.74803859e-05
1.80434575e-05
-1.99158121e-05
1.96479589e-05
-2.25230855e-05
2.13112915e-05
-2.53003314e-05
2.30328293e-05
-2.82439985e-05
2.48115977e-05
-3.13485863e-05
2.66462507e-05
-3.46063383e-05
2.85350278e-05
-3.80069104e-05
3.04757061e-05
-4.15369905e-05
3.24655186e-05
-4.5179868e-05
3.45010465e-05
-4.89149561e-05
3.65780958e-05
-5.2717227e-05
3.86915103e-05
-5.65565972e-05
4.08349892e-05
-6.03973176e-05
4.30009283e-05
-6.41974628e-05
4.51802776e-05
-6.79082766e-05
4.73621512e-05
-7.14730349e-05
4.95331683e-05
-7.48251764e-05
5.16768551e-05
-7.78867229e-05
5.3773983e-05
-8.0573973e-05
5.58091594e-05
-8.28010302e-05
5.77661345e-05
-8.44895359e-05
5.96262324e-05
-8.55042138e-05
6.13184739e-05
-8.56672442e-05
6.2785022e-05
-8.47107302e-05
6.39333443e-05
-8.23560013e-05
6.46938898e-05
-7.8325029e-05
6.49829514e-05
-7.23497755e-05
6.46908808e-05
-6.40964581e-05
6.370646e-05
-5.31782533e-05
6.18858774e-05
-3.91828535e-05
5.90835604e-05
-2.16120195e-05
5.50670266e-05
-8.93794938e-08
4.98004241e-05
2.59146423e-05
4.29814154e-05
5.65264265e-05
3.48336798e-05
9.27603741e-05
2.41757936e-05
0.000135537864
1.10013911e-05
0.000185993323
-4.77180973e-06
0.00024534055
-2.4249119e-05
0.000315054902
-4.79273316e-05
0.00039648859
-7.61785235e-05
0.000491466689
-0.000109506455
0.000601216444
-0.000148730119
0.000727300864
-0.000194709399
0.000871628578
-0.000248303884
0.00103648657
-0.000310411656
0.00122433875
-0.000382368895
0.00143771467
-0.000465363141
0.00167874367
-0.000560077191
0.00194962968
-0.000667997506
0.00225214951
-0.000789343772
0.00258385504
-0.000921901681
0.00295042939
-0.00108359706
0.00336528461
-0.00125280724
0.00379126923
-0.00138562649
0.00418333339
-0.00158663762
0.00466932021
-0.00186839595
0.00528214258
-0.00201586044
0.00573410001
-0.00212695424
0.00603525856
-0.00241614759
0.00641985411
-0.00268060468
0.00695607032
-0.00276874881
0.00731129502
-0.00282674895
0.00743893173
-0.00293423551
-0.00308273052
0.00750856207
-4.74865818e-08
4.69671875e-07
-1.89369804e-07
1.42416718e-06
-4.27726957e-07
2.42088087e-06
-7.64812088e-07
3.45842702e-06
-1.20299746e-06
4.53728911e-06
-1.74462672e-06
5.65893838e-06
-2.39220264e-06
6.82573554e-06
-3.14825069e-06
8.04036143e-06
-4.01519246e-06
9.3054973e-06
-4.99523824e-06
1.06235862e-05
-6.09026712e-06
1.19966616e-05
-7.30169372e-06
1.34262497e-05
-8.63032017e-06
1.49133228e-05
-1.00761703e-05
1.64582793e-05
-1.16383028e-05
1.80609423e-05
-1.33146111e-05
1.9720557e-05
-1.51015896e-05
2.14357856e-05
-1.69940898e-05
2.32047007e-05
-1.89850385e-05
2.50247534e-05
-2.10651339e-05
2.68927398e-05
-2.32225073e-05
2.88047489e-05
-2.54423465e-05
3.07560762e-05
-2.77064551e-05
3.27411166e-05
-2.99927116e-05
3.47531777e-05
-3.2274492e-05
3.67843404e-05
-3.45200668e-05
3.88253047e-05
-3.66919662e-05
4.08651765e-05
-3.87462195e-05
4.28911535e-05
-4.06322016e-05
4.48889806e-05
-4.22931058e-05
4.68434298e-05
-4.36657382e-05
4.87372301e-05
-4.46822895e-05
5.0552353e-05
-4.5273101e-05
5.22705056e-05
-4.53374659e-05
5.38414391e-05
-4.4746364e-05
5.52214007e-05
-4.33321372e-05
5.63555328e-05
-4.08846217e-05
5.7182671e-05
-3.71856289e-05
5.76237668e-05
-3.19911757e-05
5.75952473e-05
-2.5046597e-05
5.69938674e-05
-1.60785726e-05
5.57314003e-05
-4.76973541e-06
5.36801066e-05
9.22718964e-06
5.07004364e-05
2.63590396e-05
4.65815998e-05
4.70251512e-05
4.122729e-05
7.13381778e-05
3.47786459e-05
0.000100038315
2.63756502e-05
0.000133865419
1.59825654e-05
0.000173635885
3.22066202e-06
0.000220315311
-1.18351614e-05
0.000275035721
-3.05330341e-05
0.000339081508
-5.30318342e-05
0.000414072823
-7.97494849e-05
0.000501042844
-0.000111204273
0.000601218998
-0.000148087255
0.000716159145
-0.0001911008
0.000847652624
-0.000240980203
0.000997584929
-0.000298640664
0.00116780207
-0.000364902679
0.00136046696
-0.000440942411
0.0015777823
-0.000527699543
0.00182155493
-0.000626114757
0.00209393381
-0.000737716764
0.00239540306
-0.00086152249
0.00272565856
-0.00099823076
0.00308525366
-0.00114891805
0.00347128882
-0.00130791805
0.00387121259
-0.00148350375
0.00429755784
-0.00167913793
0.00476790603
-0.00185596235
0.00519874342
-0.00201746566
0.00556638661
-0.00223603245
0.00598715142
-0.00243662175
0.00641580434
-0.00255560607
0.00666615364
-0.00266649836
0.00678306055
-0.00279751477
0.00693418872
-0.0029198822
0.00713538631
-0.00302795543
0.00732405896
-0.00312292159
-0.00320302257
0.00744433545
-3.93960915e-08
5.09111545e-07
-1.5600841e-07
1.54083679e-06
-3.5040936e-07
2.61534477e-06
-6.23187589e-07
3.73127449e-06
-9.75073523e-07
4.88925147e-06
-1.40672392e-06
6.09067348e-06
-1.91854951e-06
7.33765553e-06
-2.51072998e-06
8.63264758e-06
-3.18330851e-06
9.97819472e-06
-3.93589082e-06
1.13763027e-05
-4.76749422e-06
1.28284169e-05
-5.67639154e-06
1.43353192e-05
-6.65992812e-06
1.58970547e-05
-7.71432986e-06
1.75129025e-05
-8.8344853e-06
1.91813489e-05
-1.00136986e-05
2.09000548e-05
-1.12434275e-05
2.26658361e-05
-1.25129794e-05
2.44746156e-05
-1.38091671e-05
2.63213501e-05
-1.51158735e-05
2.81999057e-05
-1.64135518e-05
3.01029428e-05
-1.76787129e-05
3.20218136e-05
-1.88835453e-05
3.39465924e-05
-1.99955889e-05
3.58659369e-05
-2.09778631e-05
3.77674101e-05
-2.17886892e-05
3.96370123e-05
-2.23816173e-05
4.14590767e-05
-2.27057096e-05
4.32163138e-05
-2.26950498e-05
4.48794934e-05
-2.22689667e-05
4.6418629e-05
-2.13313763e-05
4.7801044e-05
-1.97665212e-05
4.89890314e-05
-1.74262114e-05
4.99318683e-05
-1.41529226e-05
5.05699653e-05
-9.76588968e-06
5.08363381e-05
-4.05794689e-06
5.06497358e-05
3.21271663e-06
4.99143455e-05
1.22850022e-05
4.85540125e-05
2.34326535e-05
4.6450337e-05
3.69570789e-05
4.34724043e-05
5.32554254e-05
3.94362549e-05
7.27128783e-05
3.42261157e-05
9.54655754e-05
2.79514884e-05
0.000122225137
1.98260214e-05
0.000153639006
9.81765788e-06
0.000190498113
-2.0758107e-06
0.000233666986
-1.67881114e-05
0.000284198407
-3.45432746e-05
0.000343156709
-5.57315023e-05
0.000412094004
-8.07656725e-05
0.000491792471
-0.000110223973
0.000583468144
-0.00014469909
0.000688537346
-0.000184809227
0.000808590374
-0.00023124659
0.000945231317
-0.000284716161
0.0011001582
-0.000346014154
0.00127512194
-0.00041592873
0.00147194631
-0.000495447836
0.00169243516
-0.000585373386
0.00193812032
-0.000686609627
0.00221004298
-0.000799604806
0.00250808364
-0.000924138471
0.00283248962
-0.00106210663
0.00318099705
-0.00121001442
0.00355071244
-0.00136793175
0.00393529219
-0.00153348432
0.00433842839
-0.00171104226
0.00474154663
-0.00188661128
0.00512813029
-0.00206571331
0.00550520989
-0.00223303592
0.00585527819
-0.00236753034
0.00610877522
-0.00248952751
0.00627793833
-0.00260578522
0.00643783175
-0.00271550213
0.00659718863
-0.00282585947
0.00673263378
-0.0029329643
0.00684143214
-0.00302868734
0.00693852897
-0.00312506192
0.00703945849
-0.00322386306
-0.00332012451
0.0071565497
-3.64604295e-08
5.45742384e-07
-1.42885599e-07
1.64749727e-06
-3.18105688e-07
2.79083103e-06
-5.60893928e-07
3.97435741e-06
-8.69905087e-07
5.19858414e-06
-1.24376516e-06
6.46488101e-06
-1.68073565e-06
7.77499938e-06
-2.17855508e-06
9.13086657e-06
-2.73426159e-06
1.05343278e-05
-3.34431575e-06
1.19868113e-05
-4.00425544e-06
1.34888404e-05
-4.70849733e-06
1.50400755e-05
-5.45012184e-06
1.66392262e-05
-6.22063385e-06
1.82839957e-05
-7.00969599e-06
1.99710288e-05
-7.80482753e-06
2.16958427e-05
-8.59102598e-06
2.34527326e-05
-9.35035943e-06
2.52346913e-05
-1.00616414e-05
2.70334222e-05
-1.06999758e-05
2.88390823e-05
-1.12372657e-05
3.06411316e-05
-1.16413687e-05
3.24268742e-05
-1.18758399e-05
3.41820855e-05
-1.18948671e-05
3.5886058e-05
-1.16453365e-05
3.75190529e-05
-1.10648612e-05
3.90577943e-05
-1.00795637e-05
4.04751289e-05
-8.60025631e-06
4.1738459e-05
-6.52852292e-06
4.2809328e-05
-3.74916809e-06
4.36409639e-05
-1.25215019e-07
4.41789152e-05
4.50708008e-06
4.43587155e-05
1.03367991e-05
4.41043007e-05
1.75571722e-05
4.33519206e-05
2.63903499e-05
4.20056863e-05
3.70838124e-05
3.995901e-05
4.99101658e-05
3.7090959e-05
6.52281303e-05
3.32392569e-05
8.3405662e-05
2.82762889e-05
0.000104610365
2.22714788e-05
0.000129508563
1.454207e-05
0.000158694157
5.04478004e-06
0.000192858301
-6.20800868e-06
0.000232771981
-2.00825729e-05
0.000279349093
-3.67539312e-05
0.000333858074
-5.65787918e-05
0.000397053223
-7.99767369e-05
0.000469963511
-0.000107446453
0.000553761854
-0.000139522073
0.000649780299
-0.000176775572
0.000759383408
-0.000219817676
0.000884000774
-0.000269306135
0.00102512353
-0.000325920704
0.0011842634
-0.000390374095
0.00136296243
-0.000463401575
0.00156279008
-0.000545826836
0.00178506535
-0.000638188598
0.00203067493
-0.000741042438
0.00229986357
-0.000854547691
0.00259226488
-0.000978997129
0.00290669563
-0.00111402248
0.00324058208
-0.00125801239
0.00359076331
-0.00141227615
0.00395110086
-0.00157034085
0.00432079237
-0.00173761317
0.00468835461
-0.0019010375
0.00503526053
-0.00205794104
0.00534512004
-0.00219646522
0.00560356198
-0.00232415122
0.00580577061
-0.00243524158
0.00597498043
-0.00253673883
0.00611895079
-0.00263349847
0.00624549946
-0.00273233664
0.00635613346
-0.00282614108
0.00645309597
-0.00292282819
0.00654112895
-0.00302100207
0.00663036999
-0.0031179343
0.00671798892
-0.00321268935
0.00680478337
-0.00331066925
-0.00341096848
0.00689561626
-3.75393992e-08
5.83261003e-07
-1.45238443e-07
1.75516255e-06
-3.20048261e-07
2.96559945e-06
-5.58689919e-07
4.21295201e-06
-8.57550806e-07
5.49739419e-06
-1.21258171e-06
6.81985895e-06
-1.61936149e-06
8.1817256e-06
-2.07279279e-06
9.58424516e-06
-2.56649303e-06
1.10279777e-05
-3.09299955e-06
1.25132716e-05
-3.64348839e-06
1.40392888e-05
-4.20748496e-06
1.56040394e-05
-4.77257791e-06
1.72042963e-05
-5.32410761e-06
1.88355145e-05
-5.8448188e-06
2.04917437e-05
-6.31456066e-06
2.21656053e-05
-6.71015539e-06
2.38483681e-05
-7.00504721e-06
2.55296466e-05
-7.16748757e-06
2.71959519e-05
-7.16067942e-06
2.88323922e-05
-6.941802e-06
3.04224047e-05
-6.46123666e-06
3.19464948e-05
-5.66099182e-06
3.3382066e-05
-4.47690326e-06
3.47022369e-05
-2.83224911e-06
3.58747124e-05
-6.3574856e-07
3.68616563e-05
2.22055193e-06
3.76192457e-05
5.86370701e-06
3.8095779e-05
1.04326186e-05
3.8240953e-05
1.60834772e-05
3.79907057e-05
2.2994271e-05
3.72687912e-05
3.13645901e-05
3.59891378e-05
4.14161194e-05
3.40535896e-05
5.34182664e-05
3.13506707e-05
6.76911393e-05
2.77337954e-05
8.45819177e-05
2.30693024e-05
0.000104276003
1.73980427e-05
0.000127381162
1.01353466e-05
0.000154436762
1.22202299e-06
0.000186049992
-9.34029311e-06
0.000222910668
-2.23169995e-05
0.000265815624
-3.78584214e-05
0.000315897436
-5.6287888e-05
0.000373829845
-7.80128473e-05
0.000440559387
-0.000103481092
0.000517158218
-0.000133174949
0.00060480181
-0.000167617292
0.00070472344
-0.000207364615
0.000818209014
-0.000253003683
0.000946578672
-0.000305140688
0.001091152
-0.000364385797
0.00125321118
-0.000431359318
0.00143395283
-0.000506655446
0.00163454349
-0.000590956829
0.00185586305
-0.000684712618
0.00209833877
-0.000788293893
0.00236166265
-0.00090150383
0.00264449199
-0.00102386314
0.00294444118
-0.00115448843
0.00325856436
-0.001293112
0.0035835129
-0.00143896304
0.00391516191
-0.00158965368
0.00424719859
-0.00174430564
0.0045716172
-0.00189475297
0.00486680141
-0.00203279218
0.00512234856
-0.00215658035
0.00532862354
-0.00226421272
0.00549555517
-0.00236339367
0.00563607272
-0.00246466723
0.00576398873
-0.00256315754
0.00588091679
-0.00265366843
0.00598071771
-0.00273330275
0.00606728032
-0.0028189042
0.00614866005
-0.00290752582
0.00622516576
-0.00299933934
0.0062954918
-0.00309133351
0.00637088675
-0.00319333751
0.00645512757
-0.0032969401
0.00654982449
-0.00340537516
-0.00350833314
0.00664718097
-4.02368385e-08
6.2359586e-07
-1.53897537e-07
1.86895358e-06
-3.35664511e-07
3.14751014e-06
-5.79783821e-07
4.45722775e-06
-8.79889028e-07
5.797668e-06
-1.22885144e-06
7.16900179e-06
-1.61859844e-06
8.57166483e-06
-2.04002533e-06
1.00058763e-05
-2.48282613e-06
1.14709951e-05
-2.93447373e-06
1.29651483e-05
-3.38037274e-06
1.44854299e-05
-3.80370531e-06
1.60276275e-05
-4.18498608e-06
1.7585847e-05
-4.50160104e-06
1.91524145e-05
-4.72734112e-06
2.07177845e-05
-4.83169851e-06
2.22702801e-05
-4.77948283e-06
2.37964892e-05
-4.53018092e-06
2.52807022e-05
-4.03776591e-06
2.67039163e-05
-3.24914868e-06
2.80441779e-05
-2.10211353e-06
2.92757997e-05
-5.23533969e-07
3.03683764e-05
1.57285469e-06
3.12861736e-05
4.28313853e-06
3.19924872e-05
7.71656118e-06
3.24418675e-05
1.19976447e-05
3.25811991e-05
1.72680435e-05
3.23495282e-05
2.36880143e-05
3.16765499e-05
3.14476874e-05
3.04820902e-05
4.07653589e-05
2.86739194e-05
5.18822107e-05
2.6152909e-05
6.5081971e-05
2.27904383e-05
8.06765559e-05
1.8460172e-05
9.88706977e-05
1.3157812e-05
0.00012021185
6.39403214e-06
0.000145189201
-1.90654944e-06
0.000174337903
-1.17489991e-05
0.000208270509
-2.3795418e-05
0.000247682178
-3.81876157e-05
0.000293563516
-5.52193944e-05
0.000346523983
-7.52749963e-05
0.000407425425
-9.87571378e-05
0.000477244975
-0.00012610442
0.000557027808
-0.000157792331
0.000647877474
-0.000194327043
0.000750947105
-0.000236240476
0.000867406018
-0.00028407168
0.000998403791
-0.000338357401
0.00114502775
-0.00039962215
0.00130826203
-0.000468368914
0.00148892841
-0.000545045465
0.00168773134
-0.000630154821
0.00190504772
-0.000723964067
0.00214072912
-0.000826630598
0.00239394378
-0.000937919853
0.00266303545
-0.00105737834
0.00294552433
-0.00118398575
0.0032377013
-0.00131603336
0.00353492531
-0.001451706
0.00383103526
-0.00158921565
0.0041239035
-0.0017318254
0.00440322105
-0.00186896595
0.0046502043
-0.00199128434
0.00485972631
-0.00210427084
0.00502680855
-0.00219987056
0.00516256559
-0.00229233374
0.00528221308
-0.00238385754
0.00539119933
-0.00247237832
0.005486817
-0.00256028472
0.00557339185
-0.00264973339
0.00565517216
-0.00273545108
0.00573580627
-0.0028139403
0.00581197986
-0.0028950826
0.00588521349
-0.00298076673
0.00595987746
-0.00307401148
0.00603639867
-0.00316786224
0.0061129635
-0.0032699115
0.00619161259
-0.00337559893
0.00628294981
-0.00349672171
-0.00360802543
0.00638263521
-4.18409355e-08
6.65351319e-07
-1.57313962e-07
1.98430246e-06
-3.38231996e-07
3.32828388e-06
-5.7574019e-07
4.69457441e-06
-8.60002262e-07
6.08175379e-06
-1.17997628e-06
7.48878665e-06
-1.523146e-06
8.91463385e-06
-1.87521879e-06
1.03577378e-05
-2.219993e-06
1.18155481e-05
-2.53878262e-06
1.32837075e-05
-2.80995123e-06
1.475636e-05
-3.0083701e-06
1.62258002e-05
-3.10518371e-06
1.76824076e-05
-3.0670327e-06
1.91140047e-05
-2.85547425e-06
2.05059631e-05
-2.42651047e-06
2.18410504e-05
-1.72936298e-06
2.30990733e-05
-7.04607993e-07
2.42556776e-05
7.1528785e-07
2.52837515e-05
2.6073248e-06
2.61518739e-05
5.06007376e-06
2.68227873e-05
8.17400806e-06
2.72541832e-05
1.20629544e-05
2.73969747e-05
1.68603064e-05
2.719489e-05
2.27188359e-05
2.65831019e-05
2.9812213e-05
2.54875959e-05
3.83379002e-05
2.38236266e-05
4.85199117e-05
2.14943364e-05
6.06212373e-05
1.83805776e-05
7.48514287e-05
1.44435547e-05
9.15439075e-05
9.4602716e-06
0.000111134142
3.20006253e-06
0.000134035516
-4.44132245e-06
0.000160727903
-1.35346797e-05
0.000191760289
-2.46384371e-05
0.000227742728
-3.78890484e-05
0.000269539422
-5.35457207e-05
0.000317701615
-7.1957602e-05
0.000373004369
-9.34903101e-05
0.000436328316
-0.000118543221
0.000508601082
-0.000147547559
0.000590804645
-0.000180960397
0.000683961416
-0.000219260755
0.000789105063
-0.000262935384
0.000907247067
-0.000312468252
0.00103933479
-0.000368327165
0.00118621051
-0.000430946081
0.00134856054
-0.00050070577
0.00152686001
-0.00057791955
0.00172135256
-0.000662858919
0.00193193633
-0.000755626285
0.002157969
-0.000856184314
0.00239814279
-0.00096413453
0.00265035865
-0.00107884301
0.0029116403
-0.00119919801
0.00317827364
-0.00132400816
0.00344595469
-0.00145166332
0.00370941316
-0.00157948835
0.00396434019
-0.00170662967
0.00420244124
-0.00182731371
0.00440917616
-0.00193855778
0.00458069657
-0.0020404833
0.00471949438
-0.00213007933
0.00483443497
-0.00221920941
0.00493800817
-0.00230344229
0.00503157052
-0.00238589486
0.00511520329
-0.00246748947
0.0051907773
-0.00254795204
0.00525902083
-0.00262852877
0.00532077707
-0.0027114909
0.00537990993
-0.00279458671
0.00544381414
-0.00287784967
0.00551301429
-0.00296428877
0.00558713081
-0.00305488862
0.00566454705
-0.00315143532
0.00574900735
-0.00325233058
0.00583799156
-0.0033589033
0.00592867182
-0.00346628674
0.00602325268
-0.00359130986
-0.00370952948
0.0061247509
-3.8715957e-08
7.04069677e-07
-1.42049857e-07
2.08763207e-06
-2.98403411e-07
3.48462706e-06
-4.95106403e-07
4.89126195e-06
-7.18037129e-07
6.30466468e-06
-9.51304707e-07
7.7220303e-06
-1.17684009e-06
9.14014125e-06
-1.37394298e-06
1.05548084e-05
-1.51877769e-06
1.19603459e-05
-1.58431774e-06
1.33492055e-05
-1.53942697e-06
1.47114217e-05
-1.34810885e-06
1.60344286e-05
-9.6889937e-07
1.73031383e-05
-3.54090179e-07
1.8499129e-05
5.50848233e-07
1.96009514e-05
1.8083954e-06
2.0583423e-05
3.49002003e-06
2.14173616e-05
5.67694588e-06
2.2068658e-05
8.46252451e-06
2.24980731e-05
1.19534673e-05
2.26608255e-05
1.62715779e-05
2.25045666e-05
2.15558213e-05
2.1969826e-05
2.79641463e-05
2.09885341e-05
3.56759008e-05
1.94830194e-05
4.48973572e-05
1.73615319e-05
5.58557271e-05
1.45291169e-05
6.87414605e-05
1.0937791e-05
8.39103042e-05
6.32540087e-06
0.000101694475
5.96331585e-07
0.000122473793
-6.33581979e-06
0.00014668807
-1.47540396e-05
0.000174816431
-2.49283041e-05
0.000207403034
-3.70278929e-05
0.000245189444
-5.13210127e-05
0.000288671643
-6.81205025e-05
0.000338535167
-8.7752373e-05
0.00039556383
-0.000110574104
0.000460579836
-0.000136973236
0.000534451533
-0.000167361523
0.000618079928
-0.000202171005
0.000712375251
-0.000241842125
0.000818230497
-0.000286814724
0.000936486415
-0.000337515567
0.0010678935
-0.000394341161
0.00121306445
-0.000457637653
0.00137241841
-0.000527679332
0.00154612426
-0.000604649852
0.00173404286
-0.000688621954
0.00193569929
-0.000779573294
0.00215009118
-0.000877248004
0.00237559159
-0.000981123876
0.0026097532
-0.00109034311
0.00284941849
-0.00120379704
0.00309100256
-0.00132042434
0.00333030273
-0.00143849552
0.00356326093
-0.00155696374
0.00378392723
-0.00167232706
0.00398684008
-0.00178239881
0.00416347511
-0.00188326266
0.00431143216
-0.00197526874
0.00442768802
-0.00205481142
0.00452029184
-0.0021330849
0.00460537571
-0.00221516101
0.00468404305
-0.00229787502
0.00475841961
-0.00237781786
0.0048260814
-0.00245355575
0.00488778554
-0.00252919332
0.00494636953
-0.00260653642
0.00500417478
-0.0026863354
0.00506195109
-0.00276926958
0.00512286765
-0.00285550689
0.00518904283
-0.00294402929
0.00525849882
-0.00303374972
0.00532893737
-0.00312533199
0.0054040468
-0.00322655058
0.0054872122
-0.00333550208
0.0055775221
-0.00344921926
0.00567986991
-0.00356864027
0.00578293177
-0.00369437657
-0.00381875042
0.00589215016
-3.02983786e-08
7.34228204e-07
-1.04626964e-07
2.16176049e-06
-2.06834128e-07
3.58660322e-06
-3.19163795e-07
5.00333332e-06
-4.21756827e-07
6.4069748e-06
-4.92208246e-07
7.79217591e-06
-5.05036698e-07
9.15264207e-06
-4.31126784e-07
1.04805493e-05
-2.37114092e-07
1.17659622e-05
1.15364804e-07
1.29963334e-05
6.70208788e-07
1.4156162e-05
1.47743258e-06
1.52267661e-05
2.59429013e-06
1.61858185e-05
4.08594975e-06
1.70069831e-05
6.02660254e-06
1.7659788e-05
8.50124484e-06
1.81082453e-05
1.16067407e-05
1.83113046e-05
1.54534438e-05
1.82213671e-05
2.01669658e-05
1.77839366e-05
2.58903812e-05
1.69367682e-05
3.27853967e-05
1.56088809e-05
4.10370525e-05
1.37174716e-05
5.08529664e-05
1.11718912e-05
6.24157931e-05
7.91943092e-06
7.60313801e-05
3.74515669e-06
9.20023185e-05
-1.44263602e-06
0.000110665051
-7.72579473e-06
0.000132403998
-1.54144396e-05
0.000157635007
-2.46356076e-05
0.00018690815
-3.56099333e-05
0.000220729351
-4.85762495e-05
0.000259604
-6.38040035e-05
0.000304161331
-8.15863125e-05
0.00035508418
-0.000102244991
0.000413089768
-0.000126127257
0.000478937951
-0.000153601756
0.000553418962
-0.000185056336
0.000637333088
-0.000220888596
0.000731468499
-0.000261498166
0.00083657238
-0.000307276107
0.000953319324
-0.000358590256
0.00108227113
-0.000415767665
0.00122382827
-0.000479073768
0.00137817529
-0.000548689148
0.00154522267
-0.000624685857
0.00172455406
-0.000707011403
0.00191540074
-0.000795497035
0.00211654895
-0.000889770443
0.0023262147
-0.000989239095
0.00254193597
-0.00109296915
0.00276069226
-0.00119987989
0.00297886262
-0.00130851309
0.00319239641
-0.00141733036
0.00339693088
-0.00152495828
0.00358976805
-0.00163133214
0.00376350423
-0.00173069934
0.00391349254
-0.00182231484
0.0040379704
-0.00190687613
0.00413831578
-0.00198360736
0.00422336213
-0.00206031431
0.00430386809
-0.00213531665
0.00437499705
-0.00220421312
0.00443609677
-0.00227625992
0.00448830679
-0.00235008424
0.00453905633
-0.00242856684
0.00459408653
-0.00250858565
0.00465237858
-0.00258748564
0.00471133643
-0.00266549502
0.00477088698
-0.00274588727
0.00483134672
-0.00282973109
0.00489351502
-0.00291767788
0.00496052592
-0.00301104359
0.00503421596
-0.00310744401
0.00511034056
-0.00320146117
0.00518309367
-0.00329930854
0.00525897668
-0.00341138969
0.00533986677
-0.00353011357
0.00542968103
-0.00365845787
0.00553007548
-0.00379477259
-0.00392027385
0.00563159945
-1.55363063e-08
7.49675513e-07
-4.10665273e-08
2.18715851e-06
-5.44063044e-08
3.59978676e-06
-3.10882844e-08
4.97983749e-06
5.62915048e-08
6.3193973e-06
2.38682446e-07
7.60956811e-06
5.51198864e-07
8.83988969e-06
1.03375975e-06
9.99773276e-06
1.73181669e-06
1.10676289e-05
2.69712004e-06
1.20307317e-05
3.98859807e-06
1.28643623e-05
5.67345791e-06
1.35415597e-05
7.82791962e-06
1.4030984e-05
1.05392588e-05
1.42952433e-05
1.39066808e-05
1.42919356e-05
1.80428913e-05
1.39715728e-05
2.30758496e-05
1.32778514e-05
2.91502901e-05
1.21463972e-05
3.6430949e-05
1.05027127e-05
4.51046919e-05
8.26242241e-06
5.53441729e-05
5.3687567e-06
6.74146253e-05
1.64633953e-06
8.15814809e-05
-2.99568017e-06
9.81420403e-05
-8.64188975e-06
0.000117431296
-1.55449079e-05
0.000139825175
-2.38373681e-05
0.000165804116
-3.37056342e-05
0.000195757408
-4.53686756e-05
0.000230185216
-5.90644051e-05
0.000269628855
-7.50546065e-05
0.000314677436
-9.36259072e-05
0.000365959646
-0.000115087335
0.000424140042
-0.000139767867
0.000489908475
-0.000168014614
0.000563965455
-0.00020018545
0.00064700471
-0.000236642243
0.00073968952
-0.000277742383
0.000842626307
-0.000323826619
0.000956331336
-0.000375204417
0.00108119042
-0.000432136388
0.00121741317
-0.000494814155
0.00136498242
-0.000563338023
0.00152360113
-0.000637693499
0.00169264039
-0.000717729348
0.00187109853
-0.000803144839
0.00205760734
-0.000893520934
0.00225032252
-0.00098821277
0.00244688204
-0.00108633038
0.00264435132
-0.00118670866
0.00283940842
-0.00128802643
0.00302860968
-0.00138908124
0.00320855782
-0.00148846123
0.00337600286
-0.00158477535
0.00352667413
-0.00167562945
0.00365558028
-0.00176023817
0.00376223906
-0.00183735798
0.00385047836
-0.00191055391
0.00392537114
-0.00198176856
0.00399296402
-0.0020511998
0.00405380159
-0.00212115136
0.00411163131
-0.00219314581
0.00416927074
-0.00226185175
0.00422185001
-0.00232883852
0.00426894526
-0.00239717907
0.00431087589
-0.0024704973
0.00434967363
-0.00254738349
0.00438940812
-0.00262722077
0.00443415187
-0.00271023978
0.00448302594
-0.00279476319
0.00453548592
-0.00288219393
0.0045916873
-0.00297388296
0.00465535762
-0.00307471781
0.00473280297
-0.00318489334
0.00482027597
-0.00328893817
0.00490654605
-0.00338558249
0.00498869215
-0.00349353902
0.00507154452
-0.00361296836
0.00515324009
-0.00374015461
0.00523520738
-0.00387673899
-0.00399837152
0.00531330765
6.27931908e-09
7.4321132e-07
5.17237756e-08
2.14145067e-06
1.66033147e-07
3.48517392e-06
3.82051367e-07
4.76347961e-06
7.36535925e-07
5.96453983e-06
1.27087141e-06
7.07482802e-06
2.03182656e-06
8.07849866e-06
3.07245218e-06
8.95663954e-06
4.45300382e-06
9.68657687e-06
6.24195327e-06
1.02412477e-05
8.51675059e-06
1.05889951e-05
1.13659107e-05
1.06917925e-05
1.4889778e-05
1.05064698e-05
1.92022988e-05
9.9820335e-06
2.44315149e-05
9.0619866e-06
3.07226063e-05
7.67970238e-06
3.82391698e-05
5.76045972e-06
4.71439467e-05
3.24073922e-06
5.76656282e-05
-1.98995668e-08
7.00373425e-05
-4.11027392e-06
8.45190277e-05
-9.11397344e-06
0.000101402646
-1.52383912e-05
0.000121012676
-2.26068889e-05
0.000143758985
-3.13894496e-05
0.000169992288
-4.17795361e-05
0.000200141788
-5.3988272e-05
0.000234682437
-6.82477704e-05
0.000274124235
-8.48120486e-05
0.000319013609
-0.000103955445
0.000369927827
-0.000125970587
0.00042746707
-0.000151167006
0.00049224354
-0.000179865755
0.000564867231
-0.0002123936
0.000645926813
-0.000249076329
0.00073596804
-0.000290228899
0.000835466868
-0.000336143377
0.000944796537
-0.000387074436
0.00106418998
-0.000443222514
0.00119369774
-0.000504714691
0.00133314317
-0.000571584372
0.00148207645
-0.000643750023
0.00163973105
-0.000720995218
0.00180498709
-0.000802952134
0.00197635194
-0.000889096798
0.00215199574
-0.000978791141
0.0023297262
-0.00107125369
0.00250687706
-0.00116536571
0.00268056362
-0.00126001883
0.00284766644
-0.00135381319
0.00300509149
-0.00144545305
0.00315079009
-0.00153478126
0.00328117032
-0.0016188427
0.00339330432
-0.00169691036
0.003487576
-0.00176990197
0.00356306835
-0.00183573138
0.00362839896