/*--------------------------------*- C++ -*----------------------------------*\
  =========                 |
  \\      /  F ield         | OpenFOAM: The Open Source CFD Toolbox
   \\    /   O peration     | Website:  https://openfoam.org
    \\  /    A nd           | Version:  8
     \\/     M anipulation  |
\*---------------------------------------------------------------------------*/
FoamFile
{
    version     2.0;
    format      ascii;
    class       volScalarField;
    location    "0.047";
    object      T;
}
// * * * * * * * * * * * * * * * * * * * * * * * * * * * * * * * * * * * * * //

dimensions      [0 0 0 1 0 0 0];

internalField   nonuniform List<scalar> 
42400
(
472.190196
470.552453
468.871235
467.145267
465.373319
463.554222
461.686887
459.770323
457.803664
455.786191
453.717364
451.596856
449.424585
447.200757
444.925907
442.600943
440.227191
437.806446
435.341021
432.833793
430.288249
427.708533
425.099483
422.466659
419.816372
417.155691
414.492447
411.835208
409.193256
406.576524
403.995529
401.461277
398.985142
396.57874
394.253771
392.021866
389.894411
387.882363
385.996081
384.245191
382.638501
381.183859
379.888035
378.756558
377.793703
377.002406
376.38422
375.93942
375.666947
375.566183
375.625988
375.846803
376.220811
376.740515
377.394107
378.166962
379.040159
379.991806
380.9828
381.978737
382.961348
383.96486
384.617126
384.852981
384.652717
383.93673
382.921528
381.500785
379.626191
377.02576
373.419369
369.51131
364.923669
358.154207
351.263873
345.897412
339.18003
331.647833
323.283849
318.609678
472.227798
470.666133
469.063102
467.417557
465.728405
463.99462
462.215262
460.389498
458.516622
456.59608
454.627505
452.610743
450.54589
448.433331
446.273781
444.068326
441.818471
439.526185
437.193945
434.82479
432.422358
429.990931
427.535471
425.06165
422.575871
420.085281
417.597765
415.121935
412.667091
410.243172
407.860687
405.530621
403.264328
401.073398
398.969517
396.964319
395.069247
393.295411
391.653403
390.153112
388.803509
387.612423
386.586319
385.730061
385.046827
384.537958
384.202761
384.038871
384.038899
384.194587
384.498716
384.93645
385.489795
386.138264
386.849609
387.593461
388.35117
389.135987
389.660621
389.870798
389.739336
389.03863
388.095244
386.818853
385.128041
382.867691
379.91565
376.178933
371.789056
366.753247
360.627785
354.173063
347.973363
340.699276
332.960394
326.178088
320.545547
314.638374
309.668124
304.944251
472.275066
470.809033
469.304273
467.759795
466.17467
464.548048
462.879173
461.167399
459.412221
457.613289
455.770448
453.883757
451.953534
449.980383
447.965241
445.909411
443.814613
441.683021
439.517312
437.320702
435.096996
432.850619
430.586651
428.310854
426.029689
423.750324
421.480626
419.229146
417.005079
414.818209
412.678843
410.597724
408.585932
406.654786
404.81568
403.079916
401.458508
399.961971
398.600017
397.381294
396.313048
395.400893
394.64853
394.057438
393.626404
393.35137
393.226081
393.237751
393.371853
393.608694
393.925506
394.296173
394.698425
395.130038
395.381731
395.384929
395.135168
394.394279
393.445898
392.213887
390.62605
388.575892
385.932352
382.645046
378.664965
373.988819
368.657684
362.65989
356.224996
349.635374
342.630987
335.40895
328.753867
322.5653
316.608885
311.332477
307.008682
303.578096
300.935941
300.120997
472.328598
470.970867
469.577387
468.14734
466.67998
465.174648
463.63079
462.047979
460.425928
458.764523
457.063846
455.324207
453.546171
451.7306
449.878683
447.991978
446.072449
444.122506
442.145045
440.143486
438.121806
436.084571
434.036963
431.984795
429.934525
427.893248
425.86869
423.869179
421.903608
419.98137
418.112273
416.30643
414.57413
412.925679
411.371161
409.920206
408.5817
407.363473
406.271987
405.31198
404.486072
403.794304
403.233782
402.79896
402.479596
402.261239
402.127914
402.06045
402.041023
402.004699
401.859256
401.549214
401.0073
400.145285
399.102216
397.815687
396.225233
394.252099
391.776346
388.751837
385.140387
380.91022
376.046531
370.596904
364.62042
358.211624
351.502242
344.616062
337.706513
331.078651
324.813089
318.914779
313.631768
309.145049
305.564865
302.784353
300.685558
300.040183
299.892481
299.86489
472.384553
471.140022
469.862851
468.552395
467.208097
465.829494
464.416243
462.968135
461.485114
459.967306
458.415039
456.828876
455.209639
453.558447
451.876742
450.166328
448.429402
446.668588
444.886966
443.088106
441.276086
439.45552
437.631563
435.809923
433.996851
432.199121
430.423996
428.679174
426.972714
425.312923
423.708231
422.167014
420.697395
419.306987
418.002632
416.790084
415.673661
414.655862
413.736947
412.914539
412.183653
411.535708
410.959017
410.440645
409.949829
409.43572
408.855669
408.16045
407.293857
406.251547
405.047836
403.633427
401.955987
399.949837
397.523485
394.636739
391.255374
387.35373
382.921342
377.952145
372.46347
366.512874
360.168914
353.564403
346.813268
340.067935
333.468293
327.191917
321.324832
316.02838
311.420873
307.594591
304.562601
302.28397
300.634887
300.031806
299.897429
299.869282
299.862349
299.862726
472.438685
471.303662
470.139007
468.944241
467.718982
466.462955
465.176008
463.858134
462.509486
461.1304
459.721419
458.283315
456.81712
455.324147
453.806018
452.264694
450.702493
449.122119
447.526677
445.919689
444.305101
442.687286
441.07103
439.461513
437.864269
436.285131
434.730151
433.205496
431.717312
430.271562
428.873826
427.52907
426.24137
425.013608
423.847161
422.741509
421.693868
420.699115
419.749129
418.832783
417.928136
417.007712
416.039996
414.990292
413.837681
412.574044
411.165523
409.574454
407.756863
405.653643
403.207751
400.382334
397.144868
393.46995
389.34294
384.76005
379.729885
374.267999
368.405917
362.205338
355.752409
349.155455
342.529063
336.019796
329.766491
323.896967
318.513482
313.734562
309.63804
306.307548
303.739777
301.886054
300.600223
300.031807
299.907177
299.873175
299.86159
299.859011
299.855614
299.85357
472.486305
471.447618
470.381947
469.288955
468.168406
467.020174
465.844257
464.640793
463.41008
462.152587
460.868979
459.560135
458.227165
456.871427
455.49455
454.098441
452.685302
451.257631
449.81823
448.370186
446.916866
445.46188
444.009039
442.562294
441.125657
439.70309
438.298387
436.915005
435.555886
434.223242
432.918306
431.641046
430.389874
429.161324
427.949834
426.747233
425.541716
424.316976
423.054512
421.734032
420.336552
418.840032
417.218318
415.440066
413.465551
411.251718
408.76444
405.969955
402.838126
399.343853
395.468987
391.203407
386.546637
381.508275
376.107176
370.371559
364.336355
358.073065
351.667805
345.211931
338.809564
332.590157
326.684767
321.193025
316.237803
311.901552
308.254923
305.329852
303.115833
301.57201
300.555053
300.046981
299.929713
299.891875
299.875344
299.866005
299.859384
299.851225
299.842771
299.83571
472.522522
471.557104
470.566717
469.551125
468.510184
467.443849
466.35219
465.235399
464.093804
462.927881
461.738264
460.525758
459.291347
458.0362
456.761677
455.469324
454.16087
452.838208
451.503377
450.158524
448.805856
447.447581
446.085826
444.722538
443.359367
441.997519
440.637589
439.27937
437.921635
436.561917
435.196316
433.819245
432.423324
430.99873
429.533416
428.012694
426.419947
424.737444
422.943133
421.010214
418.91269
416.623208
414.113697
411.356136
408.323371
404.991851
401.342198
397.36039
393.038937
388.377899
383.385928
378.080409
372.487869
366.643929
360.581076
354.363438
348.074962
341.813312
335.67865
329.775642
324.207162
319.080901
314.504715
310.549553
307.276389
304.694582
302.771815
301.4379
300.602978
300.117418
299.978557
299.92391
299.900457
299.884264
299.870427
299.857243
299.844371
299.832915
299.82814
299.827949
472.542805
471.618426
470.670203
469.69794
468.701506
467.680851
466.636004
465.567084
464.474301
463.357961
462.218469
461.056324
459.872117
458.666521
457.4403
456.19428
454.929329
453.646317
452.34608
451.029361
449.696744
448.348567
446.98482
445.605013
444.208024
442.791947
441.353872
439.889599
438.393232
436.856583
435.271197
433.626976
431.911803
430.111872
428.211207
426.191955
424.034626
421.71835
419.221247
416.52097
413.595338
410.422874
406.984784
403.265393
399.253062
394.941184
390.329123
385.423074
380.236785
374.792248
369.120167
363.258962
357.251456
351.148899
345.029628
338.981945
333.101643
327.495199
322.260596
317.491488
313.270822
309.656824
306.692334
304.378154
302.670327
301.489463
300.736666
300.30563
300.08374
299.996031
299.945738
299.911557
299.88571
299.861872
299.844079
299.834624
299.829596
299.827756
299.826959
299.826959
472.543861
471.621609
470.67554
469.705409
468.711019
467.69222
466.648905
465.581017
464.488541
463.371499
462.229943
461.063942
459.873563
458.658857
457.419813
456.156347
454.868256
453.555164
452.21645
450.851163
449.457916
448.034753
446.578988
445.087003
443.552322
441.968513
440.329374
438.627574
436.854923
435.00269
433.059295
431.011589
428.845081
426.544045
424.091709
421.470533
418.66258
415.649925
412.41507
408.942356
405.218384
401.232687
396.978556
392.453882
387.661991
382.612437
377.321762
371.814316
366.1228
360.288904
354.362403
348.395733
342.457733
336.630952
331.007074
325.683255
320.747446
316.285374
312.368226
309.047381
306.349253
304.244303
302.680484
301.584586
300.867464
300.42774
300.175416
300.039796
299.953095
299.899672
299.867295
299.847665
299.835273
299.831324
299.830472
299.828139
299.82651
299.824765
299.822182
299.821253
472.526402
471.568862
470.58659
469.579292
468.546686
467.488494
466.404441
465.294246
464.157615
462.994236
461.803768
460.585826
459.339435
458.062795
456.75406
455.411778
454.034158
452.619013
451.163692
449.665009
448.119177
446.521747
444.867603
443.150954
441.367023
439.509144
437.568411
435.534863
433.397535
431.14447
428.762756
426.238648
423.557749
420.705256
417.666248
414.425994
410.970899
407.288949
403.370194
399.207427
394.796916
390.139192
385.239864
380.110449
374.769182
369.241772
363.562223
357.773571
351.928101
346.086769
340.313127
334.686841
329.293132
324.218498
319.546136
315.349145
311.687018
308.593896
306.081088
304.122462
302.666277
301.632018
300.931289
300.477623
300.197848
300.020632
299.919342
299.862812
299.849483
299.842914
299.83701
299.832902
299.83139
299.831492
299.830655
299.827473
299.824691
299.821159
299.817642
299.816039
472.489382
471.456981
470.397842
469.311544
468.197627
467.055578
465.884822
464.684426
463.452807
462.188722
460.890702
459.557002
458.186093
456.776809
455.327491
453.835453
452.297599
450.710367
449.069673
447.370874
445.608694
443.777137
441.86951
439.878358
437.795379
435.611438
433.316553
430.899938
428.350087
425.65489
422.801795
419.778016
416.570765
413.167837
409.558099
405.731821
401.681244
397.401213
392.889888
388.149516
383.187265
378.016093
372.655615
367.132913
361.483212
355.750461
349.987911
344.257591
338.629598
333.176869
327.977285
323.113682
318.660701
314.682339
311.223855
308.307007
305.933798
304.07593
302.676466
301.663523
300.962866
300.500776
300.207905
300.028858
299.919617
299.876024
299.860255
299.852054
299.845822
299.841494
299.836904
299.832341
299.829157
299.828879
299.829097
299.82726
299.824438
299.821209
299.816479
299.813553
472.43414
471.290009
470.116084
468.911728
467.676198
466.408624
465.107354
463.771209
462.399307
460.990012
459.541444
458.051441
456.517532
454.936896
453.306309
451.6221
449.880101
448.075601
446.203291
444.25726
442.230947
440.117074
437.907675
435.594086
433.166965
430.616337
427.931663
425.101946
422.115873
418.961992
415.629055
412.106502
408.384696
404.455394
400.312287
395.951629
391.372941
386.579799
381.58068
376.389844
371.028213
365.524176
359.91423
354.243315
348.564837
342.940484
337.439801
332.136323
327.106021
322.420071
318.144531
314.332487
311.023006
308.235587
305.961976
304.164709
302.793943
301.788003
301.078599
300.596813
300.281284
300.084748
299.968425
299.905497
299.878775
299.86641
299.85765
299.850206
299.843562
299.838765
299.834992
299.83039
299.825316
299.821873
299.821282
299.820983
299.817418
299.814296
299.811739
299.810347
472.36519
471.081614
469.764493
468.412981
467.02607
465.602378
464.140739
462.639546
461.096942
459.510778
457.878583
456.197529
454.464392
452.675518
450.826775
448.913529
446.930602
444.872244
442.732084
440.503141
438.177811
435.74787
433.204497
430.538322
427.739497
424.797793
421.70274
418.443808
415.010868
411.394358
407.585667
403.577592
399.364877
394.944842
390.318087
385.489275
380.46798
375.269547
369.915948
364.436526
358.86856
353.257507
347.656797
342.126965
336.734292
331.549
326.644583
322.088438
317.938278
314.241926
311.029829
308.313684
306.083468
304.311307
302.94908
301.93419
301.202374
300.69448
300.356673
300.140735
300.009228
299.933456
299.889174
299.868801
299.857739
299.848596
299.842591
299.837982
299.834706
299.832524
299.830058
299.826808
299.820032
299.812098
299.805018
299.801311
299.798596
299.797353
299.79938
299.802316
472.285762
470.841564
469.359538
467.83864
466.277599
464.674902
463.028958
461.337769
459.599018
457.810038
455.967775
454.068749
452.109026
450.08418
447.98926
445.818763
443.566616
441.22616
438.790149
436.25076
433.599616
430.827839
427.926115
424.884802
421.694059
418.344143
414.825633
411.129712
407.248538
403.175707
398.906783
394.439918
389.776548
384.922162
379.887114
374.687451
369.345699
363.891538
358.362283
352.803033
347.266358
341.811393
336.502262
331.405599
326.587545
322.110624
318.030489
314.389303
311.21589
308.519571
306.294508
304.509244
303.117226
302.065707
301.29964
300.761548
300.396782
300.158847
300.010605
299.92191
299.874053
299.850344
299.845801
299.842255
299.836878
299.833688
299.830612
299.828846
299.826784
299.823774
299.818754
299.813085
299.808552
299.803814
299.798929
299.79374
299.790811
299.789172
299.790757
299.790652
472.197858
470.575899
468.911389
467.203075
465.449419
463.648722
461.799008
459.897878
457.942555
455.929851
453.856132
451.717281
449.508674
447.225148
444.860989
442.409912
439.865064
437.219039
434.463897
431.591225
428.5922
425.457702
422.17847
418.745364
415.149554
411.382835
407.437994
403.309264
398.992841
394.487496
389.795244
384.922079
379.878751
374.681535
369.352954
363.922367
358.426361
352.908816
347.42057
342.018521
336.764044
331.720687
326.951417
322.515015
318.463271
314.836034
311.657687
308.940656
306.677594
304.843191
303.398913
302.296303
301.480926
300.896712
300.492842
300.225426
300.056259
299.954235
299.895648
299.868704
299.856507
299.849664
299.844345
299.838443
299.834257
299.829853
299.825773
299.821978
299.817555
299.812046
299.809091
299.80678
299.805348
299.803983
299.800529
299.797575
299.79308
299.787904
299.787665
299.785587
472.102722
470.288375
468.426368
466.515262
464.553338
462.538594
460.468616
458.340591
456.151271
453.896939
451.573383
449.175867
446.699108
444.137271
441.483961
438.732239
435.874653
432.903281
429.809813
426.585653
423.222105
419.710565
416.042743
412.210966
408.208548
404.030218
399.672635
395.134961
390.419514
385.532463
380.484562
375.291867
369.976404
364.5667
359.098114
353.612851
348.159569
342.792503
337.570071
332.552921
327.800988
323.370188
319.309823
315.658599
312.44334
309.674577
307.342514
305.42559
303.891514
302.698593
301.799088
301.143065
300.68141
300.368073
300.162672
300.032908
299.953989
299.907293
299.880432
299.863304
299.851356
299.841523
299.835026
299.830402
299.826293
299.823684
299.820853
299.817578
299.814829
299.811576
299.80848
299.80593
299.80422
299.802311
299.800191
299.800054
299.802621
299.800933
299.79489
299.788279
472.001379
469.982092
467.909721
465.782636
463.598851
461.356002
459.051304
456.68152
454.242931
451.731307
449.141886
446.46936
443.707875
440.851037
437.891944
434.823233
431.637154
428.325668
424.880639
421.29399
417.557936
413.665279
409.609752
405.386446
400.992285
396.426586
391.691668
386.79352
381.742482
376.553931
371.2489
365.854579
360.404625
354.939172
349.504469
344.15204
338.9373
333.917642
329.150115
324.688969
320.581992
316.86681
313.568944
310.701007
308.2617
306.233545
304.585728
303.278769
302.268834
301.510536
300.957998
300.567594
300.300511
300.123733
300.009966
299.938371
299.894149
299.867155
299.84951
299.839617
299.833889
299.831916
299.830342
299.828953
299.826742
299.824012
299.820648
299.817214
299.814277
299.810534
299.805292
299.80042
299.797346
299.795237
299.794078
299.794357
299.799889
299.807992
299.814619
299.817795
471.89476
469.659855
467.366135
465.01174
462.59441
460.111456
457.559726
454.935573
452.234834
449.452815
446.584282
443.62347
440.564104
437.399449
434.122367
430.725426
427.201054
423.541698
419.740047
415.789302
411.68351
407.417959
402.98963
398.39772
393.64422
388.734538
383.678152
378.489246
373.187315
367.797641
362.351608
356.886751
351.446467
346.079298
340.837737
335.776486
330.950201
326.410867
322.204912
318.370693
314.93644
311.918002
309.319618
307.131189
305.32992
303.882387
302.747256
301.879557
301.233494
300.765676
300.437207
300.213942
300.066782
299.972529
299.913966
299.878384
299.857183
299.844849
299.839835
299.836387
299.833976
299.831687
299.829602
299.827191
299.824098
299.820204
299.815229
299.810714
299.807565
299.805459
299.802941
299.799084
299.796577
299.794835
299.792882
299.791812
299.794052
299.804138
299.814687
299.824798
471.783879
469.324733
466.800808
464.210013
461.549822
458.817235
456.008759
453.120384
450.147575
447.085269
443.927895
440.669406
437.303342
433.82291
430.221126
426.490963
422.625551
418.61843
414.463854
410.157161
405.695187
401.076763
396.303245
391.379108
386.312552
381.116123
375.807282
370.408898
364.949577
359.463788
353.991667
348.578462
343.273545
338.128965
333.197579
328.530781
324.175921
320.173915
316.556278
313.343288
310.545477
308.160592
306.171919
304.551695
303.263602
302.26572
301.513109
300.961136
300.568199
300.297064
300.116111
299.999958
299.928495
299.886397
299.863058
299.851105
299.845388
299.84224
299.838928
299.835243
299.83073
299.82593
299.821434
299.817392
299.81279
299.807559
299.803016
299.800037
299.799576
299.801041
299.802411
299.80018
299.798937
299.798105
299.797964
299.79549
299.792481
299.799049
299.808786
299.816257
472.582724
471.738866
470.872728
469.983704
469.071176
468.134514
467.173069
466.18618
465.173162
464.133318
463.065929
461.970261
460.845562
459.691064
458.505986
457.289535
456.040905
454.759284
453.443852
452.093785
450.708258
449.286448
447.827535
446.330706
444.795155
443.220089
441.604718
439.948265
438.24995
436.508988
434.724576
432.895869
431.021962
429.101845
427.134362
425.11814
423.051502
420.932376
418.758181
416.525676
414.230771
411.86832
409.431872
406.913415
404.303087
401.588904
398.756513
395.789503
392.672088
389.38509
385.909165
382.206669
378.259664
374.067452
369.630221
364.967132
360.123572
355.177676
350.244646
345.475331
341.046073
337.138461
333.909216
331.456787
329.793496
328.83499
328.498663
328.499858
328.7039
328.926765
329.119009
329.256394
329.33181
329.346237
329.341077
329.313091
329.27658
329.236338
329.190765
329.10712
472.574055
471.712641
470.828431
469.920771
468.988994
468.032418
467.050345
466.042059
465.006827
463.943898
462.852505
461.731868
460.581192
459.399675
458.186505
456.94087
455.661955
454.348949
453.001053
451.617478
450.197456
448.740241
447.24512
445.711413
444.138485
442.525748
440.872665
439.178757
437.443604
435.666843
433.848165
431.987308
430.084042
428.138144
426.149371
424.117412
422.041825
419.92195
417.756822
415.545048
413.284649
410.972864
408.605921
406.17878
403.684834
401.115572
398.460244
395.705528
392.835271
389.831569
386.676923
383.349661
379.825029
376.070239
372.081723
367.856223
363.409107
358.781863
354.049306
349.323589
344.752647
340.510477
336.7749
333.698803
331.377489
329.825498
328.967146
328.747133
328.834832
329.102818
329.40619
329.675746
329.875376
329.985792
330.019311
330.017642
329.988107
329.979575
329.973419
329.915461
472.563202
471.679823
470.77303
469.842129
468.886411
467.905153
466.897617
465.863048
464.800673
463.709706
462.58935
461.438796
460.257227
459.043826
457.797774
456.518261
455.204485
453.855662
452.471031
451.049858
449.591446
448.095143
446.560347
444.986517
443.373179
441.719938
440.026483
438.292597
436.518164
434.70317
432.847713
430.951994
429.016317
427.041079
425.026746
422.973833
420.882858
418.754283
416.588437
414.385429
412.145021
409.866484
407.548398
405.188426
402.783042
400.327211
397.814033
395.234362
392.576429
389.825532
386.963798
383.972576
380.830983
377.516846
373.998447
370.26029
366.297217
362.117445
357.753995
353.271793
348.773204
344.398496
340.316032
336.70418
333.719951
331.466767
329.966526
329.157215
328.972778
329.125584
329.470964
329.857405
330.221887
330.52539
330.726475
330.832178
330.86522
330.894921
330.929838
330.956003
472.550289
471.640785
470.707159
469.748683
468.764619
467.754217
466.71671
465.651319
464.55725
463.433701
462.279861
461.094914
459.878047
458.628447
457.345316
456.027869
454.675345
453.287008
451.862163
450.400156
448.900384
447.362305
445.785447
444.169418
442.513912
440.818725
439.08376
437.309039
435.494712
433.641064
431.748523
429.81766
427.849195
425.843986
423.80303
421.727438
419.618415
417.477221
415.305117
413.103301
410.872827
408.614489
406.328676
404.015189
401.673022
399.300092
396.892927
394.446301
391.952848
389.402654
386.78289
384.07755
381.267601
378.332956
375.250181
371.994547
368.5444
364.887393
361.024984
356.979758
352.803473
348.58261
344.43954
340.527575
337.015232
334.061255
331.783322
330.229997
329.365963
329.142355
329.30337
329.711597
330.202721
330.678201
331.094695
331.420222
331.634163
331.757868
331.835396
331.908672
472.535295
471.595466
470.630711
469.640283
468.623426
467.579372
466.507341
465.406545
464.276186
463.115464
461.923573
460.699714
459.443095
458.152939
456.828487
455.469008
454.073808
452.642231
451.173672
449.667585
448.123488
446.540977
444.919733
443.259532
441.560254
439.821895
438.044578
436.228558
434.374238
432.482172
430.553075
428.587828
426.587481
424.553252
422.486525
420.388842
418.261883
416.107448
413.927422
411.72373
409.498288
407.252914
404.989235
402.708554
400.41168
398.098728
395.768866
393.420011
391.048475
388.648576
386.212237
383.728615
381.183832
378.560881
375.840278
372.999876
370.015674
366.8661
363.535005
360.016903
356.323816
352.492014
348.588471
344.714619
341.00378
337.607454
334.67634
332.329458
330.638303
329.618708
329.274065
329.348857
329.723708
330.280623
330.888492
331.463189
331.942799
332.31923
332.565455
332.717129
472.518026
471.543279
470.542697
469.515523
468.460988
467.378321
466.266739
465.125459
463.953693
462.750657
461.515571
460.247669
458.946202
457.610446
456.23971
454.83334
453.390731
451.911334
450.394665
448.840309
447.247937
445.61731
443.948287
442.240841
440.495061
438.711166
436.889514
435.03061
433.135113
431.203847
429.237805
427.238154
425.206239
423.143583
421.051885
418.933014
416.789001
414.622023
412.434385
410.22848
408.006764
405.771696
403.525676
401.270955
399.009518
396.742942
394.472209
392.197483
389.917822
387.630849
385.332369
383.015956
380.672557
378.290206
375.854002
373.346981
370.749022
368.037343
365.190432
362.190205
359.026613
355.70289
352.241973
348.692655
345.132989
341.668187
338.427567
335.540344
333.118878
331.252987
329.993833
329.386671
329.36752
329.622735
330.151947
330.840627
331.564095
332.214427
332.743062
333.130571
472.498142
471.483194
470.441375
469.371919
468.274055
467.147011
465.990013
464.802288
463.583069
462.3316
461.047139
459.728965
458.376389
456.988756
455.565457
454.105936
452.609699
451.076324
449.505468
447.896876
446.250394
444.565973
442.843682
441.083715
439.286401
437.452212
435.581769
433.675853
431.73541
429.761555
427.755581
425.718958
423.653335
421.560544
419.442588
417.301643
415.140048
412.960289
410.764985
408.556859
406.338718
404.113408
401.88378
399.652625
397.4226
395.196135
392.975312
390.761705
388.556189
386.358691
384.167883
381.980831
379.792578
377.595698
375.379828
373.130698
370.835149
368.477186
366.036065
363.489528
360.819564
358.01327
355.067868
351.995468
348.82742
345.617683
342.447445
339.420331
336.633725
334.184237
332.167455
330.665066
329.724117
329.473007
329.534145
329.861011
330.499825
331.318833
332.173042
332.926189
472.475212
471.413906
470.324536
469.206327
468.058506
466.880302
465.670949
464.429691
463.155784
461.848502
460.507147
459.131051
457.719591
456.272189
454.788329
453.267562
451.709519
450.113916
448.48057
446.809402
445.100453
443.353887
441.570007
439.749257
437.892236
435.9997
434.072576
432.11196
430.119126
428.095533
426.04282
423.962812
421.857517
419.729122
417.579989
415.412639
413.229749
411.034123
408.828683
406.616439
404.400472
402.183897
399.969835
397.761373
395.561513
393.373115
391.198821
389.040953
386.901393
384.781417
382.681488
380.600991
378.537943
376.488657
374.447374
372.405943
370.349916
368.263417
366.138368
363.96092
361.710738
359.364078
356.909496
354.339483
351.657775
348.883512
346.054985
343.22897
340.479147
337.872826
335.487253
333.40377
331.694298
330.397329
329.696252
329.599765
329.704722
330.057066
330.749584
331.708242
472.448826
471.334172
470.190075
469.015744
467.810399
466.573265
465.30358
464.000597
462.663591
461.291867
459.884763
458.441665
456.962009
455.445299
453.89111
452.299103
450.669036
449.000772
447.294293
445.54971
443.767272
441.947377
440.090581
438.19761
436.269363
434.306923
432.311566
430.284758
428.228165
426.14365
424.033277
421.899301
419.744168
417.570505
415.381107
413.178921
410.96703
408.748627
406.52699
404.30546
402.087405
399.876197
397.67518
395.487636
393.316748
391.165561
389.036938
386.933494
384.857507
382.810841
380.794823
378.810056
376.856257
374.931973
373.034309
371.15866
369.298474
367.445493
365.580343
363.687112
361.753276
359.780699
357.749324
355.637316
353.435159
351.141406
348.765326
346.329881
343.872876
341.447367
339.104572
336.895509
334.873731
333.09561
331.624716
330.461345
329.842417
329.796438
329.933623
330.39177
472.418713
471.243169
470.036594
468.798173
467.527102
466.222593
464.883875
463.510199
462.10085
460.655146
459.172458
457.652208
456.093891
454.497076
452.861427
451.186709
449.472805
447.719725
445.927622
444.096802
442.227736
440.321073
438.377651
436.398501
434.384865
432.338195
430.260164
428.152669
426.01783
423.857991
421.675718
419.473786
417.255176
415.023051
412.780746
410.531738
408.279623
406.028085
403.780859
401.541701
399.314345
397.10247
394.909664
392.739387
390.594937
388.479398
386.395626
384.346221
382.333466
380.359315
378.425316
376.532522
374.681349
372.871412
371.101339
369.368555
367.669029
365.996978
364.344633
362.702761
361.057795
359.381068
357.659659
355.911282
354.122793
352.276518
350.35401
348.366565
346.325902
344.254264
342.183618
340.155023
338.202047
336.364758
334.680928
333.184375
331.925742
330.871349
330.284724
330.322133
472.384901
471.140985
469.864236
468.553799
467.208833
465.828517
464.412054
462.958679
461.467665
459.938333
458.370064
456.762308
455.114597
453.42656
451.697934
449.928582
448.118504
446.267854
444.376957
442.446318
440.476643
438.468846
436.424066
434.343676
432.229292
430.082785
427.906281
425.702171
423.473105
421.221991
418.95199
416.666503
414.369151
412.063754
409.754306
407.444939
405.139888
402.843443
400.559905
398.293545
396.04854
393.828929
391.638545
389.480996
387.359627
385.277473
383.23726
381.241395
379.291994
377.390746
375.538911
373.737408
371.986632
370.286422
368.635942
367.033536
365.476558
363.961182
362.482248
361.03315
359.605905
358.191507
356.782281
355.33988
353.857454
352.327901
350.786343
349.216141
347.601584
345.94241
344.254014
342.556082
340.873217
339.236289
337.668151
336.195512
334.843086
333.631568
332.604438
331.720534
472.347858
471.029025
469.675365
468.285964
466.859924
465.396371
463.894463
462.353397
460.772415
459.150822
457.48799
455.783377
454.036538
452.247143
450.414993
448.540035
446.622382
444.662328
442.660371
440.617225
438.53384
436.411418
434.251427
432.055615
429.826022
427.564991
425.27517
422.959518
420.621302
418.264093
415.891753
413.508418
411.118475
408.726524
406.337341
403.955839
401.587006
399.235846
396.907305
394.606205
392.33719
390.104663
387.912721
385.765131
383.665279
381.616105
379.62006
377.6791
375.794878
373.968539
372.200774
370.491922
368.841872
367.250078
365.715513
364.236583
362.81103
361.4358
360.10691
358.819321
357.566851
356.342202
355.136919
353.941385
352.748402
351.553772
350.314205
349.036156
347.72464
346.423692
345.116309
343.78863
342.458675
341.140821
339.850752
338.605665
337.422652
336.313938
335.277841
334.278791
472.308617
470.910412
469.475251
468.002137
466.490098
464.93819
463.345504
461.711181
460.034414
458.314469
456.550695
454.742539
452.889567
450.991477
449.04812
447.059525
445.025912
442.947722
440.825629
438.660573
436.453769
434.206735
431.921307
429.599657
427.244303
424.858125
422.444367
420.006641
417.548924
415.075548
412.591178
410.100794
407.609647
405.123211
402.647129
400.18715
397.749066
395.338632
392.961495
390.623094
388.328587
386.08277
383.889982
381.75407
379.678329
377.665456
375.717503
373.835895
372.02157
370.274912
368.595819
366.983753
365.437784
363.956618
362.5386
361.181692
359.883419
358.640795
357.450225
356.307414
355.207296
354.144025
353.110975
352.100919
351.106409
350.119839
349.13342
348.144934
347.156574
346.132806
345.095078
344.062249
343.053207
342.074821
341.135402
340.241996
339.397447
338.591754
337.782204
336.86321
472.268859
470.790233
469.272472
467.714488
466.115218
464.473632
462.788743
461.059615
459.285383
457.465258
455.598554
453.684697
451.723252
449.713939
447.65666
445.551521
443.398858
441.199264
438.953612
436.663083
434.329191
431.953805
429.539173
427.08794
424.603162
422.088319
419.547318
416.984492
414.404591
411.812764
409.214539
406.615786
404.022675
401.441617
398.8792
396.3421
393.836997
391.370477
388.948933
386.578442
384.264644
382.012642
379.826904
377.711227
375.668685
373.701593
371.811494
369.99919
368.264798
366.607821
365.027226
363.521539
362.08892