/*--------------------------------*- C++ -*----------------------------------*\
  =========                 |
  \\      /  F ield         | OpenFOAM: The Open Source CFD Toolbox
   \\    /   O peration     | Website:  https://openfoam.org
    \\  /    A nd           | Version:  8
     \\/     M anipulation  |
\*---------------------------------------------------------------------------*/
FoamFile
{
    version     2.0;
    format      ascii;
    class       volScalarField;
    location    "0.048";
    object      p;
}
// * * * * * * * * * * * * * * * * * * * * * * * * * * * * * * * * * * * * * //

dimensions      [1 -1 -2 0 0 0 0];

internalField   nonuniform List<scalar> 
42400
(
101468.261
101468.25
101468.24
101468.231
101468.223
101468.216
101468.211
101468.207
101468.204
101468.202
101468.202
101468.203
101468.206
101468.21
101468.216
101468.223
101468.232
101468.242
101468.254
101468.267
101468.283
101468.3
101468.318
101468.339
101468.361
101468.385
101468.412
101468.44
101468.47
101468.502
101468.537
101468.573
101468.613
101468.655
101468.699
101468.746
101468.803
101468.871
101468.946
101469.015
101469.076
101469.137
101469.204
101469.285
101469.381
101469.485
101469.598
101469.718
101469.846
101469.981
101470.136
101470.31
101470.508
101470.708
101470.909
101471.141
101471.403
101471.685
101471.986
101472.309
101472.652
101473.018
101473.412
101473.832
101474.269
101474.718
101475.157
101475.641
101476.272
101476.576
101476.772
101478.048
101478.8
101477.777
101478.029
101479.544
101479.793
101480.46
101484.095
101485.55
101468.015
101468.007
101467.999
101467.992
101467.986
101467.981
101467.977
101467.975
101467.973
101467.973
101467.974
101467.976
101467.98
101467.984
101467.991
101467.998
101468.007
101468.017
101468.029
101468.043
101468.058
101468.074
101468.092
101468.111
101468.133
101468.155
101468.179
101468.205
101468.233
101468.262
101468.294
101468.326
101468.361
101468.402
101468.45
101468.503
101468.552
101468.593
101468.631
101468.677
101468.734
101468.799
101468.868
101468.942
101469.019
101469.102
101469.195
101469.307
101469.434
101469.556
101469.671
101469.81
101469.974
101470.157
101470.354
101470.569
101470.804
101471.063
101471.35
101471.674
101472.036
101472.432
101472.856
101473.318
101473.822
101474.379
101474.938
101475.501
101476.344
101477.126
101477.313
101478.329
101479.795
101480.866
101481.683
101482.731
101485.458
101488.096
101490.411
101493.198
101467.622
101467.616
101467.61
101467.605
101467.601
101467.598
101467.596
101467.595
101467.595
101467.595
101467.598
101467.601
101467.605
101467.611
101467.618
101467.626
101467.636
101467.647
101467.659
101467.673
101467.688
101467.704
101467.722
101467.742
101467.763
101467.785
101467.809
101467.834
101467.861
101467.891
101467.924
101467.961
101468.001
101468.038
101468.069
101468.099
101468.133
101468.176
101468.224
101468.275
101468.329
101468.385
101468.441
101468.504
101468.584
101468.678
101468.756
101468.823
101468.92
101469.038
101469.163
101469.298
101469.447
101469.612
101469.797
101470.012
101470.26
101470.541
101470.856
101471.209
101471.609
101472.068
101472.59
101473.182
101473.832
101474.572
101475.348
101476.126
101477.122
101478.406
101479.369
101480.399
101482.255
101483.749
101485.469
101488.511
101491.905
101494.083
101494.643
101495.799
101467.115
101467.11
101467.105
101467.102
101467.099
101467.097
101467.096
101467.096
101467.097
101467.099
101467.102
101467.106
101467.112
101467.119
101467.127
101467.136
101467.147
101467.159
101467.172
101467.187
101467.204
101467.222
101467.241
101467.262
101467.284
101467.308
101467.334
101467.362
101467.393
101467.423
101467.453
101467.481
101467.511
101467.544
101467.582
101467.623
101467.666
101467.71
101467.755
101467.798
101467.848
101467.921
101467.997
101468.044
101468.09
101468.163
101468.251
101468.338
101468.432
101468.536
101468.653
101468.788
101468.946
101469.127
101469.333
101469.568
101469.843
101470.164
101470.537
101470.971
101471.471
101472.049
101472.704
101473.459
101474.278
101475.217
101476.194
101477.219
101478.216
101479.346
101481.396
101484.108
101486.152
101487.741
101489.382
101491.571
101493.886
101494.901
101495.901
101497.154
101466.509
101466.505
101466.501
101466.498
101466.496
101466.495
101466.494
101466.495
101466.496
101466.499
101466.503
101466.508
101466.515
101466.523
101466.532
101466.543
101466.555
101466.569
101466.585
101466.602
101466.62
101466.639
101466.66
101466.683
101466.708
101466.735
101466.764
101466.794
101466.824
101466.857
101466.892
101466.93
101466.968
101467.008
101467.049
101467.091
101467.13
101467.175
101467.239
101467.3
101467.339
101467.382
101467.446
101467.516
101467.584
101467.657
101467.737
101467.828
101467.932
101468.05
101468.185
101468.339
101468.518
101468.731
101468.984
101469.284
101469.636
101470.049
101470.531
101471.092
101471.738
101472.483
101473.33
101474.297
101475.359
101476.508
101477.782
101479.197
101481.597
101483.969
101484.833
101485.614
101487.262
101489.154
101491.345
101493.005
101494.442
101495.803
101498.144
101500.512
101465.809
101465.805
101465.801
101465.798
101465.796
101465.795
101465.795
101465.796
101465.798
101465.801
101465.806
101465.812
101465.82
101465.829
101465.84
101465.853
101465.867
101465.881
101465.898
101465.917
101465.94
101465.965
101465.991
101466.019
101466.049
101466.081
101466.114
101466.149
101466.185
101466.223
101466.263
101466.304
101466.346
101466.386
101466.431
101466.493
101466.553
101466.592
101466.634
101466.694
101466.758
101466.82
101466.886
101466.959
101467.038
101467.125
101467.222
101467.332
101467.458
101467.605
101467.778
101467.983
101468.227
101468.518
101468.861
101469.265
101469.737
101470.287
101470.926
101471.661
101472.511
101473.471
101474.577
101475.806
101477.21
101478.651
101480.395
101481.992
101483.106
101484.513
101486.5
101488.342
101490.085
101491.793
101493.591
101495.579
101497.399
101499.701
101501.728
101503.574
101465.006
101465.002
101464.998
101464.995
101464.993
101464.992
101464.992
101464.994
101464.997
101465.002
101465.007
101465.014
101465.022
101465.033
101465.046
101465.061
101465.079
101465.099
101465.122
101465.145
101465.171
101465.199
101465.229
101465.261
101465.295
101465.331
101465.369
101465.409
101465.452
101465.496
101465.539
101465.584
101465.644
101465.706
101465.748
101465.791
101465.852
101465.917
101465.98
101466.046
101466.117
101466.193
101466.275
101466.365
101466.466
101466.58
101466.712
101466.865
101467.044
101467.255
101467.506
101467.803
101468.153
101468.563
101469.039
101469.59
101470.224
101470.949
101471.77
101472.692
101473.734
101474.896
101476.18
101477.557
101478.966
101480.703
101482.268
101483.837
101485.629
101487.291
101488.902
101490.561
101492.245
101493.96
101495.986
101498.038
101500.096
101501.999
101503.597
101505.608
101464.078
101464.074
101464.07
101464.067
101464.066
101464.066
101464.067
101464.07
101464.074
101464.08
101464.088
101464.099
101464.111
101464.126
101464.141
101464.159
101464.18
101464.203
101464.228
101464.256
101464.286
101464.318
101464.353
101464.391
101464.431
101464.473
101464.517
101464.561
101464.609
101464.668
101464.731
101464.779
101464.827
101464.89
101464.957
101465.022
101465.09
101465.162
101465.239
101465.322
101465.412
101465.512
101465.623
101465.749
101465.892
101466.059
101466.253
101466.481
101466.749
101467.066
101467.438
101467.87
101468.371
101468.946
101469.601
101470.341
101471.167
101472.083
101473.055
101474.085
101475.079
101476.393
101478.189
101480.065
101481.848
101483.376
101484.891
101486.27
101487.797
101489.752
101491.771
101493.74
101495.789
101497.901
101499.404
101501.116
101503.202
101504.69
101506.571
101508.517
101463.004
101463.001
101462.998
101462.997
101462.997
101462.998
101463.001
101463.006
101463.013
101463.023
101463.034
101463.047
101463.062
101463.08
101463.1
101463.122
101463.148
101463.175
101463.206
101463.239
101463.275
101463.314
101463.355
101463.399
101463.443
101463.492
101463.55
101463.61
101463.66
101463.713
101463.778
101463.847
101463.915
101463.987
101464.062
101464.142
101464.227
101464.319
101464.42
101464.53
101464.654
101464.793
101464.952
101465.135
101465.348
101465.596
101465.888
101466.23
101466.63
101467.095
101467.632
101468.248
101468.949
101469.742
101470.629
101471.614
101472.696
101473.901
101475.184
101476.743
101478.655
101480.205
101481.426
101482.606
101484.12
101485.857
101487.76
101489.968
101491.943
101493.619
101495.086
101496.588
101498.067
101499.797
101502.276
101503.937
101505.134
101507.391
101509.282
101510.06
101461.763
101461.761
101461.761
101461.762
101461.764
101461.769
101461.776
101461.784
101461.795
101461.808
101461.823
101461.84
101461.861
101461.884
101461.909
101461.938
101461.969
101462.004
101462.041
101462.081
101462.124
101462.168
101462.218
101462.276
101462.333
101462.385
101462.444
101462.511
101462.58
101462.651
101462.725
101462.803
101462.886
101462.974
101463.068
101463.169
101463.28
101463.401
101463.537
101463.69
101463.863
101464.063
101464.293
101464.561
101464.874
101465.238
101465.662
101466.154
101466.721
101467.368
101468.106
101468.938
101469.871
101470.908
101472.052
101473.302
101474.663
101476.111
101477.705
101479.109
101480.447
101482.047
101483.617
101485.083
101486.334
101488.105
101490.402
101491.697
101493.103
101495.297
101497.066
101498.242
101499.981
101502.206
101503.722
101505.753
101507.747
101508.905
101510.487
101512.471
101460.324
101460.326
101460.329
101460.334
101460.341
101460.35
101460.361
101460.375
101460.391
101460.41
101460.431
101460.455
101460.483
101460.513
101460.546
101460.583
101460.623
101460.666
101460.711
101460.761
101460.819
101460.875
101460.93
101460.992
101461.06
101461.131
101461.204
101461.282
101461.363
101461.449
101461.54
101461.636
101461.74
101461.852
101461.973
101462.107
101462.255
101462.422
101462.611
101462.827
101463.074
101463.36
101463.691
101464.074
101464.516
101465.026
101465.608
101466.267
101467.01
101467.84
101468.761
101469.77
101470.865
101472.039
101473.289
101474.601
101475.957
101477.389
101478.852
101480.501
101482.116
101483.434
101484.873
101486.914
101489.177
101490.952
101491.986
101493.57
101496.111
101497.499
101498.857
101500.773
101502.621
101504.452
101506.367
101507.941
101510.025
101512.249
101513.433
101514.787
101458.661
101458.667
101458.675
101458.686
101458.698
101458.713
101458.731
101458.752
101458.775
101458.802
101458.832
101458.865
101458.902
101458.942
101458.985
101459.031
101459.083
101459.14
101459.198
101459.257
101459.322
101459.393
101459.466
101459.543
101459.623
101459.709
101459.798
101459.893
101459.994
101460.101
101460.215
101460.339
101460.474
101460.622
101460.786
101460.969
101461.176
101461.411
101461.68
101461.988
101462.342
101462.748
101463.214
101463.746
101464.352
101465.034
101465.798
101466.643
101467.572
101468.587
101469.688
101470.86
101472.1
101473.388
101474.72
101476.068
101477.374
101478.879
101480.745
101482.756
101484.739
101486.787
101488.977
101490.678
101491.834
101492.904
101494.536
101496.412
101497.762
101499.719
101502.101
101503.92
101505.363
101506.746
101508.63
101511.164
101512.77
101514.721
101516.954
101518.31
101456.729
101456.741
101456.756
101456.774
101456.794
101456.818
101456.844
101456.874
101456.907
101456.944
101456.984
101457.028
101457.076
101457.128
101457.187
101457.247
101457.309
101457.377
101457.45
101457.527
101457.608
101457.693
101457.783
101457.878
101457.977
101458.083
101458.195
101458.315
101458.443
101458.581
101458.731
101458.896
101459.079
101459.282
101459.511
101459.77
101460.064
101460.398
101460.78
101461.216
101461.712
101462.274
101462.91
101463.623
101464.417
101465.296
101466.259
101467.306
101468.419
101469.63
101470.963
101472.346
101473.782
101475.289
101476.868
101478.608
101480.705
101482.759
101484.297
101485.534
101486.917
101488.444
101489.863
101491.254
101493.23
101495.335
101496.938
101498.322
101500.007
101501.782
101503.24
101505.157
101507.869
101510.509
101511.861
101513.112
101515.19
101516.717
101518.524
101520.466
101454.486
101454.506
101454.53
101454.557
101454.587
101454.62
101454.658
101454.698
101454.743
101454.792
101454.846
101454.904
101454.965
101455.03
101455.101
101455.177
101455.257
101455.341
101455.43
101455.524
101455.623
101455.728
101455.839
101455.956
101456.08
101456.212
101456.355
101456.508
101456.676
101456.859
101457.062
101457.288
101457.541
101457.826
101458.148
101458.513
101458.928
101459.398
101459.929
101460.526
101461.195
101461.939
101462.76
101463.658
101464.629
101465.668
101466.771
101467.927
101469.05
101470.217
101471.775
101473.671
101475.585
101477.444
101479.198
101481
101482.379
101483.453
101485.053
101487.066
101488.618
101489.944
101491.448
101493.188
101495.041
101497.03
101498.945
101501.054
101502.915
101504.367
101506.128
101508.397
101509.86
101510.791
101512.815
101515.306
101516.905
101518.838
101520.71
101522.175
101451.882
101451.911
101451.946
101451.985
101452.026
101452.071
101452.121
101452.175
101452.234
101452.296
101452.364
101452.436
101452.514
101452.596
101452.682
101452.774
101452.871
101452.974
101453.082
101453.196
101453.317
101453.445
101453.581
101453.726
101453.882
101454.05
101454.233
101454.435
101454.657
101454.904
101455.181
101455.492
101455.843
101456.24
101456.69
101457.199
101457.773
101458.419
101459.143
101459.948
101460.84
101461.822
101462.894
101464.059
101465.321
101466.68
101468.141
101469.71
101471.356
101473.072
101474.813
101476.091
101477.176
101478.661
101480.155
101481.362
101482.918
101485.165
101486.942
101488.144
101489.896
101492.216
101494.011
101495.682
101497.664
101499.676
101501.736
101503.166
101504.483
101506.357
101508.009
101509.343
101511.286
101513.776
101515.527
101517.688
101519.954
101521.572
101523.324
101525.895
101448.88
101448.921
101448.97
101449.021
101449.076
101449.135
101449.199
101449.268
101449.341
101449.419
101449.502
101449.591
101449.684
101449.783
101449.887
101449.997
101450.113
101450.236
101450.365
101450.502
101450.648
101450.804
101450.972
101451.153
101451.35
101451.566
101451.805
101452.07
101452.365
101452.697
101453.071
101453.492
101453.966
101454.501
101455.102
101455.775
101456.525
101457.356
101458.272
101459.273
101460.361
101461.533
101462.788
101464.12
101465.528
101467.005
101468.526
101470.107
101471.798
101473.491
101474.736
101476.331
101478.452
101480.144
101481.918
101483.878
101485.773
101487.337
101488.891
101490.805
101492.808
101494.554
101496.216
101498.14
101499.984
101501.458
101502.645
101504.218
101506.948
101509.325
101511.355
101513.502
101515.083
101516.364
101518.273
101520.602
101522.946
101525.274
101527.194
101530.265
101445.461
101445.515
101445.579
101445.645
101445.715
101445.79
101445.869
101445.953
101446.042
101446.137
101446.237
101446.342
101446.453
101446.57
101446.693
101446.823
101446.96
101447.106
101447.261
101447.427
101447.605
101447.797
101448.007
101448.236
101448.489
101448.77
101449.082
101449.432
101449.825
101450.265
101450.761
101451.316
101451.938
101452.631
101453.399
101454.245
101455.173
101456.183
101457.275
101458.447
101459.697
101461.024
101462.422
101463.885
101465.459
101467.126
101468.77
101470.382
101472.151
101474.107
101475.943
101477.149
101478.324
101480.55
101482.821
101484.696
101486.464
101488.203
101490.011
101491.709
101493.935
101496.154
101497.811
101499.574
101501.443
101503.497
101505.594
101507.812
101509.714
101511.31
101512.686
101514.066
101516.38
101520.106
101521.97
101523.307
101525.594
101527.864
101529.2
101531.48
101441.645
101441.714
101441.795
101441.878
101441.964
101442.054
101442.15
101442.251
101442.357
101442.469
101442.587
101442.711
101442.841
101442.979
101443.125
101443.279
101443.444
101443.621
101443.811
101444.016
101444.241
101444.487
101444.759
101445.061
101445.397
101445.773
101446.196
101446.67
101447.202
101447.798
101448.464
101449.205
101450.025
101450.927
101451.913
101452.982
101454.133
101455.361
101456.657
101458.013
101459.413
101460.838
101462.246
101463.613
101465.411
101467.571
101469.425
101471.331
101473.338
101475.332
101477.487
101479.691
101481.734
101483.071
101484.596
101486.532
101488.316
101490.615
101492.498
101493.916
101495.024
101496.663
101499.404
101501.741
101503.852
101505.998
101508.185
101510.333
101512.519
101514.489
101516.786
101519.452
101520.908
101521.724
101523.405
101525.915
101528.12
101530.27
101532.985
101535.002
101437.482
101437.567
101437.666
101437.766
101437.869
101437.976
101438.089
101438.208
101438.332
101438.463
101438.6
101438.745
101438.898
101439.061
101439.235
101439.422
101439.623
101439.842
101440.08
101440.343
101440.633
101440.955
101441.315
101441.718
101442.17
101442.678
101443.247
101443.886
101444.599
101445.393
101446.274
101447.246
101448.313
101449.477
101450.742
101452.108
101453.576
101455.146
101456.82
101458.604
101460.508
101462.546
101464.842
101467.379
101469.393
101471.036
101472.545
101474.019
101475.607
101477.2
101478.805
101480.406
101482.291
101484.479
101486.296
101488.321
101490.592
101491.892
101493.639
101497.305
101499.975
101501.511
101503.021
101504.89
101506.692
101508.428
101510.451
101512.489
101514.16
101516.645
101519.305
101520.805
101523.076
101525.142
101527.045
101530.569
101533.475
101535.141
101536.465
101537.283
101433.042
101433.143
101433.259
101433.376
101433.495
101433.62
101433.75
101433.886
101434.029
101434.18
101434.339
101434.508
101434.689
101434.883
101435.092
101435.319
101435.568
101435.842
101436.146
101436.483
101436.86
101437.282
101437.755
101438.285
101438.88
101439.546
101440.288
101441.113
101442.026
101443.03
101444.128
101445.323
101446.615
101448.004
101449.494
101451.085
101452.777
101454.554
101456.383
101458.279
101460.221
101462.155
101464.12
101465.989
101467.763
101470.004
101472.304
101474.185
101476.128
101478.141
101480.107
101482.074
101483.81
101485.588
101488.038
101490.77
101492.826
101494.775
101496.701
101497.685
101499.332
101502.444
101504.927
101507.292
101509.286
101511.041
101512.949
101514.964
101517.05
101519.088
101521.282
101523.67
101525.884
101528.263
101530.768
101532.86
101535.229
101537.77
101540.097
101541.744
101465.297
101465.299
101465.3
101465.298
101465.295
101465.29
101465.283
101465.274
101465.263
101465.25
101465.235
101465.217
101465.197
101465.175
101465.15
101465.123
101465.093
101465.06
101465.024
101464.985
101464.943
101464.897
101464.848
101464.796
101464.739
101464.679
101464.614
101464.545
101464.472
101464.394
101464.311
101464.223
101464.13
101464.031
101463.925
101463.814
101463.698
101463.575
101463.445
101463.308
101463.163
101463.012
101462.852
101462.684
101462.508
101462.323
101462.129
101461.924
101461.71
101461.483
101461.245
101460.991
101460.719
101460.426
101460.108
101459.761
101459.379
101458.956
101458.483
101457.95
101457.345
101456.658
101455.875
101454.985
101453.979
101452.853
101451.606
101450.237
101448.738
101447.085
101445.232
101443.093
101440.693
101438.043
101434.988
101431.757
101428.369
101424.411
101420.472
101416.706
101463.578
101463.58
101463.582
101463.581
101463.578
101463.572
101463.565
101463.555
101463.543
101463.529
101463.512
101463.493
101463.471
101463.447
101463.42
101463.389
101463.356
101463.32
101463.28
101463.237
101463.191
101463.14
101463.086
101463.028
101462.966
101462.899
101462.827
101462.751
101462.67
101462.583
101462.491
101462.393
101462.289
101462.179
101462.062
101461.938
101461.808
101461.67
101461.525
101461.371
101461.209
101461.038
101460.858
101460.668
101460.469
101460.258
101460.036
101459.802
101459.556
101459.294
101459.016
101458.718
101458.396
101458.047
101457.668
101457.251
101456.792
101456.28
101455.708
101455.064
101454.336
101453.512
101452.578
101451.521
101450.324
101448.972
101447.46
101445.779
101443.94
101442.073
101440.076
101437.428
101434.573
101431.664
101428.095
101424.132
101419.966
101415.026
101410.352
101406.139
101462.164
101462.167
101462.169
101462.168
101462.166
101462.161
101462.153
101462.143
101462.131
101462.117
101462.099
101462.079
101462.056
101462.031
101462.002
101461.971
101461.936
101461.897
101461.856
101461.81
101461.761
101461.708
101461.651
101461.589
101461.523
101461.453
101461.377
101461.296
101461.21
101461.118
101461.021
101460.917
101460.807
101460.69
101460.566
101460.435
101460.295
101460.149
101459.993
101459.829
101459.656
101459.473
101459.28
101459.076
101458.86
101458.633
101458.392
101458.138
101457.869
101457.583
101457.276
101456.946
101456.589
101456.203
101455.782
101455.319
101454.809
101454.242
101453.607
101452.893
101452.087
101451.176
101450.147
101448.987
101447.679
101446.202
101444.518
101442.583
101440.555
101438.472
101436.287
101434.03
101431.02
101427.33
101422.874
101417.858
101413.122
101408.249
101401.731
101397.011
101461.063
101461.067
101461.07
101461.07
101461.068
101461.063
101461.056
101461.047
101461.035
101461.02
101461.003
101460.983
101460.96
101460.934
101460.905
101460.873
101460.837
101460.799
101460.756
101460.71
101460.66
101460.605
101460.547
101460.484
101460.416
101460.344
101460.266
101460.183
101460.095
101460
101459.9
101459.793
101459.68
101459.559
101459.431
101459.296
101459.152
101459
101458.839
101458.669
101458.489
101458.299
101458.098
101457.886
101457.662
101457.424
101457.173
101456.907
101456.623
101456.32
101455.993
101455.641
101455.258
101454.841
101454.383
101453.879
101453.32
101452.698
101452.004
101451.226
101450.353
101449.374
101448.278
101447.055
101445.69
101444.182
101442.71
101441.241
101439.249
101436.264
101433.314
101430.563
101427.079
101423.669
101420.319
101415.714
101410.421
101404.186
101397.837
101392.754
101460.298
101460.302
101460.306
101460.307
101460.306
101460.302
101460.296
101460.288
101460.277
101460.263
101460.247
101460.228
101460.206
101460.181
101460.153
101460.122
101460.088
101460.05
101460.009
101459.964
101459.915
101459.862
101459.805
101459.744
101459.678
101459.607
101459.531
101459.45
101459.364
101459.272
101459.173
101459.069
101458.957
101458.839
101458.714
101458.581
101458.439
101458.29
101458.131
101457.964
101457.786
101457.598
101457.399
101457.188
101456.965
101456.729
101456.479
101456.213
101455.931
101455.63
101455.308
101454.963
101454.591
101454.189
101453.752
101453.274
101452.744
101452.148
101451.474
101450.706
101449.828
101448.821
101447.66
101446.332
101444.821
101443.44
101441.704
101439.063
101436.904
101435.127
101432.273
101428.573
101425.839
101422.433
101416.628
101411.729
101407.805
101402.526
101395.398
101388.499
101459.846
101459.851
101459.856
101459.858
101459.858
101459.855
101459.85
101459.843
101459.833
101459.821
101459.806
101459.789
101459.769
101459.745
101459.719
101459.69
101459.658
101459.622
101459.584
101459.541
101459.495
101459.445
101459.391
101459.332
101459.27
101459.202
101459.13
101459.053
101458.971
101458.883
101458.789
101458.69
101458.584
101458.472
101458.353
101458.226
101458.092
101457.951
101457.801
101457.642
101457.475
101457.297
101457.109
101456.91
101456.697
101456.469
101456.227
101455.968
101455.691
101455.394
101455.072
101454.719
101454.329
101453.897
101453.427
101452.924
101452.377
101451.779
101451.124
101450.402
101449.614
101448.765
101447.786
101446.65
101445.429
101443.834
101441.982
101440.075
101437.593
101434.366
101431.818
101429.184
101424.811
101421.142
101417.843
101412.241
101404.11
101397.705
101392.521
101386.145
101459.716
101459.722
101459.727
101459.731
101459.732
101459.73
101459.727
101459.721
101459.714
101459.703
101459.691
101459.676
101459.658
101459.638
101459.615
101459.589
101459.56
101459.528
101459.493
101459.455
101459.413
101459.368
101459.319
101459.266
101459.209
101459.148
101459.083
101459.013
101458.938
101458.858
101458.772
101458.681
101458.585
101458.482
101458.373
101458.257
101458.134
101458.004
101457.867
101457.721
101457.567
101457.405
101457.233
101457.052
101456.86
101456.655
101456.439
101456.211
101455.968
101455.713
101455.447
101455.162
101454.857
101454.528
101454.152
101453.711
101453.213
101452.646
101452.001
101451.268
101450.424
101449.442
101448.403
101447.284
101445.981
101444.49
101442.835
101441.026
101438.948
101436.508
101433.304
101429.066
101425.459
101421.488
101417.772
101414.234
101408.735
101401.338
101393.682
101386.816
101459.861
101459.867
101459.873
101459.877
101459.879
101459.879
101459.878
101459.874
101459.868
101459.86
101459.85
101459.837
101459.822
101459.805
101459.786
101459.763
101459.739
101459.711
101459.681
101459.648
101459.612
101459.572
101459.53
101459.484
101459.434
101459.381
101459.323
101459.262
101459.197
101459.127
101459.053
101458.974
101458.89
101458.801
101458.707
101458.608
101458.502
101458.391
101458.273
101458.149
101458.019
101457.881
101457.736
101457.583
101457.422
101457.252
101457.071
101456.88
101456.677
101456.46
101456.226
101455.975
101455.703
101455.405
101455.077
101454.711
101454.299
101453.834
101453.309
101452.711
101452.029
101451.247
101450.353
101449.348
101448.212
101446.918
101445.46
101443.814
101441.928
101439.757
101437.29
101434.348
101430.514
101425.885
101420.718
101415.938
101410.716
101404.314
101396.925
101389.872
101460.271
101460.278
101460.284
101460.289
101460.291
101460.293
101460.292
101460.29
101460.287
101460.281
101460.273
101460.264
101460.252
101460.239
101460.223
101460.205
101460.185
101460.163
101460.138
101460.111
101460.081
101460.049
101460.013
101459.975
101459.934
101459.89
101459.842
101459.791
101459.737
101459.678
101459.617
101459.551
101459.481
101459.407
101459.329
101459.246
101459.158
101459.066
101458.969
101458.867
101458.76
101458.647
101458.529
101458.406
101458.277
101458.142
101458.001
101457.853
101457.699
101457.536
101457.362
101457.176
101456.975
101456.756
101456.514
101456.243
101455.939
101455.591
101455.193
101454.735
101454.205
101453.591
101452.881
101452.061
101451.118
101450.037
101448.799
101447.383
101445.759
101443.89
101441.74
101439.257
101436.393
101432.934
101428.363
101423.007
101417.748
101412.757
101406.502
101398.273
101460.886
101460.893
101460.899
101460.904
101460.907
101460.909
101460.91
101460.91
101460.908
101460.904
101460.899
101460.892
101460.884
101460.874
101460.862
101460.848
101460.833
101460.816
101460.797
101460.776
101460.753
101460.727
101460.7
101460.67
101460.638
101460.603
101460.566
101460.526
101460.484
101460.438
101460.39
101460.339
101460.286
101460.229
101460.169
101460.106
101460.041
101459.972
101459.9
101459.825
101459.748
101459.668
101459.584
101459.499
101459.411
101459.32
101459.227
101459.131
101459.032
101458.93
101458.823
101458.709
101458.587
101458.454
101458.307
101458.142
101457.953
101457.736
101457.481
101457.181
101456.823
101456.397
101455.888
101455.281
101454.562
101453.715
101452.724
101451.569
101450.229
101448.672
101446.856
101444.733
101442.248
101439.317
101435.86
101431.555
101426.579
101421.256
101415.095
101409.013
101461.682
101461.688
101461.694
101461.698
101461.702
101461.704
101461.706
101461.706
101461.706
101461.704
101461.701
101461.697
101461.692
101461.685
101461.677
101461.668
101461.657
101461.645
101461.632
101461.617
101461.6
101461.582
101461.563
101461.541
101461.518
101461.494
101461.467
101461.439
101461.409
101461.377
101461.344
101461.308
101461.271
101461.232
101461.192
101461.15
101461.106
101461.061
101461.015
101460.969
101460.921
101460.873
101460.826
101460.778
101460.732
101460.686
101460.642
101460.6
101460.56
101460.522
101460.486
101460.451
101460.415
101460.377
101460.334
101460.283
101460.222
101460.143
101460.042
101459.909
101459.737
101459.513
101459.223
101458.854
101458.389
101457.811
101457.102
101456.244
101455.217
101453.991
101452.53
101450.8
101448.746
101446.305
101443.381
101439.927
101435.704
101430.924
101425.139
101418.942
101462.594
101462.599
101462.603
101462.607
101462.61
101462.612
101462.614
101462.615
101462.615
101462.614
101462.613
101462.611
101462.608
101462.604
101462.599
101462.593
101462.587
101462.58
101462.572
101462.563
101462.553
101462.542
101462.53
101462.517
101462.503
101462.489
101462.473
101462.456
101462.439
101462.421
101462.401
101462.381
101462.361
101462.339
101462.318
101462.297
101462.276
101462.255
101462.235
101462.216
101462.199
101462.184
101462.172
101462.163
101462.158
101462.159
101462.165
101462.177
101462.196
101462.223
101462.258
101462.301
101462.352
101462.409
101462.471
101462.536
101462.601
101462.662
101462.714
101462.751
101462.763
101462.742
101462.674
101462.547
101462.343
101462.045
101461.635
101461.09
101460.388
101459.501
101458.404
101457.072
101455.464
101453.54
101451.229
101448.482
101445.18
101441.301
101436.776
101431.219
101463.589
101463.591
101463.593
101463.596
101463.597
101463.599
101463.6
101463.601
101463.601
101463.601
101463.601
101463.6
101463.599
101463.598
101463.596
101463.594
101463.591
101463.588
101463.585
101463.581
101463.577
101463.573
101463.568
101463.563
101463.558
101463.553
101463.547
101463.541
101463.535
101463.53
101463.524
101463.52
101463.516
101463.512
101463.509
101463.507
101463.507
101463.508
101463.511
101463.515
101463.526
101463.544
101463.567
101463.596
101463.631
101463.674
101463.727
101463.789
101463.864
101463.951
101464.051
101464.166
101464.296
101464.44
101464.598
101464.768
101464.949
101465.137
101465.328
101465.518
101465.699
101465.863
101465.999
101466.095
101466.134
101466.101
101465.976
101465.735
101465.357
101464.811
101464.079
101463.142
101461.972
101460.535
101458.78
101456.668
101454.139
101451.134
101447.524
101443.441
101464.6
101464.599
101464.599
101464.599
101464.598
101464.598
101464.598
101464.598
101464.598
101464.598
101464.598
101464.598
101464.598
101464.599
101464.599
101464.599
101464.6
101464.601
101464.601
101464.603
101464.604
101464.605
101464.607
101464.609
101464.611
101464.614
101464.618
101464.623
101464.628
101464.634
101464.641
101464.65
101464.66
101464.672
101464.687
101464.706
101464.728
101464.755
101464.787
101464.822
101464.859
101464.899
101464.945
101464.998
101465.058
101465.136
101465.234
101465.345
101465.469
101465.609