/*--------------------------------*- C++ -*----------------------------------*\
  =========                 |
  \\      /  F ield         | OpenFOAM: The Open Source CFD Toolbox
   \\    /   O peration     | Website:  https://openfoam.org
    \\  /    A nd           | Version:  8
     \\/     M anipulation  |
\*---------------------------------------------------------------------------*/
FoamFile
{
    version     2.0;
    format      ascii;
    class       surfaceScalarField;
    location    "0.048";
    object      phi;
}
// * * * * * * * * * * * * * * * * * * * * * * * * * * * * * * * * * * * * * //

dimensions      [1 0 -1 0 0 0 0];

internalField   nonuniform List<scalar> 
84340
(
-5.71913132e-08
2.91942963e-07
-2.34883305e-07
-2.26536405e-07
8.95482322e-07
-7.26350224e-07
-5.10903594e-07
1.5386754e-06
-1.25457135e-06
-9.14887369e-07
2.22260188e-06
-1.81892454e-06
-1.44436186e-06
2.94829333e-06
-2.41916352e-06
-2.10608814e-06
3.71676974e-06
-3.0554236e-06
-2.9073386e-06
4.52891744e-06
-3.72808167e-06
-3.85554668e-06
5.38541931e-06
-4.43766094e-06
-4.95801164e-06
6.28676077e-06
-5.18478197e-06
-6.22166367e-06
7.23325071e-06
-5.97012335e-06
-7.65288414e-06
8.22502722e-06
-6.79437246e-06
-9.25737036e-06
9.26205138e-06
-7.65817477e-06
-1.10400344e-05
1.03441046e-05
-8.56209727e-06
-1.30049232e-05
1.14707927e-05
-9.50661107e-06
-1.51551401e-05
1.26415457e-05
-1.04920901e-05
-1.74927761e-05
1.38556301e-05
-1.15188133e-05
-2.00188153e-05
1.51121432e-05
-1.25869854e-05
-2.27330344e-05
1.64100097e-05
-1.36967385e-05
-2.56338706e-05
1.77479706e-05
-1.48481535e-05
-2.87182651e-05
1.91245587e-05
-1.60412595e-05
-3.19814764e-05
2.05380695e-05
-1.72760352e-05
-3.54168584e-05
2.1986521e-05
-1.85524033e-05
-3.90155993e-05
2.34675986e-05
-1.98702158e-05
-4.276643e-05
2.49786001e-05
-2.12292278e-05
-4.66552786e-05
2.65163524e-05
-2.26290698e-05
-5.06648848e-05
2.80771238e-05
-2.40691988e-05
-5.47743641e-05
2.96565001e-05
-2.55488262e-05
-5.89586867e-05
3.12492291e-05
-2.70668446e-05
-6.31880797e-05
3.28490175e-05
-2.86217055e-05
-6.74274034e-05
3.44483698e-05
-3.02112803e-05
-7.16357421e-05
3.60386063e-05
-3.18326655e-05
-7.57661881e-05
3.76097649e-05
-3.34818913e-05
-7.97648171e-05
3.91494713e-05
-3.51536037e-05
-8.35698619e-05
4.06430987e-05
-3.68410261e-05
-8.71062649e-05
4.20694065e-05
-3.85362109e-05
-9.02918114e-05
4.34119236e-05
-4.02297701e-05
-9.30417488e-05
4.46543525e-05
-4.19079956e-05
-9.52734302e-05
4.57696969e-05
-4.35418822e-05
-9.68602212e-05
4.66977313e-05
-4.51151092e-05
-9.76205572e-05
4.73738625e-05
-4.66179864e-05
-9.73570143e-05
4.77499532e-05
-4.8018261e-05
-9.58606695e-05
4.77559233e-05
-4.92573272e-05
-9.28972052e-05
4.73080961e-05
-5.02769774e-05
-8.82239735e-05
4.63062701e-05
-5.09852914e-05
-8.15567282e-05
4.46490259e-05
-5.13224135e-05
-7.25573481e-05
4.2201e-05
-5.1206866e-05
-6.08401872e-05
3.88016396e-05
-5.05256439e-05
-4.60415829e-05
3.43425779e-05
-4.91483674e-05
-2.76991263e-05
2.85818255e-05
-4.69318158e-05
-5.46119244e-06
2.14934565e-05
-4.37392641e-05
2.14936058e-05
1.23993485e-05
-3.93624145e-05
5.401406e-05
1.12084334e-06
-3.36498104e-05
9.29813469e-05
-1.27360697e-05
-2.62399681e-05
0.000139461211
-2.93145613e-05
-1.71745085e-05
0.00019470254
-4.96933478e-05
-5.55776827e-06
0.000260030149
-7.41427374e-05
8.80483268e-06
0.000337003527
-0.000103237107
2.62527438e-05
0.000427228331
-0.00013770021
4.74635964e-05
0.000532164248
-0.000178277371
7.33284988e-05
0.000653854857
-0.000225795444
0.000104090439
0.000794346346
-0.000281083467
0.000140575697
0.000955628818
-0.00034498091
0.00018368001
0.00113965417
-0.000418265828
0.000234219217
0.00134820333
-0.000501695261
0.000293121552
0.00158287529
-0.000595914095
0.000361215282
0.00184478732
-0.000701125179
0.000439184946
0.00213242597
-0.000815341703
0.000527673098
0.00244869497
-0.000948899545
0.000632598688
0.0028080794
-0.0011062524
0.000746833719
0.00318879492
-0.00122897867
0.000848226105
0.00354373144
-0.00137467324
0.00101969725
0.00397327344
-0.00166157066
0.00123198633
0.00454262365
-0.00183818725
0.00126879241
0.00499416551
-0.00185685456
0.00140526696
0.00525796069
-0.00212863257
0.00186479251
0.00572193176
-0.0025524551
0.00208844303
0.00643266792
-0.00268549301
0.00197472473
0.0070134718
-0.00270457221
0.00212374523
0.00726885652
-0.002877762
0.00262238231
-0.00309392612
0.00299945412
0.00736335331
-4.53712327e-08
3.37102958e-07
-1.79246105e-07
1.02905343e-06
-4.03573385e-07
1.7626501e-06
-7.21807532e-07
2.5404389e-06
-1.13841867e-06
3.36446579e-06
-1.65857549e-06
4.23644756e-06
-2.2879163e-06
5.15773868e-06
-3.03214924e-06
6.12909071e-06
-3.89676937e-06
7.15077517e-06
-4.88682437e-06
8.22265299e-06
-6.00672328e-06
9.3442232e-06
-7.26008194e-06
1.05146533e-05
-8.64959371e-06
1.1732802e-05
-1.01769136e-05
1.29972364e-05
-1.18425553e-05
1.4306245e-05
-1.36457689e-05
1.56578304e-05
-1.5584418e-05
1.70497032e-05
-1.76548306e-05
1.84792524e-05
-1.9851622e-05
1.99435055e-05
-2.21674914e-05
2.14390794e-05
-2.45929834e-05
2.29621144e-05
-2.71162038e-05
2.45081893e-05
-2.97225019e-05
2.60722327e-05
-3.23940885e-05
2.76484035e-05
-3.5109594e-05
2.92299475e-05
-3.7843574e-05
3.08090582e-05
-4.0565989e-05
3.23767252e-05
-4.32416903e-05
3.39225876e-05
-4.58298305e-05
3.54346507e-05
-4.8282468e-05
3.6898324e-05
-5.05449826e-05
3.82982647e-05
-5.25553157e-05
3.9617061e-05
-5.42449334e-05
4.08358438e-05
-5.55419655e-05
4.19366645e-05
-5.63615171e-05
4.28852677e-05
-5.65864197e-05
4.3632911e-05
-5.60630809e-05
4.41268463e-05
-5.46136593e-05
4.43158382e-05
-5.20539144e-05
4.41332616e-05
-4.8190936e-05
4.35058513e-05
-4.27951287e-05
4.23488049e-05
-3.56125563e-05
4.05677035e-05
-2.63596572e-05
3.80492357e-05
-1.47046727e-05
3.46450066e-05
-3.08691701e-07
3.02464465e-05
1.72542586e-05
2.46311528e-05
3.82011694e-05
1.78474979e-05
6.33634507e-05
9.17281714e-06
9.34730122e-05
-1.53544409e-06
0.000129356402
-1.43980141e-05
0.000171966498
-3.02192517e-05
0.000222371796
-4.92933086e-05
0.000281679217
-7.20527693e-05
0.000351430005
-9.90750803e-05
0.000432768554
-0.000131042207
0.000527272333
-0.000168657491
0.000636674279
-0.000212650951
0.000762751511
-0.000263790356
0.000907308483
-0.000322848498
0.00107219106
-0.000390693659
0.00125910319
-0.000468013233
0.00146966188
-0.00055555908
0.00170521664
-0.000653841106
0.00196687976
-0.000763379376
0.00225526391
-0.000884320048
0.00257130645
-0.00101719072
0.00291223192
-0.00115629173
0.00326956843
-0.00130626256
0.00365654797
-0.00149326058
0.00409744992
-0.00166991186
0.00451110336
-0.00178836032
0.0048541693
-0.00200467249
0.00531805749
-0.00230211205
0.00588317898
-0.00242201308
0.00625903511
-0.00250452382
0.00643910264
-0.00273255635
0.00669804983
-0.00294447084
0.00707294407
-0.00307948654
0.00738039981
-0.00318522923
-0.00326701723
0.00755349526
-3.42128086e-08
3.71053028e-07
-1.34620856e-07
1.12908352e-06
-3.02217552e-07
1.92980816e-06
-5.39177239e-07
2.77690478e-06
-8.48510324e-07
3.67325376e-06
-1.23378921e-06
4.62113177e-06
-1.69867862e-06
5.62198392e-06
-2.24679407e-06
6.67651112e-06
-2.88145876e-06
7.78469164e-06
-3.60542112e-06
8.94581099e-06
-4.42065233e-06
1.01585905e-05
-5.32817446e-06
1.14212481e-05
-6.32791008e-06
1.27315428e-05
-7.41854054e-06
1.40868003e-05
-8.59736347e-06
1.54839251e-05
-9.86014529e-06
1.69193882e-05
-1.12009476e-05
1.83891953e-05
-1.26119376e-05
1.98888406e-05
-1.40831607e-05
2.14132298e-05
-1.56022795e-05
2.29565963e-05
-1.71542575e-05
2.45123811e-05
-1.87209666e-05
2.60730713e-05
-2.02807348e-05
2.76300507e-05
-2.18078561e-05
2.91734448e-05
-2.32720753e-05
3.06919491e-05
-2.4638311e-05
3.21729292e-05
-2.58666593e-05
3.36025502e-05
-2.69119702e-05
3.49652142e-05
-2.77239712e-05
3.62438085e-05
-2.82480046e-05
3.74193347e-05
-2.84179583e-05
3.84649943e-05
-2.81484192e-05
3.93440917e-05
-2.7336922e-05
4.00207041e-05
-2.58534903e-05
4.04493611e-05
-2.35513674e-05
4.05790292e-05
-2.02722965e-05
4.03494648e-05
-1.58412537e-05
3.96911402e-05
-1.00569384e-05
3.85265627e-05
-2.7028445e-06
3.67739073e-05
6.47141583e-06
3.43260195e-05
1.77732726e-05
3.10410561e-05
3.15327176e-05
2.68020499e-05
4.79934608e-05
2.15819477e-05
6.74970129e-05
1.51345309e-05
9.07873989e-05
6.94885315e-06
0.00011847381
-3.06269868e-06
0.000151282068
-1.49686487e-05
0.000190130137
-2.96836386e-05
0.000235916498
-4.73306209e-05
0.000289840257
-6.83310227e-05
0.00035285382
-9.32425391e-05
0.000426199447
-0.000122649159
0.000511313928
-0.000157178059
0.000609729127
-0.000197501758
0.000723029869
-0.000244355167
0.000852872063
-0.000298512624
0.00100086845
-0.000360661137
0.00116861378
-0.000431550518
0.00135766696
-0.000511917845
0.00156936301
-0.000602406818
0.00180486635
-0.000703533765
0.00206502378
-0.000815733534
0.00235012106
-0.00093895548
0.00265991156
-0.00107318741
0.00299281345
-0.00121724018
0.00334775648
-0.00137215315
0.00372348175
-0.00153203778
0.00410785719
-0.00169066068
0.00448270783
-0.00186813582
0.0048868307
-0.00207406176
0.00532802876
-0.00222958708
0.00568272423
-0.00235939855
0.00594419814
-0.00256361865
0.0062710673
-0.00274891423
0.0066168821
-0.00285036929
0.00682323223
-0.00293893642
0.00693403479
-0.00305529863
0.00704223741
-0.00318771426
0.00717199664
-0.00331500345
-0.0034231807
0.00732815537
-2.67104128e-08
3.9748707e-07
-1.04373743e-07
1.20635248e-06
-2.33014737e-07
2.05799384e-06
-4.13490453e-07
2.95686946e-06
-6.47268046e-07
3.90646812e-06
-9.36152011e-07
4.90940161e-06
-1.281893e-06
5.96705944e-06
-1.68588069e-06
7.07978022e-06
-2.14880309e-06
8.24683962e-06
-2.67068131e-06
9.4668555e-06
-3.2505831e-06
1.07375953e-05
-3.88641385e-06
1.20561143e-05
-4.57473792e-06
1.34188301e-05
-5.31061188e-06
1.48215603e-05
-6.08740801e-06
1.62595249e-05
-6.89661494e-06
1.77273111e-05
-7.72761098e-06
1.9218814e-05
-8.56736842e-06
2.07271214e-05
-9.40011946e-06
2.22443988e-05
-1.02070014e-05
2.37617848e-05
-1.09657372e-05
2.52693057e-05
-1.16507595e-05
2.67561564e-05
-1.22328229e-05
2.82100432e-05
-1.26788029e-05
2.96172181e-05
-1.29514165e-05
3.09622134e-05
-1.3005282e-05
3.22242935e-05
-1.27858636e-05
3.33804714e-05
-1.22292633e-05
3.44057816e-05
-1.12598943e-05
3.52714299e-05
-9.78614543e-06
3.59423872e-05
-7.70221742e-06
3.63776671e-05
-4.89068032e-06
3.6528952e-05
-1.21400533e-06
3.63402044e-05
3.48578518e-06
3.57455052e-05
9.38412699e-06
3.4676377e-05
1.66735219e-05
3.30555088e-05
2.55743687e-05
3.07854725e-05
3.63541882e-05
2.7741656e-05
4.93088125e-05
2.38139157e-05
6.4651895e-05
1.8977263e-05
8.27796434e-05
1.29073803e-05
0.000104275892
5.29971943e-06
0.000129695399
-3.84390106e-06
0.000159705167
-1.48820183e-05
0.000195102613
-2.84557949e-05
0.000236700232
-4.46678815e-05
0.000285646078
-6.39224308e-05
0.000342685882
-8.67317716e-05
0.000408959043
-0.000113612526
0.000485751554
-0.000145132729
0.000574417495
-0.00018191819
0.000676401865
-0.000224643759
0.00079317869
-0.00027396561
0.000926256773
-0.000330591077
0.00107711367
-0.000395223875
0.0012471326
-0.000468544062
0.0014376828
-0.000551224705
0.00164989356
-0.000643775099
0.00188452882
-0.000746566626
0.00214187413
-0.000859765232
0.00242162336
-0.000983295829
0.00272292045
-0.00111704343
0.00304412953
-0.00126017751
0.00338267588
-0.0014117472
0.00373457959
-0.00156915799
0.00409497865
-0.00173256739
0.00446077631
-0.00189785183
0.0048316809
-0.00206158339
0.00518021702
-0.00221669161
0.00548759236
-0.00238145748
0.00578959874
-0.00253161408
0.00607229747
-0.002642122
0.00625585608
-0.00274720586
0.00637178222
-0.00286486999
0.00650114689
-0.00297976247
0.00665487981
-0.00309269465
0.00679116038
-0.00319160853
0.00689284619
-0.00328942507
0.00697042763
-0.00339259753
-0.00351450338
0.00706174368
-2.38202744e-08
4.2096385e-07
-9.22593514e-08
1.27430291e-06
-2.04399221e-07
2.16957067e-06
-3.59812321e-07
3.11165167e-06
-5.58280773e-07
4.10424259e-06
-7.99536807e-07
5.14990272e-06
-1.08312925e-06
6.24983597e-06
-1.40798022e-06
7.4037525e-06
-1.77216702e-06
8.61008216e-06
-2.17247975e-06
9.86615518e-06
-2.60425409e-06
1.11682839e-05
-3.0615584e-06
1.25122559e-05
-3.53673948e-06
1.38927668e-05
-4.02020081e-06
1.53036908e-05
-4.50017575e-06
1.67380774e-05
-4.96249026e-06
1.81881065e-05
-5.39032062e-06
1.9645023e-05
-5.76403524e-06
2.10991057e-05
-6.0609502e-06
2.25394678e-05
-6.25456538e-06
2.39534361e-05
-6.31327621e-06
2.5325929e-05
-6.20047483e-06
2.66411335e-05
-5.87370772e-06
2.78809143e-05
-5.28337227e-06
2.90243755e-05
-4.37134671e-06
3.00475259e-05
-3.07202548e-06
3.09221432e-05
-1.30934922e-06
3.16147927e-05
1.00649035e-06
3.20867593e-05
3.98150631e-06
3.22930349e-05
7.73906584e-06
3.21812353e-05
1.24166567e-05
3.16962647e-05
1.8166621e-05
3.07749478e-05
2.51638798e-05
2.93386662e-05
3.36066699e-05
2.72981831e-05
4.37359716e-05
2.4542283e-05
5.58212305e-05
2.09651779e-05
7.00701293e-05
1.65311993e-05
8.68335247e-05
1.09726299e-05
0.000106638668
4.0029364e-06
0.000129982436
-4.37265601e-06
0.000157441015
-1.45577708e-05
0.000189693177
-2.69594281e-05
0.000227604719
-4.17628252e-05
0.000272057707
-5.93428055e-05
0.000323734082
-8.01404012e-05
0.000383674295
-0.000104616783
0.00045303058
-0.000133287888
0.000533012765
-0.000166723665
0.000624900473
-0.000205510472
0.000730038338
-0.00025028133
0.000849795255
-0.000301686314
0.000985520797
-0.000360380991
0.00113856048
-0.000427017469
0.0013101454
-0.000502188765
0.00150133217
-0.000586424077
0.00171288478
-0.000680110314
0.00194512289
-0.000783475843
0.00219786415
-0.000896528656
0.00247026497
-0.00101897907
0.0027606908
-0.00115020223
0.00306667569
-0.00128929154
0.00338482825
-0.00143520672
0.00371134223
-0.00158670224
0.00404081455
-0.00174123062
0.00436802914
-0.00189638418
0.004685214
-0.00204976476
0.00498829073
-0.00220094146
0.00526796734
-0.00234127358
0.00551395777
-0.00246269726
0.00570367666
-0.0025711945
0.00584900679
-0.00267696432
0.00598806751
-0.00278120574
0.0061249537
-0.00288411585
0.00624153586
-0.00298147216
0.00633758239
-0.00307582895
0.0064239384
-0.00317907627
0.00652265481
-0.00329034705
0.00662541397
-0.00339219761
0.00673003248
-0.00349722562
-0.00360319839
0.00681872274
-2.44908065e-08
4.45133277e-07
-9.4193474e-08
1.34355036e-06
-2.0714513e-07
2.28199917e-06
-3.61480287e-07
3.26540123e-06
-5.55139376e-07
4.2972574e-06
-7.85590309e-07
5.3796522e-06
-1.04953266e-06
6.51301916e-06
-1.34273504e-06
7.69613574e-06
-1.65981316e-06
8.92627793e-06
-1.99372763e-06
1.01991197e-05
-2.33574913e-06
1.15092833e-05
-2.67482856e-06
1.28502367e-05
-2.9976318e-06
1.42143896e-05
-3.2883363e-06
1.55931271e-05
-3.52833673e-06
1.6976716e-05
-3.69584789e-06
1.83541586e-05
-3.76534308e-06
1.9712957e-05
-3.70728608e-06
2.10393755e-05
-3.48762143e-06
2.23180095e-05
-3.06729985e-06
2.35311978e-05
-2.40202904e-06
2.46586138e-05
-1.44000751e-06
2.56769306e-05
-1.20446854e-07
2.65590298e-05
1.62806114e-06
2.7273389e-05
3.88915854e-06
2.77837846e-05
6.75689787e-06
2.80515896e-05
1.03371062e-05
2.80315938e-05
1.47508354e-05
2.76698543e-05
2.01363607e-05
2.690414e-05
2.66507969e-05
2.56632271e-05
3.44770408e-05
2.38662388e-05
4.38329419e-05
2.14150473e-05
5.4978181e-05
1.81891999e-05
6.81141869e-05
1.41577027e-05
8.35349956e-05
9.11678967e-06
0.000101721724
2.77359632e-06
0.000123114603
-4.86677631e-06
0.000148226152
-1.41443526e-05
0.000177659076
-2.54357463e-05
0.00021218736
-3.89070082e-05
0.000252518847
-5.4895642e-05
0.000299341326
-7.37886276e-05
0.000353574733
-9.60032999e-05
0.000416223603
-0.000121999118
0.000488357439
-0.000152282079
0.000571126317
-0.000187393922
0.000665738437
-0.000227908654
0.000773430269
-0.000274424531
0.000895464446
-0.000327554059
0.00103306667
-0.000387893356
0.00118737513
-0.000456004981
0.00135936878
-0.000532385323
0.00154977417
-0.000617434074
0.00175897374
-0.000711399772
0.00198687686
-0.000814338171
0.0022328277
-0.000926071504
0.00249549189
-0.00104614977
0.00277279374
-0.00117383976
0.00306175867
-0.0013079528
0.00335852026
-0.00144697234
0.00365845528
-0.00158923484
0.00395592101
-0.00173268069
0.0042454284
-0.00187621789
0.0045203432
-0.0020161539
0.00477622748
-0.00215227733
0.00500617907
-0.00227972557
0.00520253878
-0.00239731127
0.00536042599
-0.00249917401
0.00549441828
-0.00259670269
0.0056127223
-0.00268951227
0.00571792491
-0.00278218268
0.00581178183
-0.00287507813
0.00589783396
-0.00297018774
0.00598541805
-0.00306907572
0.00607435672
-0.00316478303
0.00615880763
-0.00326354261
0.0062377643
-0.00336931768
0.00632071421
-0.00347516039
0.00640871882
-0.00358523987
-0.00369715606
0.00650267161
-2.67131972e-08
4.71459002e-07
-1.01775792e-07
1.41806521e-06
-2.21825079e-07
2.40141988e-06
-3.83178112e-07
3.42605175e-06
-5.81479578e-07
4.49478743e-06
-8.11395511e-07
5.60873009e-06
-1.06629309e-06
6.76701209e-06
-1.33793038e-06
7.96680027e-06
-1.61616453e-06
9.20346843e-06
-1.88894822e-06
1.04707844e-05
-2.14189843e-06
1.17610352e-05
-2.35761292e-06
1.30646696e-05
-2.51569653e-06
1.4371102e-05
-2.59238597e-06
1.56683498e-05
-2.5599561e-06
1.69427196e-05
-2.38628455e-06
1.81788176e-05
-2.03451938e-06
1.93594144e-05
-1.46216483e-06
2.04651263e-05
-6.19625347e-07
2.14734502e-05
5.50318749e-07
2.23591029e-05
2.11250073e-06
2.30941453e-05
4.1415216e-06
2.36454802e-05
6.72233131e-06
2.3975638e-05
9.95179739e-06
2.40411797e-05
1.39402109e-05
2.37924596e-05
1.8816373e-05
2.31723388e-05
2.47293257e-05
2.21153667e-05
3.184903e-05
2.05466794e-05
4.03727591e-05
1.83767374e-05
5.05333592e-05
1.54987362e-05
6.25286822e-05
1.18667843e-05
7.66314146e-05
7.3079681e-06
9.32479382e-05
1.56816184e-06
0.000112767375
-5.36648518e-06
0.00013564474
-1.37656597e-05
0.000162412109
-2.39991892e-05
0.000193745125
-3.62055235e-05
0.000230281605
-5.0686896e-05
0.000272625777
-6.7786328e-05
0.000321586739
-8.78747479e-05
0.000378048778
-0.000111364843
0.000442961642
-0.000138709077
0.000517345237
-0.000170394911
0.00060228061
-0.000206942933
0.00069888645
-0.000248896762
0.000808294414
-0.000296811145
0.00093161445
-0.000351238348
0.00106988735
-0.000412707508
0.00122402122
-0.000481698407
0.00139472485
-0.00055860793
0.00158242266
-0.000643714262
0.00178715871
-0.000737133133
0.00200847721
-0.000838763941
0.00224534817
-0.000948281425
0.00249609074
-0.00106509073
0.00275828386
-0.00118827406
0.00302868456
-0.00131655934
0.00330339781
-0.00144856146
0.00357769636
-0.00158225939
0.00384633506
-0.00171561884
0.00410365489
-0.00184656219
0.00434513873
-0.00197417199
0.00456444495
-0.00209553137
0.00475871796
-0.00221043461
0.00492466912
-0.00231823704
0.00506235973
-0.00241742402
0.00517357366
-0.00250853308
0.00527012196
-0.00259573275
0.00535759429
-0.00268418513
0.0054406512
-0.00277257884
0.00552028084
-0.00286182417
0.00559746643
-0.00295227719
0.00566984908
-0.00304258384
0.00574166018
-0.00314089957
0.00581956322
-0.00324269835
0.00589871134
-0.00334270355
0.00597563546
-0.00344625399
0.00605338591
-0.00355292083
0.00612619042
-0.00365805113
-0.00377453984
0.00620357119
-2.70896644e-08
4.98214779e-07
-1.0188947e-07
1.49239466e-06
-2.1919549e-07
2.51818718e-06
-3.72953965e-07
3.57920839e-06
-5.55877484e-07
4.67704957e-06
-7.59106823e-07
5.81123972e-06
-9.71865993e-07
6.97899243e-06
-1.18112654e-06
8.17522069e-06
-1.37122843e-06
9.39266558e-06
-1.52351459e-06
1.06220964e-05
-1.61595392e-06
1.18524262e-05
-1.62304033e-06
1.30706291e-05
-1.51496058e-06
1.42618101e-05
-1.25698652e-06
1.54090724e-05
-8.08955252e-07
1.6493289e-05
-1.24844967e-07
1.74932061e-05
8.48159075e-07
1.83848004e-05
2.17064456e-06
1.91409151e-05
3.91162173e-06
1.97306258e-05
6.15003346e-06
2.01187159e-05
8.97681429e-06
2.02652524e-05
1.24961167e-05
2.01239214e-05
1.68271634e-05
1.96421842e-05
2.2105869e-05
1.87599083e-05
2.8487188e-05
1.74084086e-05
3.61500365e-05
1.55065853e-05
4.53020965e-05
1.2960219e-05
5.61295504e-05
9.71593626e-06
6.88956942e-05
5.60712185e-06
8.39439563e-05
4.46851677e-07
0.000101620608
-5.81368718e-06
0.000122329185
-1.34046913e-05
0.000146519375
-2.26263696e-05
0.000174780495
-3.36321963e-05
0.000207700378
-4.66903911e-05
0.000245800343
-6.21042738e-05
0.000289792278
-8.02028566e-05
0.000340452566
-0.000101352877
0.00039861813
-0.000125957892
0.000465190562
-0.000154453509
0.000541124022
-0.000187304941
0.000627409018
-0.000225001018
0.000725051365
-0.000268044499
0.000835041193
-0.000316940311
0.000958315314
-0.000372178729
0.00109571015
-0.000434214143
0.00124790268
-0.000503439336
0.00141534092
-0.000580154569
0.00159816494
-0.000664531621
0.00179612409
-0.000756576668
0.00200847565
-0.00085607527
0.00223390661
-0.000962573061
0.00247049283
-0.00107535861
0.00271564025
-0.00119343688
0.00296609592
-0.00131555399
0.00321803399
-0.00144021939
0.00346703349
-0.00156556573
0.00370851108
-0.0016900457
0.00393787758
-0.00181163229
0.00415145896
-0.00192920649
0.00434506797
-0.00204017705
0.00451456185
-0.00214367142
0.00465890838
-0.00223988341
0.00477907409
-0.00233060606
0.00487737442
-0.00241654242
0.00496175053
-0.00250180579
0.00504126735
-0.00258805643
0.00511953535
-0.00267400743
0.00519510836
-0.00275976505
0.00526653621
-0.00284401336
0.00533475742
-0.00293005371
0.00540196401
-0.00301949268
0.00547100962
-0.00311163724
0.00553335701
-0.00320325708
0.00559509345
-0.0033044452
0.00566247084
-0.00341009166
0.00573134599
-0.00351513846
0.00580095679
-0.00362253861
0.00587383077
-0.00373093096
-0.00383709565
0.0059363839
-2.3687769e-08
5.21503498e-07
-8.62312179e-08
1.55437638e-06
-1.79772662e-07
2.6110857e-06
-2.9500716e-07
3.69372553e-06
-4.20725282e-07
4.80198085e-06
-5.43404931e-07
5.93306537e-06
-6.46788078e-07
7.08145396e-06
-7.11462892e-07
8.23890464e-06
-7.14400098e-07
9.39454012e-06
-6.284794e-07
1.05350367e-05
-4.21941766e-07
1.1644669e-05
-5.78648384e-08
1.27052478e-05
5.06294613e-07
1.36962565e-05
1.31937053e-06
1.45945073e-05
2.43718799e-06
1.53738819e-05
3.92363542e-06
1.60050635e-05
5.85188029e-06
1.64547492e-05
8.30547771e-06
1.66853927e-05
1.13797959e-05
1.66542574e-05
1.51836324e-05
1.63126975e-05
1.98411972e-05
1.56053671e-05
2.54936165e-05
1.44690351e-05
3.23032929e-05
1.28298879e-05
4.0452343e-05
1.06080741e-05
5.01147441e-05
7.74304369e-06
6.1549586e-05
4.06861185e-06
7.50386183e-05
-5.3209605e-07
9.08898447e-05
-6.13876625e-06
0.000109457783
-1.29645293e-05
0.000131136483
-2.1235799e-05
0.000156431318
-3.11127133e-05
0.000185856206
-4.2834027e-05
0.000219891998
-5.66668751e-05
0.000259158392
-7.29035887e-05
0.000304331846
-9.18691387e-05
0.0003561427
-0.000113920744
0.000415379136
-0.000139445245
0.0004828769
-0.000168856933
0.00055950554
-0.000202593149
0.000646151315
-0.000241106238
0.000743693131
-0.000284854039
0.000852970694
-0.000334286204
0.000974745026
-0.000389826781
0.00110964936
-0.000451852935
0.00125813177
-0.000520669748
0.00142039013
-0.000596481446
0.00159630126
-0.000679359788
0.00178534931
-0.000769212392
0.00198655486
-0.000865746986
0.00219839657
-0.000968427799
0.00241879107
-0.00107647865
0.00264507761
-0.00118886805
0.00287403905
-0.00130432803
0.00310197737
-0.00142138283
0.00332486011
-0.001538444
0.00353860578
-0.00165397208
0.00373931526
-0.00176628196
0.00392346204
-0.00187419905
0.00408895169
-0.00197712788
0.00423264974
-0.00207291022
0.00435391252
-0.00216144581
0.0044554783
-0.00224524364
0.00454444841
-0.00232885977
0.00462379378
-0.00240995677
0.00469642669
-0.00248917995
0.00476260458
-0.00256798836
0.00482699392
-0.00265245088
0.00488985794
-0.00273687661
0.00494968638
-0.00281959856
0.00500985338
-0.00290418691
0.00507182586
-0.00299203284
0.00513344037
-0.00308111379
0.00519555583
-0.00317375984
0.00526313278
-0.00327084065
0.00532570275
-0.00336702264
0.00538496539
-0.00346936358
0.0054522692
-0.00358244855
0.00552260428
-0.00369287935
0.0055950407
-0.00380337319
-0.00390861651
0.00566655867
-1.5107675e-08
5.36292852e-07
-4.92256774e-08
1.58804758e-06
-9.06247841e-08
2.65197408e-06
-1.25378632e-07
3.7279093e-06
-1.36816507e-07
4.81279249e-06
-1.05023764e-07
5.90059111e-06
-6.32705258e-09
6.98201914e-06
1.8725053e-07
8.04452984e-06
5.08494534e-07
9.07243654e-06
9.9551998e-07
1.00470852e-05
1.69237374e-06
1.09468179e-05
2.64965013e-06
1.17468976e-05
3.92542937e-06
1.24193217e-05
5.58603084e-06
1.29326633e-05
7.70734561e-06
1.32512319e-05
1.03758942e-05
1.33350795e-05
1.3690269e-05
1.31388321e-05
1.77626192e-05
1.26113873e-05
2.27203309e-05
1.16947707e-05
2.87088286e-05
1.03222981e-05
3.58919291e-05
8.42022937e-06
4.4430208e-05
5.92857294e-06
5.45583927e-05
2.69938036e-06
6.65197015e-05
-1.35569797e-06
8.05872527e-05
-6.32713946e-06
9.70718257e-05
-1.24187793e-05
0.000116318888
-1.97821626e-05
0.000138765304
-2.85883828e-05
0.000164845155
-3.90477863e-05
0.000195000079
-5.13943434e-05
0.000229769923
-6.58864028e-05
0.000269742684
-8.28108706e-05
0.000315554488
-0.000102483008
0.000367891327
-0.000125245023
0.000427481634
-0.000151464303
0.000495085967
-0.000181530191
0.00057148309
-0.000215847737
0.000657450501
-0.000254829973
0.000753738362
-0.000298886889
0.000861037151
-0.000348411164
0.000979937261
-0.000403760528
0.00111088126
-0.00046523684
0.00125410946
-0.00053306184
0.00140959989
-0.000607350462
0.00157700528
-0.00068808248
0.00175559023
-0.000775074042
0.00194417932
-0.000867956729
0.0021411118
-0.000966152618
0.00234421881
-0.00106886133
0.00255084367
-0.00117505964
0.00275787832
-0.00128351991
0.00296186384
-0.00139285991
0.00315916611
-0.00150163632
0.00334619235
-0.00160841489
0.00351961222
-0.00171186942
0.00367666075
-0.00181102602
0.00381570441
-0.00190533075
0.00393622455
-0.00199472418
0.00403861134
-0.00207951974
0.00412516762
-0.00215947156
0.00420182746
-0.00223811034
0.00427117516
-0.002314596
0.00433354898
-0.0023912377
0.0043926251
-0.00246903755
0.0044515058
-0.00254806463
0.00450797254
-0.00262445856
0.00456001012
-0.0027044935
0.00461033235
-0.00278720343
0.00466547433
-0.00287474411
0.00472426051
-0.00296297757
0.00478376335
-0.00305154125
0.00484634393
-0.00314369995
0.00490820338
-0.00323562436
0.00497119272
-0.00333383592
0.00504008271
-0.00343591799
0.0051039124
-0.00353319894
0.00515801044
-0.0036365531
0.00522897925
-0.00376385358
0.00530618924
-0.00388058591
-0.00398316169
0.00538073291
-6.65505089e-10
5.36571877e-07
1.23290717e-08
1.57451022e-06
5.60609456e-08
2.60762172e-06
1.5072027e-07
3.63255805e-06
3.20228963e-07
4.64252505e-06
5.9281736e-07
5.62717916e-06
1.00161375e-06
6.57233432e-06
1.58523837e-06
7.45995026e-06
2.38842348e-06
8.26822719e-06
3.46277292e-06
8.9716386e-06
4.86755927e-06
9.54085748e-06
6.67048676e-06
9.94271535e-06
8.94907095e-06
1.01393975e-05
1.17915648e-05
1.00887378e-05
1.52983406e-05
9.74292728e-06
1.95833433e-05
9.0484457e-06
2.47760727e-05
7.94436403e-06
3.10233711e-05
6.36223475e-06
3.84739684e-05
4.24219598e-06
4.73312345e-05
1.46293467e-06
5.78086797e-05
-2.05943768e-06
7.01466176e-05
-6.41173526e-06
8.46167271e-05
-1.17732575e-05
0.000101525215
-1.82668766e-05
0.000121247102
-2.60518879e-05
0.000144138475
-3.53131984e-05
0.000170609009
-4.62559343e-05
0.000201125187
-5.91080059e-05
0.000236195704
-7.41219656e-05
0.000276372606
-9.15751426e-05
0.000322251179
-0.000111769123
0.000374464497
-0.000135028598
0.000433675669
-0.000161698847
0.000500566897
-0.000192141185
0.000575824158
-0.000226726768
0.000660116306
-0.000265827822
0.000754069066
-0.000309806257
0.00085823229
-0.000358999242
0.000973041052
-0.000413701973
0.00109877074
-0.000474147463
0.00123548738
-0.00054048403
0.00138299446
-0.000612751067
0.00154077959
-0.000690854352
0.00170796396
-0.000774542496
0.0018832588
-0.000863385293
0.00206493885
-0.000956762203
0.00225083604
-0.00105386175
0.00243838964
-0.0011537137
0.00262472425
-0.00125520302
0.00280675661
-0.00135709877
0.0029813399
-0.00145810962
0.00314546442
-0.0015569906
0.00329653904
-0.00165271682
0.0034326902
-0.00174457173
0.00355287558
-0.00183206021
0.00365706574
-0.00191522146
0.00374604381
-0.00199431389
0.00382186136
-0.00207054667
0.00388798682
-0.00214564998
0.00394821228
-0.00221970206
0.00400450637
-0.00229440883
0.0040586209
-0.00236871408
0.00411069741
-0.0024433178
0.00416108839
-0.00251943162
0.00420907699
-0.00259605618
0.0042585109
-0.00267389683
0.00430674178
-0.00275272787
0.00435149474
-0.00283195897
0.00439189303
-0.00291514622
0.00443388888
-0.0030049776
0.00448248119
-0.00310013672
0.00453566938
-0.00319689201
0.00459720453
-0.00329716348
0.00465954807
-0.00339618381
0.00472231465
-0.00349868954
0.00479285351
-0.00360374179
0.00485470173
-0.0036984045
0.00489882147
-0.00380797704
0.00496193507
-0.00394370196
-0.00406056602
0.00503933873
2.01990308e-08
5.16086581e-07
1.00600405e-07
1.49370759e-06
2.65317054e-07
2.44244672e-06
5.42578384e-07
3.35478514e-06
9.6546081e-07
4.21908029e-06
1.57258262e-06
5.01944476e-06
2.4088011e-06
5.73545183e-06
3.52595683e-06
6.34207659e-06
4.98369172e-06
6.80971704e-06
6.85020202e-06
7.10429215e-06
9.20357788e-06
7.18658021e-06
1.21326105e-05
7.01271015e-06
1.57382349e-05
6.53272377e-06
2.01351003e-05
5.69074139e-06
2.54530099e-05
4.42379834e-06
3.1827984e-05
2.67215667e-06
3.94351302e-05
3.35806637e-07
4.84609491e-05
-2.66509716e-06
5.91157121e-05
-6.41419709e-06
7.16364119e-05
-1.10595209e-05
8.62888601e-05
-1.67137717e-05
0.000103394425
-2.35193249e-05
0.000123257561
-3.16385646e-05
0.000146239887
-4.12515299e-05
0.000172743918
-5.25584099e-05
0.000203208841
-6.57807879e-05
0.00023811202
-8.11619649e-05
0.0002779679
-9.89669353e-05
0.000323324404
-0.000119481724
0.000374757326
-0.000143011528
0.000432862027
-0.000169877497
0.000498241412
-0.000200411874
0.000571489738
-0.000234951282
0.000653171894
-0.000273827674
0.00074379743
-0.000317356857
0.00084378931
-0.00036582448
0.000953447552
-0.000419469492
0.00107290852
-0.00047846542
0.00120210084
-0.000542899705
0.00134070032
-0.000612752564
0.00148808638
-0.000687875884
0.00164330401
-0.000767974668
0.00180503628
-0.000852592767
0.00197159231
-0.000941104897
0.00214091046
-0.00103270982
0.00231059737
-0.00112645527
0.00247802304
-0.00122129324
0.00264046275
-0.00131615894
0.00279527635
-0.00141002181
0.00294020427
-0.00150203163
0.00307334578
-0.00159125573
0.00319333549
-0.00167698467
0.00329961284
-0.00175899822
0.00339253605
-0.00183749879
0.00347326388
-0.00191279168
0.00354381872
-0.00198577984