/*--------------------------------*- C++ -*----------------------------------*\
  =========                 |
  \\      /  F ield         | OpenFOAM: The Open Source CFD Toolbox
   \\    /   O peration     | Website:  https://openfoam.org
    \\  /    A nd           | Version:  8
     \\/     M anipulation  |
\*---------------------------------------------------------------------------*/
FoamFile
{
    version     2.0;
    format      ascii;
    class       volScalarField;
    location    "0.048";
    object      T;
}
// * * * * * * * * * * * * * * * * * * * * * * * * * * * * * * * * * * * * * //

dimensions      [0 0 0 1 0 0 0];

internalField   nonuniform List<scalar> 
42400
(
472.173364
470.501581
468.785419
467.023559
465.214718
463.357673
461.451274
459.494478
457.486372
455.426209
453.313442
451.147763
448.929151
446.65791
444.334728
441.960721
439.537491
437.067184
434.552539
431.996949
429.40451
426.780072
424.129278
421.458598
418.775353
416.087722
413.404735
410.736245
408.092882
405.48598
402.927483
400.429825
398.005789
395.668347
393.430472
391.304947
389.304168
387.439959
385.723387
384.164559
382.772426
381.554631
380.517369
379.665283
379.001336
378.526778
378.241045
378.143979
378.227563
378.48644
378.911555
379.490307
380.206538
381.039903
381.967373
382.957257
383.963037
384.948368
385.902144
386.749929
387.186773
387.144877
386.652102
385.817525
384.688251
383.189059
381.208915
378.614998
375.401474
371.678787
367.105498
361.758926
356.675494
350.972318
343.820171
337.332787
331.654892
326.184626
318.934253
313.748118
472.212613
470.620238
468.985668
467.307711
465.585219
463.817108
462.002382
460.140158
458.229695
456.270426
454.261998
452.204304
450.097534
447.942217
445.739266
443.490037
441.196376
438.860673
436.485917
434.07575
431.634511
429.167289
426.679956
424.179198
421.672537
419.168334
416.675781
414.204868
411.76634
409.371621
407.03272
404.76211
402.572595
400.477147
398.488743
396.620164
394.883772
393.291264
391.853421
390.579825
389.478585
388.556111
387.816881
387.263192
386.894849
386.709029
386.699848
386.857136
387.171732
387.624111
388.193534
388.851879
389.560323
390.282601
390.991131
391.686934
392.075827
392.101169
391.790027
390.960654
389.892155
388.501582
386.717253
384.384947
381.463442
377.942541
373.836789
369.122342
363.824504
358.277167
352.345158
345.664096
339.262858
333.397821
327.149957
320.747143
315.435865
310.670574
306.797661
303.084814
472.261568
470.768231
469.23542
467.662094
466.047267
464.39003
462.689569
460.9452
459.156389
457.322793
455.44429
453.521021
451.553432
449.54232
447.488874
445.394733
443.262028
441.093437
438.892233
436.662334
434.408346
432.135604
429.850202
427.559019
425.269731
422.990804
420.731479
418.501732
416.312217
414.174188
412.099403
410.099991
408.188293
406.376669
404.677282
403.101828
401.661242
400.36538
399.222701
398.23994
397.421745
396.77024
396.284685
395.961458
395.793446
395.769168
395.869142
396.080485
396.37015
396.708201
397.068962
397.440701
397.60891
397.537414
397.132959
396.300775
395.272071
393.969511
392.321835
390.219448
387.574298
384.356474
380.552615
376.179726
371.276608
365.899054
360.150334
354.086989
347.714924
341.332114
335.205335
328.979565
322.882017
317.553032
312.840404
308.639359
304.916063
301.957644
300.276678
299.85924
472.31686
470.935382
469.517501
468.062347
466.569119
465.037102
463.465696
461.854438
460.203034
458.511391
456.779654
455.008244
453.197896
451.349705
449.465168
447.54623
445.59533
443.615448
441.610143
439.583601
437.540663
435.486859
433.428428
431.372325
429.326224
427.298498
425.298178
423.334903
421.418824
419.560504
417.770771
416.060536
414.440571
412.92126
411.512293
410.222355
409.058767
408.027107
407.130757
406.37051
405.744384
405.246692
404.867278
404.591401
404.400827
404.273574
404.186961
404.123494
403.94079
403.586958
402.998168
402.091027
401.015295
399.711902
398.117316
396.15803
393.72494
390.781913
387.303325
383.280958
378.72712
373.67591
368.181377
362.314668
356.172316
349.850568
343.487919
337.200566
331.042356
325.122332
319.735082
314.87037
310.510124
306.75541
303.768868
301.432433
300.181942
299.933397
299.874237
299.850998
472.374694
471.110221
469.812562
468.481032
467.115026
465.71404
464.277696
462.805769
461.298214
459.755201
458.177149
456.564759
454.919053
453.241416
451.533631
449.797918
448.036976
446.254017
444.452796
442.637642
440.813477
438.985828
437.160826
435.345193
433.546212
431.771675
430.029807
428.329167
426.67851
425.086622
423.56211
422.113164
420.747277
419.470926
418.289213
417.205465
416.220823
415.333973
414.540528
413.83282
413.200538
412.630604
412.108243
411.566113
410.965955
410.262978
409.406142
408.337321
407.131697
405.738339
404.104945
402.171753
399.849207
397.094566
393.876438
390.17405
385.982431
381.312346
376.191381
370.666956
364.799672
358.6635
352.349048
345.958214
339.607565
333.407509
327.483115
321.956977
316.924836
312.431865
308.581576
305.42612
302.978025
301.133747
300.132106
299.927345
299.872251
299.854182
299.845486
299.845466
472.430849
471.279986
470.099072
468.887607
467.645181
466.371496
465.066388
463.729856
462.362085
460.963477
459.534683
458.076633
456.590567
455.07807
453.541097
451.982009
450.403589
448.809072
447.202153
445.586995
443.968229
442.350931
440.740597
439.143089
437.564559
436.011358
434.489904
433.006527
431.567281
430.177718
428.842629
427.565756
426.349469
425.194401
424.099196
423.060173
422.071025
421.120574
420.187066
419.246132
418.269053
417.222396
416.06811
414.821153
413.452404
411.924757
410.196682
408.217504
405.921677
403.273154
400.239341
396.794141
392.921552
388.616862
383.888172
378.757685
373.261928
367.453546
361.3969
355.167725
348.851213
342.540128
336.333354
330.340956
324.668758
319.428021
314.713585
310.613716
307.183881
304.457457
302.430335
300.957351
300.131517
299.950481
299.895576
299.869737
299.859205
299.849905
299.84041
299.82791
472.480591
471.430368
470.352881
469.247794
468.114868
466.953976
465.765127
464.548487
463.3044
462.033414
460.736303
459.414094
458.068084
456.699863
455.311332
453.904712
452.482553
451.047735
449.603453
448.153199
446.700726
445.249992
443.805091
442.370161
440.949258
439.546219
438.164481
436.806884
435.47543
434.171021
432.893156
431.639674
430.406419
429.186846
427.969632
426.739932
425.479915
424.172021
422.804375
421.355982
419.802387
418.115133
416.260276
414.194416
411.880023
409.284606
406.377397
403.131274
399.525054
395.544863
391.185605
386.452272
381.360945
375.939539
370.228654
364.282138
358.164564
351.948381
345.71621
339.557698
333.566368
327.839101
322.468971
317.554619
313.179579
309.423851
306.330561
303.917892
302.149035
300.979698
300.231621
300.007854
299.930551
299.901562
299.88156
299.864699
299.848232
299.828138
299.812539
299.810551
472.518922
471.546251
470.548467
469.525354
468.476785
467.402739
466.30331
465.178729
464.029375
462.855794
461.658707
460.439028
459.197869
457.936545
456.656574
455.359668
454.047721
452.722779
451.387006
450.042631
448.69188
447.336887
445.979592
444.621604
443.264055
441.907419
440.551314
439.194286
437.833603
436.465013
435.08247
433.677912
432.240992
430.758815
429.218046
427.603078
425.894968
424.070595
422.102313
419.96445
417.630156
415.072163
412.263804
409.180131
405.79906
402.102727
398.078697
393.721147
389.031943
384.021599
378.710086
373.127515
367.314805
361.323988
355.220224
349.074008
342.964392
336.976419
331.202271
325.735236
320.666011
316.079205
312.043544
308.614647
305.823935
303.671596
302.116982
301.079108
300.459751
300.128172
300.010052
299.953449
299.915082
299.883342
299.848437
299.825243
299.810024
299.810316
299.809874
299.808669
472.541189
471.61357
470.66208
469.686553
468.686895
467.663085
466.615189
465.543363
464.447861
463.329037
462.187345
461.023337
459.837658
458.631025
457.404212
456.158019
454.893231
453.610595
452.310796
450.994343
449.661492
448.312128
446.945642
445.56077
444.155412
442.726409
441.269229
439.777676
438.24478
436.66194
435.0188
433.303147
431.500829
429.595825
427.570383
425.405194
423.079667
420.572364
417.861583
414.926105
411.745918
408.302829
404.58157
400.570747
396.263789
391.659871
386.7648
381.591839
376.162486
370.507173
364.665865
358.688842
352.638045
346.584834
340.606137
334.785912
329.213429
323.977512
319.165671
314.856735
311.110635
307.963962
305.43018
303.489609
302.090607
301.148461
300.566512
300.235872
300.062071
299.976867
299.911138
299.865365
299.835809
299.813563
299.810234
299.808614
299.807702
299.809531
299.811875
299.811895
472.544016
471.622104
470.676431
469.706785
468.712992
467.694922
466.652486
465.58563
464.494338
463.378615
462.238481
461.073952
459.885014
458.671599
457.433552
456.1706
454.882299
453.567941
452.226435
450.856232
449.455188
448.020399
446.547997
445.032887
443.468952
441.849942
440.168671
438.417043
436.584878
434.660582
432.631187
430.482419
428.19883
425.76401
423.16088
420.372071
417.380402
414.169458
410.72388
407.03027
403.07792
398.859583
394.372263
389.618026
384.604817
379.347268
373.867498
368.195888
362.371792
356.444105
350.471693
344.524719
338.680397
333.021241
327.63358
322.603505
318.012565
313.930209
310.409026
307.477326
305.133331
303.344294
302.049791
301.166715
300.60072
300.256274
300.057496
299.930386
299.862975
299.825736
299.818226
299.81459
299.8109
299.809364
299.809817
299.808322
299.807575
299.808818
299.813385
299.817394
472.527795
471.573062
470.593653
469.589262
468.559586
467.50432
466.423144
465.315714
464.181643
463.020492
461.831748
460.614796
459.368797
458.091932
456.781987
455.437163
454.055274
452.633688
451.169263
449.658287
448.096446
446.4788
444.79978
443.053338
441.232582
439.328746
437.332063
435.231762
433.01609
430.672393
428.187246
425.546646
422.73626
419.741746
416.549159
413.145177
409.517689
405.6564
401.553464
397.204152
392.60759
387.767538
382.693212
377.400144
371.911041
366.256605
360.476235
354.618535
348.741578
342.912663
337.20803
331.708905
326.49841
321.658237
317.263256
313.374824
310.035062
307.261718
305.044697
303.346846
302.10489
301.239492
300.664825
300.300055
300.076207
299.941108
299.856423
299.834986
299.824262
299.818221
299.815164
299.812915
299.810499
299.808722
299.809051
299.811381
299.810183
299.809381
299.812654
299.820773
472.491843
471.464375
470.410212
469.328881
468.219863
467.082573
465.916343
464.72029
463.492841
462.232671
460.938209
459.607592
458.238721
456.829927
455.379295
453.883749
452.339741
450.743208
449.089505
447.373346
445.588774
443.729111
441.786896
439.753881
437.621015
435.378449
433.015586
430.521164
427.883377
425.090041
422.128811
418.987459
415.654092
412.117482
408.367588
404.396061
400.196818
395.766692
391.106148
386.220077
381.118648
375.818209
370.342179
364.721904
358.997355
353.217527
347.440367
341.732121
336.166126
330.82083
325.776169
321.108039
316.883621
313.155762
309.957994
307.299548
305.164215
303.511187
302.280801
301.401641
300.797956
300.399031
300.144507
299.988379
299.89532
299.85059
299.83806
299.830527
299.823474
299.81694
299.812371
299.80912
299.807395
299.8073
299.808764
299.815122
299.816747
299.814975
299.814377
299.818076
472.43737
471.299698
470.132267
468.934361
467.705154
466.443682
465.148405
463.817937
462.451183
461.046336
459.601299
458.11365
456.580603
454.998974
453.365131
451.674943
449.923729
448.106236
446.216597
444.248284
442.194107
440.046201
437.796034
435.434429
432.951613
430.337294
427.580766
424.671057
421.597118
418.348042
414.913208
411.28273
407.447863
403.401484
399.138652
394.657246
389.958691
385.048765
379.938467
374.644923
369.192277
363.612501
357.946013
352.241994
346.558226
340.960168
335.519164
330.309628
325.4057
320.877335
316.785742
313.176471
310.0754
307.48631
305.390463
303.748169
302.504692
301.594778
300.951096
300.512208
300.224103
300.041702
299.933788
299.875022
299.848544
299.835375
299.825705
299.819735
299.816147
299.814742
299.8134
299.810637
299.808598
299.808092
299.810707
299.816429
299.823238
299.823753
299.820311
299.819599
472.368898
471.092721
469.783007
468.438803
467.05899
465.642151
464.186941
462.691608
461.154118
459.572111
457.942865
456.263258
454.529728
452.738235
450.884231
448.962628
446.967758
444.893363
442.73258
440.477939
438.121373
435.654246
433.067399
430.351227
427.495771
424.49086
421.326287
417.991926
414.478027
410.775578
406.876693
402.775086
398.466625
393.949969
389.227298
384.305112
379.195089
373.914968
368.489393
362.950641
357.339138
351.703615
346.100769
340.594285
335.253076
330.148438
325.350365
320.922862
316.919331
313.379185
310.324329
307.756804
305.658879
303.995157
302.716146
301.763435
301.077084
300.600502
300.281396
300.076453
299.95273
299.878224
299.842918
299.827437
299.819107
299.814176
299.81213
299.81112
299.811116
299.812237
299.813501
299.814941
299.815295
299.815947
299.814932
299.816835
299.822786
299.827918
299.828755
299.826565
472.289755
470.853504
469.379398
467.866255
466.312669
464.717029
463.07757
461.392123
459.658173
457.872819
456.03274
454.134154
452.172786
450.143837
448.04196
445.861242
443.595194
441.23675
438.778279
436.211617
433.528106
430.718673
427.773919
424.684256
421.440046
418.031751
414.450254
410.687173
406.735255
402.588841
398.244417
393.701239
388.962055
384.033877
378.928812
373.664889
368.266835
362.766714
357.204327
351.627246
346.090347
340.65471
335.385773
330.350741
325.615288
321.239579
317.274074
313.755249
310.702409
308.116755
305.981043
304.267459
302.934317
301.929825
301.197484
300.682367
300.334745
300.111644
299.975817
299.896243
299.851351
299.839253
299.83146
299.824678
299.819271
299.814946
299.811482
299.810987
299.811339
299.813189
299.814903
299.816531
299.818885
299.822247
299.823972
299.822326
299.822419
299.826699
299.832947
299.832857
472.201947
470.588103
468.93164
467.231158
465.485018
463.69136
461.84798
459.952295
458.001318
455.991624
453.919314
451.779978
449.568678
447.27992
444.90765
442.445246
439.885537
437.220826
434.442935
431.543277
428.512951
425.342869
422.023864
418.546914
414.903419
411.08551
407.086441
402.901044
398.526265
393.961782
389.210692
384.280257
379.182688
373.935914
368.564285
363.099132
357.579074
352.049972
346.564397
341.180507
335.960261
330.96694
326.262052
321.901886
317.934007
314.394129
311.303467
308.667013
306.472888
304.694378
303.291079
302.215357
301.417209
300.846449
300.454253
300.194947
300.0311
299.933655
299.880834
299.855449
299.844647
299.838156
299.832106
299.825833
299.822124
299.819319
299.817489
299.815326
299.814477
299.815037
299.816035
299.817068
299.819038
299.821213
299.827302
299.82814
299.824925
299.824156
299.829625
299.833654
472.106804
470.300543
468.446539
466.543195
464.588626
462.580616
460.516578
458.393509
456.207957
453.955982
451.633125
449.234389
446.754223
444.186518
441.524615
438.761331
435.889005
432.89956
429.784597
426.535518
423.143636
419.600413
415.897715
412.028119
407.985292
403.764435
399.362801
394.780291
390.020107
385.089463
380.000321
374.770104
369.422343
363.987174
358.501597
353.009386
347.560563
342.210313
337.01731
332.041433
327.340959
322.969409
318.972293
315.384265
312.226824
309.507534
307.219367
305.341168
303.839696
302.672283
301.790646
301.144206
300.683117
300.364674
300.153107
300.016425
299.931154
299.880288
299.853631
299.840658
299.833638
299.829187
299.826157
299.824273
299.822925
299.821958
299.821938
299.822165
299.823066
299.824108
299.824848
299.825213
299.824142
299.823482
299.826835
299.830984
299.827983
299.82358
299.823876
299.830442
472.005353
469.993918
467.929272
465.809593
463.632722
461.396124
459.096845
456.731468
454.296087
451.786269
449.197042
446.522882
443.757719
440.894956
437.927509
434.847865
431.648173
428.320354
424.856227
421.247732
417.487172
413.567509
409.482732
405.22828
400.801539
396.202407
391.433912
386.502887
381.420651
376.203683
370.87422
365.460713
359.998073
354.527592
349.096466
343.756819
338.564185
333.575443
328.846291
324.428404
320.3665
316.695612
313.438731
310.605676
308.192329
306.181733
304.546604
303.249566
302.247331
301.494285
300.944976
300.556278
300.289081
300.110011
299.99235
299.917721
299.87102
299.842634
299.828726
299.822172
299.820754
299.820043
299.819537
299.819312
299.819398
299.81957
299.820045
299.821067
299.822225
299.823832
299.826244
299.828884
299.833751
299.83376
299.831516
299.834267
299.835474
299.829004
299.824908
299.827528
471.89849
469.670939
467.384425
465.0369
462.625934
460.148679
457.601821
454.981557
452.283557
449.502957
446.634348
443.671795
440.608864
437.438673
434.153977
430.747265
427.210892
423.537278
419.719139
415.749771
411.623393
407.335551
402.883584
398.267159
393.488852
388.554777
383.475231
378.265323
372.945538
367.542179
362.087614
356.620244
351.184114
345.828098
340.604601
335.567768
330.771204
326.265398
322.095057
318.296572
314.895853
311.906777
309.330084
307.154379
305.355074
303.900661
302.754408
301.874671
301.217888
300.742064
300.408622
300.183363
300.037565
299.947182
299.893744
299.863576
299.848133
299.840175
299.831246
299.820969
299.817422
299.815838
299.815493
299.815381
299.816135
299.817107
299.817827
299.818758
299.820461
299.823134
299.825044
299.827408
299.833083
299.836688
299.836185
299.834282
299.838353
299.841504
299.842286
299.842963
471.7873
469.334885
466.817535
464.232978
461.578525
458.851029
456.046853
453.161845
450.191326
447.130087
443.972414
440.712129
437.342654
433.857106
430.248412
426.509495
422.633482
418.61397
414.445345
410.123162
405.644577
401.008844
396.217866
391.276775
386.194549
380.984597
375.665313
370.260506
364.799678
359.31805
353.856285
348.459836
343.17787
338.061774
333.163259
328.532166
324.213795
320.246475
316.659488
313.471547
310.689865
308.309867
306.315194
304.679772
303.369409
302.343513
301.56152
300.983075
300.568973
300.283014
300.093953
299.975314
299.905134
299.866489
299.846906
299.837985
299.835152
299.834839
299.833693
299.830445
299.822752
299.816661
299.814831
299.815137
299.816859
299.81797
299.818244
299.819075
299.82012
299.823357
299.825012
299.827167
299.830799
299.835856
299.836533
299.834108
299.835329
299.83975
299.842368
299.844853
472.575539
471.717148
470.83607
469.931659
469.003248
468.05015
467.071654
466.067024
465.035495
463.976267
462.888504
461.771326
460.6238
459.444941
458.233698
456.988948
455.709489
454.394029
453.041131
451.649116
450.216233
448.740742
447.220861
445.654413
444.03903
442.372135
440.650917
438.872307
437.032952
435.129199
433.157072
431.112248
428.990043
426.785397
424.492862
422.106607
419.620426
417.027769
414.321798
411.495471
408.541692
405.453514
402.224439
398.848827
395.322453
391.643234
387.812162
383.834453
379.720917
375.489492
371.166836
366.789757
362.406154
358.075043
353.865165
349.85258
346.119812
342.746443
339.800861
337.330848
335.355013
333.857315
332.786975
332.06509
331.597127
331.28815
331.056395
330.841437
330.605791
330.332254
330.020129
329.681305
329.332425
328.987252
328.65342
328.32895
328.008053
327.683702
327.456324
327.335199
472.564713
471.684401
470.780767
469.853106
468.900689
467.922761
466.918543
465.887225
464.827965
463.739886
462.622067
461.473541
460.293286
459.080217
457.833181
456.550945
455.232175
453.875337
452.478866
451.041207
449.560574
448.034997
446.46234
444.840279
443.16629
441.437628
439.651313
437.804107
435.8925
433.912691
431.860573
429.731719
427.521372
425.224438
422.835494
420.34879
417.758281
415.057677
412.240522
409.300315
406.230694
403.025691
399.680087
396.189897
392.553003
388.769973
384.845066
380.787448
376.612558
372.343549
368.012617
363.661963
359.344023
355.12051
351.062604
347.248657
343.757041
340.65876
338.008839
335.837809
334.145174
332.896971
332.029022
331.456174
331.085682
330.831184
330.623509
330.415755
330.181806
329.910086
329.597686
329.25221
328.894069
328.553117
328.255676
328.0414
327.858274
327.728584
327.671867
328.111506
472.552042
471.646085
470.71608
469.761269
468.780863
467.774046
466.739973
465.677767
464.586518
463.465276
462.313047
461.128786
459.911394
458.659703
457.372474
456.048358
454.685876
453.283585
451.839879
450.352995
448.821029
447.24193
445.61348
443.933285
442.198756
440.407102
438.555308
436.640128
434.658067
432.605375
430.478028
428.271727
425.981893
423.603663
421.131902
418.56122
415.886
413.100469
410.198788
407.175189
404.024178
400.740823
397.321139
393.762614
390.06489
386.230617
382.266497
378.184487
374.003099
369.748676
365.456427
361.170948
356.945831
352.844799
348.940482
345.308592
342.021944
339.142925
336.715376
334.757395
333.25679
332.170648
331.430057
330.949701
330.640579
330.422636
330.234191
330.03658
329.813669
329.56487
329.292494
329.002874
328.711334
328.45019
328.277821
328.211809
328.277179
328.63431
329.288479
330.3319
472.537609
471.602444
470.642421
469.656726
468.644518
467.604921
466.537032
465.439911
464.312585
463.154042
461.963222
460.739018
459.480265
458.185732
456.854101
455.483974
454.073939
452.622431
451.127773
449.588173
448.001715
446.366344
444.679862
442.939913
441.143976
439.289358
437.373177
435.392362
433.34364
431.223527
429.028325
426.754112
424.396746
421.951859
419.41487
416.780999
414.0453
411.202718
408.248187
405.176763
401.983828
398.665375
395.218406
391.641458
387.935284
384.103707
380.154635
376.101209
371.962998
367.767112
363.549009
359.352716
355.231341
351.249407
347.477493
343.988015
340.84927
338.118227
335.833021
334.005449
332.616999
331.621359
330.949944
330.521624
330.253106
330.069387
329.912208
329.743837
329.547243
329.325246
329.093938
328.868036
328.66605
328.49599
328.468754
328.644467
329.128401
329.98147
331.195502
332.807082
472.521311
471.55317
470.559264
469.538733
468.490679
467.414175
466.308259
465.171937
464.004179
462.803918
461.570043
460.301395
458.996764
457.654875
456.274395
454.853958
453.392085
451.887211
450.337684
448.741755
447.097574
445.403183
443.656513
441.855377
439.997465
438.080342
436.101443
434.058065
431.947368
429.766363
427.511913
425.180721
422.769328
420.274106
417.691263
415.016844
412.246755
409.376802
406.402768
403.320531
400.126244
396.816604
393.389217
389.843102
386.179338
382.401873
378.518491
374.541888
370.490769
366.390847
362.275534
358.186058
354.174523
350.302646
346.637955
343.249891
340.204033
337.553613
335.323818
333.526273
332.160301
331.184696
330.537954
330.13609
329.896757
329.748016
329.633472
329.515204
329.374259
329.20905
329.034042
328.871147
328.763617
328.754176
328.876953
329.219864
329.888904
330.946962
332.411258
334.279822
472.502856
471.497379
470.465122
469.405174
468.316588
467.198384
466.049546
464.86903
463.655757
462.408614
461.12645
459.808072
458.452249
457.057715
455.623157
454.147189
452.628373
451.065207
449.456129
447.799513
446.093669
444.336843
442.527215
440.662902
438.741961
436.762383
434.722101
432.618984
430.450837
428.215393
425.91031
423.533155
421.081398
418.55239
415.943351
413.251362
410.473361
407.606152
404.646458
401.590996
398.436626
395.180568
391.820727
388.356139
384.787556
381.118181
377.354544
373.507496
369.593232
365.634225
361.659778
357.706384
353.826982
350.073625
346.507911
343.193733
340.191665
337.553366
335.318889
333.506577
332.111282
331.109533
330.362253
329.894437
329.627376
329.481848
329.394914
329.323461
329.243187
329.146433
329.041423
328.95752
328.942018
329.055751
329.359005
329.924743
330.817941
332.133709
333.849795
335.792389
472.481805
471.433742
470.357749
469.252865
468.118093
466.9524
465.754723
464.523969
463.259017
461.958717
460.621897
459.247365
457.8339
456.380239
454.885092
453.347137
451.765023
450.137371
448.462781
446.739827
444.967072
443.143066
441.266357
439.335496
437.349043
435.305575
433.203686
431.041994
428.819134
426.533752
424.184493
421.769981
419.288799
416.739451
414.120328
411.429674
408.665548
405.825804
402.908089
399.909881
396.828575
393.661641
390.406885
387.062813
383.629126
380.107344
376.50155
372.819253
369.072321
365.291535
361.488711
357.693993
353.957072
350.320399
346.840531
343.576885
340.587929
337.926455
335.633903
333.73398
332.22857
331.096696
330.328391
329.804994
329.448805
329.264889
329.184243
329.149393
329.129139
329.105731
329.085208
329.096164
329.172092
329.372511
329.743823
330.273675
331.135547
332.294198
333.754859
335.709076
472.457664
471.360768
470.234632
469.078244
467.890555
466.670485
465.416923
464.128734
462.804765
461.443857
460.044831
458.606491
457.12763
455.607032
454.043478
452.435751
450.782637
449.08294
447.335482
445.539119
443.692751
441.795332
439.845886
437.843515
435.787417
433.676889
431.51134
429.290294
427.013382
424.680337
422.290969
419.845139
417.342716
414.783531
412.167313
409.493619
406.761766
403.970761
401.119249
398.205484
395.227346
392.182417
389.06815
385.882137
382.622518
379.288539
375.881265
372.404445
368.881688
365.315013
361.719427
358.118518
354.544533
351.040067
347.654299
344.440879
341.45481
338.748319
336.365959
334.339474
332.68345
331.392989
330.442056
329.796711
329.403805
329.176894
329.029016
328.983136
328.994685
329.031782
329.077855
329.131595
329.243568
329.437226
329.755862
330.353663
331.283658
332.407394
333.849426
335.530274
472.430007
471.277173
470.093604
468.878237
467.629973
466.347683
465.030214
463.676405
462.285084
460.855069
459.385178
457.874235
456.321076
454.724559
453.083565
451.397016
449.663879
447.883186
446.054041
444.175643
442.247298
440.268443
438.23866
436.157696
434.02548
431.842137
429.607996
427.323592
424.989664
422.607144
420.17712
417.700802
415.17946
412.61436
410.006672
407.357379
404.667167
401.93632
399.164614
396.351241
393.494761
390.593105
387.643656
384.643417
381.589272
378.478331
375.308282
372.084935
368.816955
365.51413
362.176002
358.819031
355.465332
352.14699
348.904224
345.782474
342.830419
340.097042
337.62789
335.460885
333.622234
332.123137
330.957858
330.103912
329.522663
329.17098
329.007974
328.895442
328.869723
328.908112
328.998474
329.118536
329.268133
329.466262
329.782943
330.301064
331.058185
332.067501
333.328271
334.774433
472.3986
471.182245
469.933464
468.651143
467.334135
465.981268
464.591356
463.163203
461.695613
460.187398
458.637389
457.044446
455.407468
453.725401
451.997259
450.222129
448.399196
446.527758
444.607246
442.63725
440.617539
438.548089
436.429104
434.261042
432.044633
429.780899
427.471161
425.117043
422.720464
420.283617
417.808936
415.299045
412.75668
410.184601
407.585483
404.961795
402.315657
399.6487
396.961917
394.255538
391.52892
388.780495
386.007767
383.207416
380.375514
377.507917
374.600899
371.646635
368.661254
365.650362
362.611807
359.546052
356.467212
353.39474
350.357873
347.392615
344.539171
341.840105
339.337793
337.071333
335.073188
333.365976
331.959856
330.850981
330.021627
329.442886
329.074332
328.92726
328.83945
328.821768
328.864218
328.981064
329.149567
329.372777
329.667468
330.086241
330.687458
331.505197
332.583847
333.738984
472.363544
471.07629
469.754731
468.397702
467.004005
465.572426
464.10174
462.590722
461.038162
459.442874
457.803712
456.119581
454.389454
452.612387
450.787536
448.914181
446.991745
445.01982
442.998193
440.926875
438.806132
436.636512
434.418878
432.154432
429.844742
427.491759
425.097828
422.66569
420.198468
417.699644
415.173011
412.622614
410.052666
407.467433
404.871106
402.267658
399.660673
397.053176
394.447459
391.844912
389.245883
386.649583
384.054037
381.456133
378.851758
376.236073
373.603921
370.950365
368.251789
365.540172
362.819082
360.081945
357.323944
354.556186
351.794718
349.062855
346.391047
343.813144
341.364857
339.081711
336.996622
335.137325
333.523924
332.166946
331.066218
330.210909
329.579522
329.135384
328.896517
328.813524
328.811492
328.846993
328.942513
329.10409
329.342732
329.681664
330.153246
330.776684
331.66774
332.469411
472.325416
470.961057
469.560351
468.122077
466.644992
465.127837
463.56935
461.968285
460.32342
458.633578
456.89764
455.114565
453.283409
451.403346
449.473689
447.49392
445.463715
443.382975
441.251856
439.070809
436.840609
434.562392
432.23769
429.86846
427.457112
425.006527
422.520069
420.001583
417.455378
414.886195
412.299151
409.699669
407.093379
404.485995
401.883165
399.290309
396.712428
394.153913
391.618336
389.108262
386.625071
384.168831
381.738222
379.330529
376.941737
374.56674
372.199704
369.834597
367.465916
365.067644
362.649723
360.238823
357.827858
355.402948
352.971965
350.547216
348.144905
345.788312
343.50433
341.321267
339.267335
337.368913
335.648717
334.124094
332.805646
331.696365
330.79123
330.077182
329.53863
329.152183
328.930319
328.891871
328.909764
328.963373
329.061069
329.232482
329.511166
329.885351
330.528579
330.928531
472.285371
470.840031
469.356201
467.832604
466.267946
464.660927
463.010252
461.314654
459.572904
457.783834
455.946359
454.059495
452.122384
450.134323
448.094786
446.003461
443.860281
441.665458
439.419523
437.123363
434.778262
432.385942
429.948596
427.468924
424.950159
422.396086
419.811049
417.199946
414.568209
411.921762
409.266956
406.610489
403.959286
401.320375
398.700714
396.10702
393.545564
391.021967
388.540979
386.106278
383.720266
381.383914
379.096645
376.856296
374.659157
372.500096
370.372782
368.269983
366.183862
364.106152
362.025024
359.920787
357.829972
355.750389
353.673285
351.593613
349.520903
347.468029
345.450397
343.486235
341.596776
339.80301
338.124598
336.578723
335.179009
333.934638
332.849736
331.92311
331.148775
330.516614
330.009181
329.586965
329.301742
329.146969
329.148922
329.244637
329.380826
329.551392
329.879232
330.075405
472.245173
470.718542
469.151267
467.542017
465.889447
464.192216
462.449001
460.658513
458.81952
456.930868
454.991505
453.000507
450.957105
448.860718
446.710984
444.507794
442.251336
439.942129
437.58107
435.169473
432.709117
430.202284
427.6518
425.061067
422.434095
419.775515
417.090589
414.385192
411.665794
408.939398
406.213476
403.495864
400.794635
398.11795
395.473879
392.870205
390.314217
387.81249
385.370671
382.993278
380.683514
378.44311
376.272192
374.169208
372.130937
370.152565
368.227879
366.349594
364.509806