/*--------------------------------*- C++ -*----------------------------------*\
  =========                 |
  \\      /  F ield         | OpenFOAM: The Open Source CFD Toolbox
   \\    /   O peration     | Website:  https://openfoam.org
    \\  /    A nd           | Version:  8
     \\/     M anipulation  |
\*---------------------------------------------------------------------------*/
FoamFile
{
    version     2.0;
    format      ascii;
    class       volVectorField;
    location    "0.048";
    object      U;
}
// * * * * * * * * * * * * * * * * * * * * * * * * * * * * * * * * * * * * * //

dimensions      [0 1 -1 0 0 0 0];

internalField   nonuniform List<vector> 
42400
(
(-0.0161836679 0.015479231 -7.88184846e-27)
(-0.0486573008 0.0456686 2.52327417e-26)
(-0.0817569485 0.075421561 2.46644443e-26)
(-0.115393476 0.104606508 0)
(-0.149474729 0.133138305 0)
(-0.183936709 0.160930276 -2.69380916e-28)
(-0.218727158 0.187895915 0)
(-0.253795562 0.213951107 2.95273882e-28)
(-0.289090746 0.239015289 0)
(-0.324560214 0.263012564 3.24464122e-28)
(-0.360148814 0.285872047 3.40451224e-28)
(-0.395797527 0.307527947 -3.57463525e-28)
(-0.431442996 0.327919902 1.01454094e-26)
(-0.467017775 0.34699367 1.54119472e-26)
(-0.502451001 0.364702027 -4.15519033e-28)
(-0.537669224 0.381005707 0)
(-0.572597186 0.395874265 0)
(-0.607158395 0.409286771 0)
(-0.641275463 0.421232332 0)
(-0.674870144 0.431710412 0)
(-0.707863122 0.440731002 0)
(-0.740173536 0.448314643 -1.21571296e-27)
(-0.771718282 0.454492349 8.23521547e-26)
(-0.80241109 0.45930542 1.86619901e-25)
(-0.832161345 0.462805149 1.05054471e-25)
(-0.860872638 0.46505239 -1.54919155e-27)
(-0.888440951 0.466116978 -1.65228268e-27)
(-0.914752366 0.466077011 3.53084449e-27)
(-0.93968015 0.465018027 0)
(-0.963081396 0.463032026 0)
(-0.984794008 0.460215715 -1.91492922e-25)
(-1.00463222 0.456666283 -2.10420618e-25)
(-1.02237526 0.452475159 5.09177947e-27)
(-1.03777021 0.447726877 2.52494867e-25)
(-1.05058368 0.442526746 2.70732368e-25)
(-1.06061547 0.437010539 0)
(-1.06727563 0.431719789 0)
(-1.07027006 0.425927736 0)
(-1.06885303 0.419869934 0)
(-1.06287708 0.413244448 4.44507964e-25)
(-1.05125256 0.407449343 4.30024828e-25)
(-1.03280231 0.401836195 4.64400491e-25)
(-1.00637533 0.395893534 1.12924471e-24)
(-0.969604378 0.38996483 -3.11413541e-26)
(-0.92236473 0.383108283 -7.67090465e-25)
(-0.862567275 0.376110369 -9.28150247e-25)
(-0.788449467 0.368918169 4.12552526e-26)
(-0.698094147 0.361378163 1.0305672e-24)
(-0.589529568 0.353485403 4.82293883e-26)
(-0.460885335 0.344994444 1.3321907e-24)
(-0.308032236 0.336114209 3.18587672e-33)
(-0.13016626 0.326884726 -3.45347146e-24)
(0.082575085 0.318849332 -2.0831326e-24)
(0.322105227 0.311946224 1.65557385e-25)
(0.612662737 0.302656179 0)
(0.950906415 0.291453328 0)
(1.34252737 0.280316152 0)
(1.7949748 0.269670338 -2.50786768e-25)
(2.31409744 0.259597549 -2.70138945e-25)
(2.90544177 0.250328379 0)
(3.57457362 0.241960734 8.60830922e-24)
(4.32596844 0.234626902 9.61238202e-24)
(5.16271687 0.229081499 -9.92475819e-24)
(6.08675452 0.226621353 -1.03636434e-23)
(7.09755911 0.22852663 0)
(8.19039417 0.239966807 0)
(9.34766532 0.25832002 -8.1690084e-24)
(10.6186926 0.227042904 -8.37272806e-24)
(11.9513837 0.229550557 -8.84805296e-26)
(13.0598852 0.512962993 0)
(14.525564 0.378878982 0)
(16.3913418 -0.357937222 4.3193112e-26)
(17.1562859 0.496441085 4.51059061e-25)
(17.8030774 1.69711514 0)
(19.9314647 0.169328519 3.13780011e-25)
(21.8096173 -1.45199402 5.73973287e-24)
(22.1209151 0.0397230883 3.06329358e-24)
(22.2336449 1.76940559 -2.99232779e-24)
(23.2091512 1.48911187 -8.77780269e-24)
(23.6582659 0.267423701 -1.41743993e-23)
(-0.0200004304 0.0177101046 0)
(-0.0595731566 0.0520857279 1.99039814e-26)
(-0.0994166581 0.085912924 1.88669543e-26)
(-0.139523101 0.119151699 0)
(-0.179857415 0.151773741 0)
(-0.220382627 0.183728138 1.12489029e-26)
(-0.26104977 0.214944122 9.21508456e-27)
(-0.301793194 0.245336415 6.44520379e-28)
(-0.342533197 0.274811031 0)
(-0.38318016 0.303270711 7.10177399e-28)
(-0.423637183 0.330618843 7.45760932e-28)
(-0.463801832 0.356762288 8.41646881e-27)
(-0.503567656 0.381613647 2.67057512e-26)
(-0.542825588 0.40509314 1.78332032e-26)
(-0.581465121 0.42713011 -2.40167771e-26)
(-0.619375135 0.447664134 -2.68445633e-26)
(-0.656444345 0.466645771 0)
(-0.692561348 0.484037 2.14027305e-27)
(-0.727614303 0.499811392 0)
(-0.761490291 0.513954091 0)
(-0.794074391 0.526461651 0)
(-0.825248521 0.537341798 6.89828526e-26)
(-0.85489007 0.546613153 1.57881048e-25)
(-0.882870322 0.554304975 8.96095194e-26)
(-0.909052609 0.560456923 0)
(-0.933290097 0.565118769 -6.48241729e-27)
(-0.955423106 0.568349655 -3.38567912e-27)
(-0.975275503 0.570216353 7.15485958e-27)
(-0.992648967 0.570791084 1.45284801e-25)
(-1.00731441 0.570151084 1.58579148e-25)
(-1.01903202 0.568385718 -8.61629399e-27)
(-1.0275751 0.565573378 -8.97677471e-27)
(-1.03263457 0.561858078 2.3349992e-25)
(-1.03383947 0.557531084 2.62049108e-25)
(-1.03093026 0.552267707 -3.15415214e-25)
(-1.02322509 0.546505404 -3.263758e-25)
(-1.01060244 0.539926175 0)
(-0.992057198 0.533439726 1.37200324e-26)
(-0.966114141 0.526528371 0)
(-0.931432519 0.519064598 3.24268456e-26)
(-0.887004515 0.5108536 4.72940375e-25)
(-0.831888979 0.502077491 4.92690563e-25)
(-0.76450597 0.493036558 3.75354451e-26)
(-0.683194905 0.483691806 -4.02472338e-26)
(-0.586063002 0.4738577 8.77345036e-26)
(-0.470870981 0.463297821 -4.56104156e-26)
(-0.33500131 0.452196618 4.96294874e-26)
(-0.178800224 0.440856198 9.84079182e-25)
(0.00525597427 0.430718957 1.15119249e-24)
(0.212923249 0.421913777 0)
(0.463140101 0.410809167 -7.204506e-26)
(0.755625411 0.397644725 1.50517882e-25)
(1.09356761 0.384029823 1.56021393e-24)
(1.48366065 0.370803122 2.12208143e-24)
(1.93275189 0.357818914 1.98623734e-25)
(2.44599505 0.345026053 5.04748914e-24)
(3.02897379 0.332615869 5.66738147e-24)
(3.68694502 0.320841486 -2.18053136e-25)
(4.42445746 0.310037577 -2.19519838e-25)
(5.24485891 0.300899359 7.80520186e-24)
(6.15055913 0.294869953 8.58501814e-24)
(7.14185376 0.293474297 1.84181436e-25)
(8.21522399 0.297865434 -1.68718155e-25)
(9.36397067 0.309136965 0)
(10.5770399 0.326563868 -8.58535077e-24)
(11.8416289 0.356160208 -1.56941288e-23)
(13.1068286 0.422191204 -7.14812938e-24)
(14.430756 0.441134445 0)
(15.8985727 0.314313428 3.86554014e-26)
(17.0351214 0.53304953 3.93727045e-25)
(17.9759398 1.03905521 5.98258084e-24)
(19.6673746 0.404714396 1.00115413e-23)
(21.0987752 -0.295672166 -7.34635216e-24)
(21.4131263 1.04332248 -4.36553797e-24)
(21.8473488 1.72120378 3.32421113e-26)
(23.1616196 0.589668315 1.34833263e-23)
(23.7670244 -0.138296908 1.9880508e-23)
(23.9015598 0.283744051 -4.64215207e-24)
(23.8949553 0.805758171 -1.2128267e-23)
(23.7698476 0.985468299 -2.68778356e-23)
(-0.0232093539 0.0190009636 2.29696894e-27)
(-0.0687386014 0.0557911303 3.40768877e-28)
(-0.11422988 0.0919818937 -3.60539422e-28)
(-0.15975317 0.12760788 3.77244468e-28)
(-0.205316792 0.162682032 0)
(-0.250902701 0.197180533 -7.39378772e-27)
(-0.296472996 0.231050664 8.20914626e-34)
(-0.341941384 0.26420875 2.12354037e-27)
(-0.387196087 0.296550934 -8.84710109e-28)
(-0.43210698 0.327963497 -8.40149034e-27)
(-0.476531399 0.358329619 -6.75828186e-27)
(-0.520318626 0.387534259 1.13550935e-27)
(-0.563313352 0.415467918 1.19428597e-27)
(-0.605358248 0.442029495 -2.08439829e-26)
(-0.646295667 0.46712831 -2.59178627e-26)
(-0.685968542 0.490685404 4.17674249e-27)
(-0.72422053 0.512634232 3.42910788e-26)
(-0.760895569 0.532920931 8.69585569e-26)
(-0.795836922 0.551504272 5.01578791e-26)
(-0.828885856 0.568355423 3.42845301e-27)
(-0.859879988 0.583457641 -3.60588786e-27)
(-0.888651227 0.596805969 -3.79197593e-27)
(-0.915023212 0.608406899 0)
(-0.938808419 0.618277947 8.33030579e-27)
(-0.959804484 0.626446957 -9.94171203e-26)
(-0.977790036 0.632950361 6.69462228e-29)
(-0.992526237 0.637830982 1.18719523e-25)
(-1.00376325 0.641132925 1.28528955e-25)
(-1.01123979 0.642898289 1.43225355e-25)
(-1.01456883 0.643283913 -1.54043412e-25)
(-1.01362068 0.642217637 -1.15657052e-26)
(-1.00791443 0.639952574 4.03521852e-25)
(-0.997010964 0.636715582 2.46676878e-25)
(-0.980744051 0.632347063 0)
(-0.95782322 0.627359079 0)
(-0.927086688 0.621271925 -1.55247807e-26)
(-0.887361885 0.614051815 0)
(-0.837504207 0.605835641 3.48389408e-26)
(-0.776978584 0.596710068 3.37815267e-25)
(-0.704259227 0.587021519 7.64179355e-26)
(-0.617677556 0.576744428 -3.55121197e-25)
(-0.515296057 0.565827011 0)
(-0.395451674 0.554038953 0)
(-0.255678989 0.541440414 5.57096328e-25)
(-0.0954488108 0.528664876 7.50876168e-25)
(0.092112486 0.517513252 5.37163657e-26)
(0.299143899 0.507862706 0)
(0.552727931 0.49540731 0)
(0.845632404 0.480627884 9.66735381e-25)
(1.18291501 0.466111015 1.1188062e-24)
(1.57106982 0.452239263 -7.24053525e-26)
(2.01503266 0.438824173 0)
(2.52029056 0.425976367 -1.3991858e-24)
(3.09246995 0.413935667 -1.79504028e-24)
(3.73682212 0.402743038 -4.02840475e-24)
(4.45804677 0.392868828 -4.55854704e-24)
(5.26010599 0.38552568 -5.47021951e-24)
(6.14536098 0.381965544 -1.9684715e-32)
(7.11380233 0.383068713 2.21968363e-32)
(8.16270882 0.389486082 -1.5783274e-23)
(9.28655745 0.401510321 -8.22587388e-24)
(10.4772922 0.420089762 8.2484528e-24)
(11.7209872 0.446208983 8.27943073e-24)
(13.0048087 0.482249279 0)
(14.3053517 0.526356357 8.36075272e-24)
(15.6177046 0.576176007 1.60370228e-23)
(16.8656653 0.664290884 7.58953143e-24)
(18.0326728 0.807250291 0)
(19.3095408 0.753435768 -4.52185696e-26)
(20.5444088 0.590804822 8.69670827e-24)
(21.2297586 1.04503875 7.86020954e-24)
(21.9112094 1.4497905 0)
(23.0845666 0.758845828 0)
(23.7900729 0.362971272 1.09399701e-24)
(23.9153549 0.994076799 -1.0144004e-24)
(23.7839938 1.40790343 1.49472011e-23)
(23.8145529 1.20988165 1.55630688e-23)
(23.9050418 0.856504223 0)
(24.0035395 0.66156206 -2.24479987e-24)
(23.9753128 0.798377663 6.42856807e-24)
(-0.0258829676 0.0195568575 2.70112347e-28)
(-0.0763719351 0.0573422297 4.25035013e-28)
(-0.126565436 0.0944826941 5.09713371e-27)
(-0.176594931 0.131067248 -3.14016381e-27)
(-0.226517445 0.167149931 -3.13641268e-27)
(-0.27634093 0.202731286 0)
(-0.325993782 0.237758511 -1.83123002e-27)
(-0.375377027 0.272149312 -4.79382076e-29)
(-0.424350443 0.305799098 4.25889159e-27)
(-0.472737864 0.338585916 7.61364866e-27)
(-0.520346561 0.37037948 1.40264287e-26)
(-0.566972645 0.401049741 3.46801958e-34)
(-0.612406038 0.430472003 1.51025481e-27)
(-0.656434276 0.458530475 2.03425433e-33)
(-0.698844778 0.485120678 -1.67347721e-27)
(-0.739425716 0.510150873 3.91961828e-26)
(-0.777965757 0.533542722 -4.55080893e-26)
(-0.814252837 0.555231495 -3.86489137e-27)
(-0.848072192 0.575166056 5.54990248e-26)
(-0.879204068 0.593308715 4.26221151e-27)
(-0.907421217 0.609634521 -8.99674102e-27)
(-0.932482298 0.624126275 -7.91293793e-26)
(-0.954129555 0.636771331 -8.75885405e-26)
(-0.97209166 0.647562814 5.17987963e-27)
(-0.986083714 0.656492752 0)
(-0.995808672 0.663604333 5.65658419e-27)
(-1.00098545 0.668968941 0)
(-1.00129515 0.672693068 1.53536586e-25)
(-0.996378419 0.674961517 3.16296505e-25)
(-0.985949485 0.67579012 1.71181274e-25)
(-0.969092995 0.675312675 -1.57082974e-25)
(-0.944816761 0.673296882 -1.78176505e-25)
(-0.912284806 0.669692092 3.17896623e-26)
(-0.870299574 0.664598405 1.68523324e-26)
(-0.818080508 0.658157427 -2.42150171e-25)
(-0.75487152 0.650608197 -2.8104638e-25)
(-0.67928747 0.642117825 0)
(-0.589736192 0.632705873 3.15470411e-25)
(-0.484371838 0.62234441 2.98572555e-25)
(-0.36152179 0.610730195 4.20346976e-26)
(-0.218499271 0.597807094 4.56830733e-26)
(-0.0533644923 0.585188587 0)
(0.131844088 0.575036881 0)
(0.34309229 0.56496972 0)
(0.598517504 0.551641464 5.56152001e-26)
(0.891154612 0.537018211 7.26809456e-25)
(1.22674803 0.523449696 7.4862112e-25)
(1.61137684 0.510937548 0)
(2.04937378 0.499124646 0)
(2.5461213 0.48824231 1.0207601e-24)
(3.10716815 0.478510326 1.12444043e-24)
(3.73772435 0.470412438 1.42938803e-24)
(4.44268375 0.464874269 1.66594906e-24)
(5.22585545 0.462893909 -1.44135751e-25)
(6.08943231 0.465267715 -2.34149201e-24)
(7.03353922 0.47262967 -2.43135066e-24)
(8.0560181 0.485549513 -5.90681571e-24)
(9.1523457 0.504785568 -6.74399275e-24)
(10.3153954 0.530725945 0)
(11.5343455 0.564141545 1.51243114e-26)
(12.7944242 0.604764633 -7.59486072e-24)
(14.0813258 0.652937111 -1.54799627e-23)
(15.3716461 0.707286377 8.49611245e-26)
(16.6506567 0.771952109 1.17365886e-25)
(17.8787999 0.841532044 -8.49774717e-24)
(19.0657787 0.916682664 8.16902332e-24)
(20.1521316 0.982465413 7.86845904e-24)
(21.1015586 1.12358421 -4.91638837e-25)
(21.9281704 1.26613752 -6.03122372e-24)
(22.8197791 1.15150825 -1.01010431e-23)
(23.499096 1.06486367 6.42554557e-26)
(23.7631409 1.33105134 -1.35495929e-23)
(23.8390024 1.49558535 -1.15616656e-23)
(23.8842386 1.31392038 0)
(23.9055697 1.16644061 -9.92999561e-24)
(23.9437419 1.14645886 -2.69491538e-23)
(23.9207374 1.24455408 5.30009065e-25)
(23.9156587 1.20838593 1.04326491e-23)
(23.9620499 1.17665125 5.03776945e-24)
(24.0114778 0.952485574 9.62472044e-24)
(-0.0282838058 0.0196806465 1.85073131e-27)
(-0.0832200251 0.057594621 0)
(-0.137621799 0.0947808706 0)
(-0.191670871 0.131364634 1.00205444e-30)
(-0.245453868 0.167426143 0)
(-0.298984334 0.202986603 0)
(-0.35220112 0.238009553 0)
(-0.404958756 0.272407198 -2.75015431e-27)
(-0.457049366 0.306064168 0)
(-0.508269471 0.338852142 1.53174123e-27)
(-0.558369662 0.370640481 1.76542e-26)
(-0.60708456 0.401293754 2.12541409e-33)
(-0.654143025 0.430680373 -2.20011938e-26)
(-0.699269652 0.458678474 0)
(-0.742187186 0.485178655 -1.97525634e-27)
(-0.782617568 0.510085318 4.16580231e-27)
(-0.820281302 0.533316855 0)
(-0.85489127 0.554802801 5.57205086e-26)
(-0.886148647 0.574483038 4.86488149e-27)
(-0.913744859 0.592310889 -1.35685324e-25)
(-0.93738294 0.60821877 -8.15277905e-26)
(-0.956729725 0.622274677 5.54214972e-27)
(-0.971506465 0.634474249 0)
(-0.981389646 0.644877879 -1.14987503e-25)
(-0.986026974 0.653586625 -1.28083771e-25)
(-0.98484016 0.660496775 -1.32465391e-25)
(-0.977150621 0.665589228 -1.48682433e-25)
(-0.962319958 0.668860676 1.58264517e-25)
(-0.93958684 0.670309354 1.63230134e-25)
(-0.908001932 0.669969294 0)
(-0.866841809 0.668014117 -2.00047137e-25)
(-0.815379428 0.664640892 -2.14801387e-25)
(-0.752435614 0.659938003 1.79431649e-26)
(-0.676724944 0.653964141 -2.22886184e-25)
(-0.586695518 0.646781203 -2.537816e-25)
(-0.480557648 0.638423919 -4.06391921e-26)
(-0.35665607 0.628703765 2.1171672e-26)
(-0.212563921 0.617622681 -3.65241065e-25)
(-0.0462974577 0.606818875 -4.19496953e-25)
(0.139265365 0.597786593 3.61978131e-25)
(0.354750229 0.588144771 6.34697203e-25)
(0.609310182 0.576146755 4.53782407e-25)
(0.900732294 0.563768567 0)
(1.23425234 0.552568006 -5.7875876e-26)
(1.6147422 0.54246887 -5.7047359e-25)
(2.04645535 0.533422706 -6.07520321e-26)
(2.53464054 0.525854024 1.20630671e-32)
(3.08475009 0.520220031 -7.91285854e-25)
(3.70187087 0.517272105 0)
(4.39054566 0.517817744 -6.49725497e-26)
(5.15431162 0.522621157 -1.4604229e-24)
(5.99532931 0.532382148 -1.55758803e-24)
(6.91409595 0.547732821 -2.07156827e-25)
(7.90921639 0.569364322 -2.35325393e-24)
(8.97696748 0.597996066 -2.56020599e-24)
(10.1109199 0.634310569 -3.01074643e-24)
(11.301871 0.678320596 -9.67177128e-24)
(12.5370159 0.730144604 -6.75534491e-24)
(13.8003051 0.789556004 -7.00650415e-24)
(15.0732101 0.856256271 -7.39059784e-24)
(16.3344783 0.928200193 0)
(17.5658708 1.00313583 1.56166224e-25)
(18.7423937 1.0763624 -7.92896414e-24)
(19.8474202 1.15277334 -8.50754738e-24)
(20.8445285 1.22392764 -4.24075807e-26)
(21.740491 1.29440069 0)
(22.4964761 1.34596653 1.05681712e-23)
(23.1610984 1.37163621 1.14823779e-23)
(23.6101161 1.46257103 6.83250225e-25)
(23.8199072 1.52185826 -7.10272995e-25)
(23.8581844 1.47035739 -2.82067732e-26)
(23.8735557 1.48298424 -1.15267224e-24)
(23.8772978 1.48053913 -1.35280434e-23)
(23.8771879 1.5058486 -1.03107319e-23)
(23.875987 1.46865163 -4.85101083e-25)
(23.9418353 1.38103771 0)
(23.9995109 1.30371349 -9.1826412e-24)
(24.0044373 1.31277012 -8.95944102e-24)
(24.0023802 1.33111085 0)
(24.0184412 1.28182107 -1.23783714e-23)
(-0.0306776732 0.0196054685 -3.12275034e-27)
(-0.0900242652 0.0572214907 -4.24431111e-27)
(-0.148564307 0.093973848 -4.90779043e-27)
(-0.206513884 0.130008441 -6.41875549e-28)
(-0.263973477 0.165421513 1.97610509e-27)
(-0.32095022 0.200244019 -1.42871895e-27)
(-0.377354736 0.234447578 2.26706146e-27)
(-0.43301372 0.267957137 6.33249389e-28)
(-0.487696903 0.300657703 1.67734046e-27)
(-0.541091058 0.332410278 3.53368981e-27)
(-0.592864217 0.363080106 -6.53522539e-27)
(-0.642725269 0.392527033 -3.37958018e-26)
(-0.690316779 0.420632449 -2.82231496e-26)
(-0.735283422 0.447275178 -3.23090676e-26)
(-0.777266505 0.472350186 2.29861267e-27)
(-0.815903057 0.495770069 5.20162918e-26)
(-0.850843892 0.517426776 0)
(-0.881696526 0.537319343 0)
(-0.908119121 0.55540616 7.0762657e-26)
(-0.929713435 0.571651148 1.74380956e-25)
(-0.945983921 0.586027198 9.77630089e-26)
(-0.956488714 0.598478313 1.09672142e-25)
(-0.960661873 0.609024511 2.03968871e-33)
(-0.957889983 0.61765361 -1.37930079e-25)
(-0.947479009 0.624348462 1.35024592e-25)
(-0.928828121 0.629264418 3.09153465e-25)
(-0.901234686 0.632482785 1.59640161e-25)
(-0.86379303 0.634044931 -8.43671871e-27)
(-0.815496177 0.634005337 8.7994806e-27)
(-0.755223808 0.632428118 -1.83550486e-26)
(-0.681707941 0.629392896 0)
(-0.593430038 0.624988662 2.56285204e-25)
(-0.488609194 0.61931364 -2.0752446e-26)
(-0.365546769 0.612278999 -2.55385282e-25)
(-0.222046604 0.603864699 0)
(-0.056100742 0.595524781 -4.0111043e-25)
(0.129835441 0.588646504 -2.87404632e-25)
(0.344862309 0.581411698 0)
(0.598429004 0.572162507 0)
(0.888005396 0.562745695 -4.11479612e-25)
(1.21837633 0.554658786 -4.5814564e-25)
(1.59389494 0.547942798 1.14345675e-25)
(2.01888959 0.542788626 0)
(2.49840657 0.539756101 5.37367668e-25)
(3.03749746 0.539435089 1.28760335e-24)
(3.64081274 0.542512565 7.07425924e-25)
(4.31255424 0.549717141 6.24936725e-26)
(5.05611827 0.56176981 -2.48326669e-27)
(5.87379821 0.579397785 0)
(6.76653984 0.603369937 -1.44935151e-24)
(7.73352929 0.63445685 -8.82674494e-26)
(8.77177946 0.673349269 1.97038493e-24)
(9.87574553 0.720591244 -3.99833409e-26)
(11.0370858 0.776568249 -2.75682566e-24)
(12.2445963 0.841035367 -6.00949916e-24)
(13.4838598 0.913514093 5.63567005e-33)
(14.7378234 0.993181766 3.28286725e-24)
(15.9870098 1.07851867 0)
(17.2099512 1.16819723 0)
(18.3832402 1.2593072 1.4342128e-25)
(19.4858859 1.3500816 1.68237845e-25)
(20.4965293 1.43319236 0)
(21.4058829 1.50562762 9.35289402e-24)
(22.184863 1.56481102 9.40453003e-24)
(22.8350034 1.61338122 -9.43509519e-24)
(23.3325549 1.64098205 -2.24873839e-23)
(23.735617 1.65576272 -1.03404443e-23)
(23.8798309 1.66439575 -8.69466474e-24)
(23.8932608 1.6803487 -9.7214242e-24)
(23.8719283 1.71466858 -6.8672457e-25)
(23.849335 1.70121068 1.47555411e-23)
(23.8567029 1.66476911 8.36780269e-24)
(23.8901435 1.61295328 -1.08801655e-23)
(23.9174779 1.56961985 -1.20921889e-23)
(23.9203512 1.57797655 -1.07157198e-23)
(23.9325132 1.5532733 -9.6766302e-24)
(23.9917938 1.46977628 -1.18528513e-23)
(24.0181735 1.43074659 1.24997525e-31)
(24.0394724 1.34104291 2.65437004e-23)
(24.0352811 1.34352798 2.35641718e-23)
(-0.0332657044 0.0194618042 1.67918106e-27)
(-0.0973212365 0.0566086394 6.64459459e-28)
(-0.160199893 0.0927070797 3.81432911e-27)
(-0.222133457 0.127911555 -1.16042043e-33)
(-0.283217819 0.162326236 -1.79760949e-27)
(-0.34343614 0.19598635 -1.94184529e-27)
(-0.402657313 0.22886505 2.84448482e-27)
(-0.460651077 0.260887873 1.56076716e-27)
(-0.517111643 0.291949598 5.58143185e-27)
(-0.571682131 0.321928352 7.68940051e-27)
(-0.623981377 0.350681512 9.70516258e-27)
(-0.67354276 0.378077397 9.94115324e-27)
(-0.719945855 0.403984352 1.57415304e-26)
(-0.762743666 0.428322899 2.26156668e-26)
(-0.801509485 0.450969327 2.61800923e-27)
(-0.835764854 0.471864638 2.75030125e-27)
(-0.865009322 0.490980329 7.08331623e-26)
(-0.888778924 0.5082265 8.16814442e-26)
(-0.906512888 0.52358473 -6.33509354e-27)
(-0.917639997 0.537052705 -6.71127934e-27)
(-0.921583367 0.548674912 1.03953999e-25)
(-0.917677477 0.558451926 1.16217051e-25)
(-0.905193168 0.566405151 0)
(-0.883289476 0.572582635 8.10429574e-27)
(-0.851074785 0.577019891 0)
(-0.807539065 0.579786929 0)
(-0.751548229 0.580974111 9.26942925e-27)
(-0.681823361 0.580687733 -2.29293508e-25)
(-0.596890551 0.579047651 -2.15986206e-25)
(-0.495076465 0.576205991 2.12795082e-25)
(-0.374735733 0.572179853 2.4267707e-25)
(-0.233925026 0.566900394 2.24467431e-26)
(-0.0694253434 0.561316621 -2.31028538e-26)
(0.115755188 0.55696292 0)
(0.328272798 0.552694228 2.50933708e-26)
(0.579312682 0.54682729 0)
(0.865418507 0.540969497 0)
(1.1911986 0.536698304 2.87140863e-26)
(1.56073962 0.534164835 0)
(1.97807979 0.533625139 0)
(2.44785549 0.535650433 5.31484586e-25)
(2.97467905 0.540870693 6.51126031e-25)
(3.56287971 0.549984107 0)
(4.21641519 0.563719786 0)
(4.93862904 0.582849717 0)
(5.73194792 0.608196225 6.06217027e-26)
(6.59758835 0.640569704 5.39056686e-26)
(7.53520466 0.680727098 1.31210356e-24)
(8.54251957 0.729323722 1.60411402e-24)
(9.61497332 0.786854679 1.8962536e-24)
(10.745436 0.853606889 2.24548979e-24)
(11.9239598 0.929630706 2.62300702e-24)
(13.1377139 1.0144704 2.92635772e-24)
(14.3709656 1.10713287 0)
(15.605649 1.20638593 0)
(16.8215188 1.31040849 -3.26664647e-24)
(17.9971537 1.41705763 -6.92948349e-24)
(19.1109309 1.52259877 -3.7114533e-24)
(20.1407098 1.62580621 -3.88809804e-24)
(21.0653823 1.72180463 -3.70721561e-24)
(21.8714527 1.80910153 8.85096463e-24)
(22.5429291 1.8803937 1.82429075e-23)
(23.0927326 1.9363023 2.47016228e-25)
(23.4930368 1.96543406 -9.57435033e-24)
(23.7879884 1.97397543 2.99950991e-25)
(23.9466601 1.98325593 -7.5415492e-25)
(23.9445605 1.97642031 7.3741296e-24)
(23.9050203 1.98826165 -8.68909119e-32)
(23.8923871 1.95507974 -1.25806217e-23)
(23.8919881 1.91870834 -5.62750617e-25)
(23.9053687 1.89213959 1.01694979e-23)
(23.9120688 1.86817574 9.59324698e-24)
(23.9249776 1.8488788 0)
(23.9721148 1.76825313 8.93970496e-25)
(24.0114759 1.73840297 0)
(24.0210231 1.68618001 1.175225e-23)
(24.0258347 1.67377391 2.42000705e-23)
(24.017909 1.60014288 1.17445789e-23)
(24.0254868 1.57609638 8.29332781e-24)
(24.0387111 1.48641389 2.23396307e-23)
(-0.0360386387 0.019226704 1.65691772e-27)
(-0.105034226 0.0557138679 5.0206607e-27)
(-0.172328188 0.0909519675 -8.10679127e-28)
(-0.238144465 0.12509367 -2.66412251e-27)
(-0.302551764 0.158242298 -1.03856571e-27)
(-0.365486993 0.190431651 -2.12215957e-28)
(-0.426755894 0.221634173 -2.00541167e-27)
(-0.486052073 0.251776132 -7.14082621e-27)
(-0.542985231 0.280754227 -9.82928548e-27)
(-0.597106545 0.308450907 -1.31202561e-26)
(-0.647919764 0.334761038 0)
(-0.694914207 0.35955286 -5.18721243e-27)
(-0.737533438 0.382734438 2.73258375e-27)
(-0.775219241 0.404192315 0)
(-0.807352857 0.423883829 0)
(-0.833341388 0.441739738 0)
(-0.852552421 0.457734229 0)
(-0.864315354 0.471858013 -3.50471375e-27)
(-0.867909257 0.484116217 0)
(-0.862554578 0.49453671 -6.6152852e-26)
(-0.847435755 0.503150866 -7.31203429e-26)
(-0.821584797 0.510036473 1.36290461e-25)
(-0.783995234 0.515256468 1.59881247e-25)
(-0.733522993 0.518912828 -1.66317562e-25)
(-0.668897813 0.521118204 -2.01750365e-25)
(-0.58867928 0.522006472 -2.08466279e-25)
(-0.49126152 0.521742913 -2.08322764e-25)
(-0.375004915 0.520374336 -2.53826463e-25)
(-0.237949134 0.517919971 -5.58233953e-25)
(-0.0772070513 0.515202438 -3.24226063e-25)
(0.105183291 0.513404999 0)
(0.314945001 0.511843424 -2.56380783e-26)
(0.560980467 0.509500019 -2.72075985e-26)
(0.841517429 0.507498407 0)
(1.16076257 0.507211603 2.88194549e-26)
(1.52248556 0.508899472 0)
(1.93035993 0.51287518 0)
(2.38861879 0.519762687 5.3131717e-25)
(2.90150714 0.530224131 -3.29580582e-26)
(3.47306492 0.544993122 -6.12649706e-25)
(4.10704086 0.564851421 7.22140476e-25)
(4.80666992 0.590606892 7.76733603e-25)
(5.57440167 0.623092227 3.29290857e-26)
(6.41163814 0.66310831 0)
(7.31842062 0.711389595 1.12569449e-24)
(8.29310866 0.768560495 1.43610016e-24)
(9.33206224 0.835082202 0)
(10.4293424 0.911188636 0)
(11.5764659 0.996837172 -2.27344899e-24)
(12.7621887 1.0916644 -2.63949071e-24)
(13.9725247 1.19494782 2.98073273e-24)
(15.1906461 1.30532359 3.16018245e-24)
(16.397687 1.42119473 -3.22843709e-24)
(17.5733717 1.5403387 1.56370749e-32)
(18.6967677 1.66006273 3.5739519e-24)
(19.746803 1.77749411 1.8244693e-26)
(20.7029852 1.89019843 0)
(21.5506972 1.99393816 2.11120027e-25)
(22.272795 2.085652 -3.75675168e-24)
(22.8651378 2.16817904 2.82261779e-25)
(23.320176 2.22820336 4.22058738e-24)
(23.6689576 2.2872494 0)
(23.8600287 2.31684815 3.27285314e-25)
(23.9718093 2.33316948 0)
(23.9906744 2.32958396 3.39064318e-25)
(23.9736024 2.30512113 -2.28398995e-25)
(23.9750245 2.28072179 -7.94727537e-25)
(23.9745575 2.24503259 -7.13243953e-24)
(23.9979053 2.2436248 -1.08713304e-23)
(23.9953897 2.22397746 -6.41636534e-25)
(23.9982483 2.2079128 -8.30488147e-24)
(24.0149323 2.16381692 -1.1976564e-23)
(24.0088623 2.14514938 -9.44415787e-24)
(24.0080595 2.11250476 -8.87013352e-24)
(24.0231042 2.00388414 -1.37985823e-23)
(24.0343086 1.99182389 -1.07966806e-23)
(24.0370914 1.92067675 1.26908579e-23)
(24.0364625 1.86028508 7.76239791e-24)
(24.0045765 1.85789305 -1.57248394e-24)
(23.9935552 1.77895598 1.19310816e-24)
(-0.0387488373 0.0187606948 1.3261595e-27)
(-0.112403086 0.0541546397 -4.74543335e-27)
(-0.183646636 0.0881218355 -9.3960556e-28)
(-0.252668041 0.120807347 -9.66271503e-34)
(-0.319482879 0.152307536 9.86869798e-28)
(-0.38395685 0.182651998 -1.09831589e-27)
(-0.445809703 0.211812756 5.70216084e-27)
(-0.504634598 0.239728077 1.84533191e-33)
(-0.559932298 0.266294439 -2.16818628e-26)
(-0.611123963 0.291412854 -1.54345492e-26)
(-0.657586957 0.314964568 2.84706799e-27)
(-0.698635041 0.33686932 -2.57359512e-26)
(-0.733577546 0.357036421 -2.41811248e-26)
(-0.76168808 0.375407148 -3.22553604e-26)
(-0.782212032 0.39194448 -3.75761525e-26)
(-0.794362132 0.406634932 4.33755664e-26)
(-0.797302249 0.419492926 4.94620335e-26)
(-0.790151977 0.430537188 -3.97925521e-27)
(-0.771937188 0.439843451 0)
(-0.741616836 0.447473506 -6.57008766e-26)
(-0.698043902 0.453530635 -7.78298962e-26)
(-0.639951175 0.458136868 -9.68886256e-27)
(-0.565926194 0.461439534 9.39353265e-26)
(-0.474427948 0.463607361 1.10395592e-25)
(-0.363864967 0.464724401 -2.19477277e-26)
(-0.232302731 0.464944684 0)
(-0.0772043708 0.465032693 1.19700084e-26)
(0.0999764141 0.465769521 1.68299518e-28)
(0.305450028 0.466707592 -2.80690957e-25)
(0.544890923 0.467419153 -3.17630812e-25)
(0.818110746 0.468897847 3.68920427e-25)
(1.12893378 0.472205726 3.45183366e-25)
(1.48085063 0.477688113 -6.08000293e-26)
(1.87733371 0.485753624 -4.09565034e-25)
(2.32226044 0.497051408 -2.3224329e-32)
(2.81954128 0.512266549 5.25585593e-25)
(3.37292759 0.532151773 -6.15047402e-25)
(3.98593936 0.557504552 -6.45684629e-25)
(4.6616763 0.589137995 -7.04923008e-26)
(5.40257665 0.627882729 3.55324955e-26)
(6.21018602 0.674534343 3.37932273e-26)
(7.08487673 0.7298213 -1.06249913e-24)
(8.02554957 0.794359662 -2.43165502e-24)
(9.02933203 0.868599383 -1.43495618e-24)
(10.0912916 0.952762695 -1.72616879e-24)
(11.2041885 1.04677952 -1.96610862e-24)
(12.3582959 1.15022785 0)
(13.5413073 1.26228449 2.6620154e-24)
(14.7383963 1.38176505 3.10262678e-24)
(15.9322735 1.50687639 3.32913791e-24)
(17.1037439 1.63552998 6.97501777e-24)
(18.2326223 1.76519849 7.26914986e-24)
(19.2985128 1.8930168 7.60664185e-24)
(20.2818105 2.01600317 7.93772444e-24)
(21.1651567 2.13069359 4.13080979e-24)
(21.9351166 2.23402869 -3.3972865e-25)
(22.5794535 2.32402846 0)
(23.0985953 2.40076897 -4.28207576e-24)
(23.4881117 2.45284107 -4.62213043e-24)
(23.7734785 2.5018069 0)
(23.9249488 2.52590554 -6.51455226e-24)
(23.9706208 2.530571 -6.07579865e-24)
(23.9968815 2.53048147 0)
(23.9867195 2.52358011 -3.5665333e-25)
(23.9799757 2.52244457 0)
(23.984193 2.48718432 -1.09488497e-23)
(24.0090238 2.46082651 -1.06816072e-24)
(24.0238627 2.44220078 1.31871677e-23)
(24.0227997 2.40798164 -6.86507274e-25)
(24.0203157 2.38661686 -7.99315995e-25)
(24.012858 2.34873146 -1.06657597e-23)
(24.0097371 2.34019408 -7.26203307e-24)
(24.0171185 2.27314412 -5.65705065e-25)
(23.9979798 2.27171916 -6.07012117e-25)
(23.9922492 2.26504312 -3.90388804e-26)
(24.0145744 2.14951879 -8.29226727e-25)
(24.0243698 2.10206268 1.32542387e-23)
(24.0266222 2.11853962 1.59417883e-23)
(24.016576 2.02208566 9.36247887e-24)
(23.9569476 2.00572813 -1.82735181e-24)
(-0.0410328017 0.017921591 0)
(-0.118309849 0.0515253587 -1.03269884e-27)
(-0.192240754 0.0835710202 1.08778378e-27)
(-0.262947339 0.114196956 -3.59242863e-27)
(-0.330360308 0.143488168 1.20758957e-27)
(-0.394237371 0.17147199 1.27156981e-27)
(-0.454171378 0.198122984 -1.05686089e-26)
(-0.509618179 0.223372468 0)
(-0.559917148 0.247147586 2.9552721e-27)
(-0.604338828 0.269357162 -2.13469526e-26)
(-0.642090874 0.289922089 -2.25368268e-26)
(-0.672334432 0.30877774 3.06393225e-26)
(-0.694190571 0.325879714 3.61823189e-27)
(-0.706739775 0.341208471 -7.95952709e-26)
(-0.709012333 0.354777738 -9.55013057e-26)
(-0.700003944 0.366602853 -4.98535894e-26)
(-0.678601597 0.376775869 -4.38388841e-27)
(-0.643651887 0.385366711 -6.85480729e-26)
(-0.593887766 0.392504827 -7.16132354e-26)
(-0.527922843 0.398341854 4.98925053e-27)
(-0.444252726 0.403050308 -5.26511926e-27)
(-0.341297062 0.406745661 -2.19094415e-26)
(-0.217163497 0.409668783 -1.19177597e-25)
(-0.069931267 0.412568389 -2.59159921e-25)
(0.0997979093 0.415808264 -1.25898645e-25)
(0.299280596 0.419148623 -1.30757642e-26)
(0.530009688 0.422717163 -1.27921093e-25)
(0.793974969 0.427444782 1.4125747e-26)
(1.09450181 0.434054434 -1.465507e-26)
(1.43476226 0.442959555 -1.79170936e-25)
(1.81803962 0.454671494 0)
(2.24790016 0.469864227 -4.73828753e-25)
(2.72794759 0.489242974 -3.3843743e-26)
(3.26167517 0.513570365 5.82182152e-25)
(3.85238989 0.543651737 6.41536097e-25)
(4.50305488 0.580305102 7.06695974e-25)