/*--------------------------------*- C++ -*----------------------------------*\
  =========                 |
  \\      /  F ield         | OpenFOAM: The Open Source CFD Toolbox
   \\    /   O peration     | Website:  https://openfoam.org
    \\  /    A nd           | Version:  8
     \\/     M anipulation  |
\*---------------------------------------------------------------------------*/
FoamFile
{
    version     2.0;
    format      ascii;
    class       volScalarField;
    location    "0.069";
    object      p_rgh;
}
// * * * * * * * * * * * * * * * * * * * * * * * * * * * * * * * * * * * * * //

dimensions      [1 -1 -2 0 0 0 0];

internalField   nonuniform List<scalar> 
42400
(
101613.285
101613.272
101613.258
101613.245
101613.233
101613.221
101613.211
101613.202
101613.193
101613.186
101613.179
101613.173
101613.169
101613.165
101613.163
101613.161
101613.16
101613.161
101613.162
101613.164
101613.167
101613.171
101613.176
101613.181
101613.187
101613.194
101613.201
101613.209
101613.217
101613.226
101613.235
101613.244
101613.254
101613.264
101613.274
101613.284
101613.294
101613.304
101613.324
101613.357
101613.393
101613.41
101613.404
101613.395
101613.385
101613.389
101613.412
101613.44
101613.471
101613.506
101613.54
101613.571
101613.608
101613.674
101613.768
101613.842
101613.873
101613.922
101614.021
101614.149
101614.284
101614.429
101614.593
101614.787
101615.009
101615.26
101615.521
101615.743
101616.142
101616.538
101616.414
101616.987
101618.837
101618.292
101617.29
101616.81
101618.996
101622.608
101624.318
101627.545
101612.417
101612.406
101612.395
101612.384
101612.375
101612.366
101612.358
101612.351
101612.344
101612.338
101612.334
101612.33
101612.327
101612.325
101612.324
101612.324
101612.325
101612.326
101612.329
101612.333
101612.337
101612.342
101612.348
101612.354
101612.362
101612.369
101612.378
101612.386
101612.396
101612.405
101612.415
101612.426
101612.436
101612.445
101612.454
101612.471
101612.498
101612.528
101612.54
101612.531
101612.52
101612.523
101612.54
101612.559
101612.577
101612.597
101612.616
101612.633
101612.642
101612.675
101612.744
101612.815
101612.832
101612.833
101612.88
101612.958
101613.039
101613.12
101613.212
101613.323
101613.459
101613.619
101613.8
101614.006
101614.237
101614.518
101614.843
101615.082
101615.4
101616.091
101616.194
101616.545
101617.525
101617.643
101618.519
101621.341
101624.13
101626.157
101628.344
101629.695
101611.431
101611.423
101611.414
101611.407
101611.399
101611.393
101611.387
101611.382
101611.378
101611.375
101611.373
101611.371
101611.37
101611.371
101611.372
101611.374
101611.378
101611.382
101611.387
101611.393
101611.4
101611.408
101611.417
101611.426
101611.436
101611.447
101611.459
101611.471
101611.484
101611.497
101611.509
101611.525
101611.546
101611.571
101611.597
101611.613
101611.614
101611.613
101611.623
101611.643
101611.663
101611.683
101611.704
101611.723
101611.735
101611.756
101611.799
101611.862
101611.895
101611.892
101611.913
101611.963
101612.022
101612.075
101612.131
101612.196
101612.276
101612.371
101612.484
101612.614
101612.762
101612.935
101613.146
101613.407
101613.708
101614.069
101614.508
101614.93
101615.214
101615.845
101616.174
101616.334
101619.045
101622.933
101624.346
101623.973
101625.376
101628.324
101629.749
101631.101
101610.355
101610.349
101610.342
101610.336
101610.331
101610.326
101610.322
101610.319
101610.317
101610.316
101610.316
101610.317
101610.318
101610.321
101610.325
101610.331
101610.337
101610.345
101610.353
101610.363
101610.375
101610.387
101610.401
101610.415
101610.431
101610.447
101610.465
101610.484
101610.506
101610.53
101610.556
101610.579
101610.596
101610.611
101610.627
101610.649
101610.677
101610.706
101610.734
101610.763
101610.789
101610.808
101610.842
101610.906
101610.97
101610.976
101610.971
101611.005
101611.057
101611.104
101611.149
101611.198
101611.254
101611.319
101611.394
101611.479
101611.579
101611.697
101611.837
101612.003
101612.203
101612.431
101612.708
101613.059
101613.526
101614.105
101614.833
101615.66
101616.253
101617.018
101620.057
101622.732
101622.744
101622.448
101623.585
101625.153
101626.996
101628.575
101629.761
101630.611
101609.187
101609.182
101609.176
101609.171
101609.167
101609.164
101609.161
101609.16
101609.159
101609.16
101609.162
101609.166
101609.17
101609.176
101609.184
101609.193
101609.203
101609.215
101609.229
101609.244
101609.261
101609.278
101609.297
101609.317
101609.339
101609.364
101609.39
101609.417
101609.445
101609.473
101609.502
101609.535
101609.571
101609.607
101609.645
101609.682
101609.72
101609.757
101609.788
101609.832
101609.9
101609.945
101609.961
101609.992
101610.043
101610.098
101610.144
101610.189
101610.239
101610.292
101610.35
101610.413
101610.484
101610.566
101610.664
101610.783
101610.923
101611.092
101611.299
101611.538
101611.828
101612.152
101612.552
101612.993
101613.628
101614.234
101615.019
101616.592
101618.846
101620.365
101620.505
101620.901
101621.849
101623.091
101624.722
101626.242
101627.475
101628.59
101630.013
101631.514
101607.919
101607.913
101607.907
101607.903
101607.899
101607.897
101607.896
101607.895
101607.896
101607.899
101607.903
101607.909
101607.916
101607.925
101607.936
101607.949
101607.963
101607.98
101607.997
101608.016
101608.037
101608.063
101608.092
101608.122
101608.155
101608.189
101608.225
101608.263
101608.303
101608.345
101608.388
101608.432
101608.478
101608.525
101608.572
101608.614
101608.667
101608.742
101608.796
101608.825
101608.871
101608.932
101608.989
101609.044
101609.099
101609.156
101609.213
101609.273
101609.336
101609.405
101609.482
101609.571
101609.675
101609.798
101609.944
101610.119
101610.326
101610.571
101610.87
101611.215
101611.624
101612.064
101612.539
101612.929
101613.591
101615.596
101617.714
101618.299
101618.403
101619.505
101620.53
101621.72
101623.059
101624.393
101625.763
101627.025
101628.241
101629.872
101631.897
101633.536
101606.517
101606.511
101606.505
101606.501
101606.498
101606.496
101606.496
101606.497
101606.5
101606.504
101606.511
101606.519
101606.53
101606.543
101606.557
101606.574
101606.593
101606.615
101606.641
101606.67
101606.702
101606.735
101606.77
101606.808
101606.848
101606.891
101606.936
101606.983
101607.033
101607.085
101607.14
101607.194
101607.246
101607.308
101607.387
101607.449
101607.492
101607.551
101607.622
101607.689
101607.755
101607.82
101607.886
101607.953
101608.022
101608.094
101608.171
101608.253
101608.344
101608.447
101608.566
101608.706
101608.87
101609.062
101609.291
101609.561
101609.885
101610.277
101610.778
101611.374
101612.077
101612.865
101613.756
101615.255
101616.748
101617.247
101617.475
101618.223
101619.049
101620.055
101621.447
101622.899
101624.381
101625.802
101627.07
101628.723
101630.514
101631.832
101632.86
101633.919
101604.949
101604.943
101604.938
101604.934
101604.932
101604.931
101604.933
101604.936
101604.941
101604.948
101604.957
101604.969
101604.983
101605
101605.02
101605.044
101605.069
101605.097
101605.128
101605.162
101605.199
101605.24
101605.283
101605.329
101605.378
101605.43
101605.485
101605.543
101605.603
101605.66
101605.727
101605.809
101605.878
101605.932
101606.001
101606.081
101606.157
101606.231
101606.307
101606.384
101606.463
101606.544
101606.627
101606.715
101606.808
101606.908
101607.018
101607.142
101607.284
101607.448
101607.638
101607.858
101608.113
101608.402
101608.735
101609.12
101609.562
101610.033
101610.614
101611.192
101612.306
101614.059
101615.177
101615.886
101616.631
101617.418
101618.545
101619.816
101620.786
101621.641
101623.029
101624.587
101626.276
101627.586
101628.6
101629.825
101630.91
101631.768
101633.27
101634.627
101603.165
101603.16
101603.156
101603.154
101603.153
101603.155
101603.159
101603.165
101603.174
101603.185
101603.2
101603.217
101603.236
101603.258
101603.283
101603.312
101603.343
101603.379
101603.417
101603.459
101603.504
101603.552
101603.604
101603.659
101603.718
101603.779
101603.839
101603.907
101603.99
101604.063
101604.124
101604.2
101604.284
101604.367
101604.449
101604.534
101604.62
101604.709
101604.8
101604.894
101604.992
101605.096
101605.206
101605.326
101605.458
101605.606
101605.774
101605.966
101606.189
101606.444
101606.735
101607.064
101607.435
101607.854
101608.324
101608.852
101609.438
101610.038
101611.061
101612.869
101614.022
101614.314
101614.826
101615.996
101617.145
101618.069
101619.172
101620.29
101621.496
101622.613
101623.717
101625.513
101626.943
101628.007
101629.061
101630.189
101631.76
101633.338
101635.098
101636.673
101601.137
101601.134
101601.132
101601.133
101601.136
101601.141
101601.149
101601.16
101601.173
101601.189
101601.208
101601.23
101601.256
101601.284
101601.317
101601.353
101601.392
101601.435
101601.482
101601.532
101601.586
101601.644
101601.703
101601.765
101601.833
101601.915
101601.989
101602.055
101602.135
101602.222
101602.308
101602.396
101602.487
101602.58
101602.676
101602.774
101602.877
101602.984
101603.096
101603.215
101603.343
101603.483
101603.638
101603.812
101604.01
101604.237
101604.5
101604.804
101605.155
101605.557
101606.017
101606.549
101607.148
101607.839
101608.596
101609.465
101610.307
101611.752
101613.13
101613.63
101614.237
101615.029
101615.804
101616.711
101617.824
101619.115
101620.462
101621.608
101622.822
101624.207
101625.737
101627.004
101628.036
101629.236
101630.647
101632.172
101633.682
101635.226
101636.816
101638.569
101598.822
101598.822
101598.825
101598.83
101598.837
101598.847
101598.86
101598.876
101598.895
101598.917
101598.943
101598.972
101599.005
101599.043
101599.083
101599.127
101599.176
101599.228
101599.284
101599.343
101599.407
101599.481
101599.559
101599.628
101599.7
101599.782
101599.871
101599.96
101600.051
101600.146
101600.244
101600.345
101600.449
101600.558
101600.671
101600.789
101600.913
101601.046
101601.189
101601.345
101601.518
101601.711
101601.929
101602.177
101602.461
101602.788
101603.162
101603.588
101604.067
101604.616
101605.233
101605.957
101606.692
101607.436
101608.27
101609.547
101611.233
101612.147
101612.599
101613.283
101614.18
101615.273
101616.387
101617.455
101618.757
101620.376
101621.793
101623.081
101624.277
101625.238
101626.053
101626.881
101628.159
101629.869
101631.497
101633.034
101634.619
101636.097
101638.066
101640.607
101596.183
101596.189
101596.197
101596.207
101596.221
101596.237
101596.257
101596.28
101596.307
101596.337
101596.372
101596.411
101596.453
101596.499
101596.55
101596.605
101596.663
101596.726
101596.799
101596.871
101596.941
101597.021
101597.107
101597.196
101597.287
101597.382
101597.48
101597.582
101597.687
101597.797
101597.911
101598.029
101598.153
101598.284
101598.422
101598.571
101598.732
101598.908
101599.102
101599.319
101599.562
101599.835
101600.144
101600.492
101600.884
101601.32
101601.796
101602.313
101602.854
101603.42
101604.003
101604.867
101606.344
101607.925
101609.313
101610.083
101610.34
101610.98
101612.158
101613.39
101614.482
101615.475
101616.568
101617.759
101619.134
101620.773
101622.093
101623.028
101624.135
101625.484
101626.758
101628.102
101629.677
101631.299
101632.994
101634.745
101636.518
101638.681
101640.877
101642.424
101593.182
101593.193
101593.208
101593.226
101593.248
101593.273
101593.301
101593.334
101593.37
101593.411
101593.456
101593.505
101593.559
101593.616
101593.679
101593.75
101593.821
101593.894
101593.974
101594.061
101594.15
101594.243
101594.341
101594.442
101594.548
101594.658
101594.773
101594.892
101595.016
101595.147
101595.284
101595.43
101595.587
101595.756
101595.94
101596.143
101596.367
101596.619
101596.902
101597.22
101597.58
101597.986
101598.443
101598.955
101599.526
101600.158
101600.856
101601.629
101602.452
101603.327
101604.649
101606.001
101606.629
101607.065
101607.662
101608.668
101610.11
101611.573
101613.044
101614.564
101615.932
101616.994
101618.018
101619.157
101620.19
101621.045
101622.172
101623.782
101625.326
101626.812
101628.413
101630.087
101631.624
101633.226
101635.077
101636.77
101638.532
101640.746
101642.498
101643.591
101589.772
101589.792
101589.816
101589.844
101589.875
101589.91
101589.949
101589.992
101590.04
101590.092
101590.149
101590.211
101590.28
101590.351
101590.425
101590.506
101590.593
101590.683
101590.778
101590.877
101590.981
101591.089
101591.202
101591.32
101591.443
101591.572
101591.707
101591.849
101591.999
101592.16
101592.332
101592.52
101592.725
101592.951
101593.203
101593.485
101593.802
101594.16
101594.563
101595.017
101595.527
101596.098
101596.733
101597.434
101598.198
101599.023
101599.908
101600.84
101601.773
101603.09
101604.385
101605.059
101605.759
101606.818
101607.998
101609.398
101610.904
101612.408
101613.723
101614.79
101615.815
101616.883
101617.914
101619.007
101620.343
101621.63
101622.969
101624.454
101625.893
101627.479
101629.464
101631.538
101633.506
101635.311
101636.925
101638.785
101640.789
101641.631
101642.973
101645.12
101585.92
101585.949
101585.985
101586.024
101586.067
101586.114
101586.166
101586.222
101586.284
101586.35
101586.42
101586.495
101586.576
101586.662
101586.753
101586.848
101586.948
101587.053
101587.163
101587.278
101587.398
101587.523
101587.654
101587.791
101587.935
101588.087
101588.249
101588.421
101588.607
101588.809
101589.03
101589.274
101589.545
101589.847
101590.185
101590.565
101590.991
101591.47
101592.005
101592.603
101593.267
101594.001
101594.812
101595.692
101596.653
101597.661
101598.68
101599.839
101601.359
101602.51
101603.205
101604.188
101605.469
101606.686
101607.784
101609.112
101610.592
101611.554
101612.401
101613.654
101615.1
101616.569
101618.087
101619.812
101621.686
101623.582
101625.396
101627.264
101629.139
101630.713
101631.803
101632.936
101634.421
101636.162
101638.118
101640.15
101642.004
101644.417
101646.438
101648.641
101581.591
101581.632
101581.682
101581.735
101581.791
101581.853
101581.918
101581.989
101582.065
101582.146
101582.232
101582.323
101582.42
101582.521
101582.628
101582.74
101582.858
101582.981
101583.109
101583.244
101583.386
101583.535
101583.692
101583.859
101584.036
101584.228
101584.434
101584.66
101584.907
101585.179
101585.482
101585.819
101586.195
101586.614
101587.082
101587.602
101588.177
101588.811
101589.503
101590.255
101591.063
101591.909
101592.81
101593.739
101594.977
101596.69
101598.449
101600.023
101600.822
101601.588
101602.851
101604.183
101605.517
101606.791
101608.07
101609.107
101610.086
101611.799
101614.062
101616.086
101617.711
101619.166
101620.64
101622.054
101623.51
101625.017
101626.553
101628.262
101630.164
101631.968
101633.583
101635.151
101636.882
101638.859
101641.185
101642.981
101644.484
101646.683
101648.948
101651.176
101576.789
101576.844
101576.91
101576.978
101577.05
101577.127
101577.208
101577.295
101577.388
101577.485
101577.588
101577.697
101577.811
101577.931
101578.058
101578.19
101578.329
101578.476
101578.63
101578.794
101578.967
101579.152
101579.351
101579.566
101579.8
101580.056
101580.338
101580.651
101580.998
101581.384
101581.816
101582.297
101582.834
101583.43
101584.091
101584.819
101585.617
101586.487
101587.43
101588.443
101589.513
101590.647
101592.111
101594.067
101595.715
101596.627
101597.356
101598.077
101599.173
101600.822
101602.448
101604.06
101605.632
101607.199
101609.043
101611.007
101612.698
101614.056
101615.388
101616.932
101618.686
101620.287
101621.575
101622.911
101624.309
101625.822
101627.413
101628.819
101630.6
101632.966
101635.284
101637.155
101639.05
101641.413
101643.235
101645.122
101646.946
101648.597
101651.212
101652.639
101571.508
101571.579
101571.661
101571.746
101571.834
101571.927
101572.026
101572.13
101572.239
101572.355
101572.476
101572.603
101572.737
101572.878
101573.027
101573.184
101573.35
101573.527
101573.716
101573.918
101574.137
101574.375
101574.636
101574.922
101575.238
101575.589
101575.98
101576.415
101576.902
101577.444
101578.048
101578.717
101579.457
101580.269
101581.156
101582.118
101583.154
101584.26
101585.423
101586.622
101587.867
101589.56
101591.442
101592.523
101593.313
101594.4
101595.948
101597.558
101599.243
101601.014
101602.859
101604.782
101606.91
101608.589
101609.836
101611.144
101612.591
101614.043
101615.476
101616.866
101618.139
101619.629
101621.54
101623.433
101625.349
101627.326
101629.272
101631.461
101633.267
101634.774
101636.49
101638.724
101641.675
101643.586
101644.979
101646.82
101648.754
101650.654
101652.428
101654.246
101565.799
101565.885
101565.985
101566.086
101566.19
101566.299
101566.413
101566.533
101566.658
101566.79
101566.927
101567.072
101567.225
101567.387
101567.558
101567.741
101567.936
101568.147
101568.375
101568.624
101568.897
101569.199
101569.533
101569.904
101570.318
101570.78
101571.297
101571.873
101572.515
101573.226
101574.012
101574.876
101575.821
101576.847
101577.957
101579.149
101580.422
101581.758
101583.169
101584.622
101586.551
101588.273
101589.201
101590.348
101591.933
101593.83
101596.041
101598.261
101600.156
101601.822
101603.398
101604.864
101606.255
101607.683
101609.203
101610.758
101612.349
101614.003
101615.659
101617.339
101619.199
101621.195
101623.216
101625.196
101627.282
101629.417
101631.401
101633.271
101635.559
101638.014
101639.656
101641.046
101642.563
101644.515
101646.976
101649.186
101651.138
101652.858
101654.222
101657.068
101559.739
101559.84
101559.957
101560.074
101560.193
101560.317
101560.446
101560.581
101560.721
101560.868
101561.023
101561.187
101561.361
101561.547
101561.747
101561.963
101562.198
101562.456
101562.739
101563.053
101563.403
101563.793
101564.23
101564.718
101565.265
101565.875
101566.555
101567.309
101568.142
101569.057
101570.054
101571.136
101572.299
101573.54
101574.856
101576.225
101577.661
101579.12
101581.001
101583.465
101585.422
101587.038
101588.711
101590.364
101592.268
101594.304
101595.664
101596.599
101597.775
101599.399
101601.141
101603.242
101605.485
101607.684
101609.634
101611.364
101613.311
101615.478
101617.632
101619.715
101621.692
101623.648
101625.707
101627.807
101629.815
101631.928
101634.4
101636.957
101638.429
101639.348
101641.174
101644.344
101646.913
101648.561
101649.861
101651.414
101653.799
101655.761
101657.647
101659.793
101597.689
101597.693
101597.699
101597.706
101597.716
101597.727
101597.74
101597.756
101597.773
101597.793
101597.814
101597.838
101597.864
101597.892
101597.923
101597.956
101597.991
101598.03
101598.07
101598.114
101598.161
101598.21
101598.263
101598.319
101598.378
101598.441
101598.507
101598.577
101598.651
101598.729
101598.811
101598.898
101598.989
101599.086
101599.187
101599.294
101599.406
101599.524
101599.648
101599.778
101599.915
101600.058
101600.207
101600.362
101600.525
101600.694
101600.87
101601.051
101601.237
101601.435
101601.649
101601.882
101602.131
101602.399
101602.674
101602.948
101603.229
101603.516
101603.809
101604.103
101604.394
101604.674
101604.935
101605.163
101605.351
101605.492
101605.573
101605.584
101605.511
101605.339
101605.048
101604.619
101604.045
101603.325
101602.448
101601.396
101600.352
101599.218
101597.136
101595.467
101600.211
101600.216
101600.222
101600.23
101600.24
101600.252
101600.266
101600.282
101600.3
101600.32
101600.342
101600.366
101600.392
101600.42
101600.451
101600.484
101600.52
101600.558
101600.599
101600.642
101600.688
101600.737
101600.789
101600.844
101600.902
101600.964
101601.029
101601.097
101601.17
101601.246
101601.326
101601.41
101601.498
101601.591
101601.688
101601.791
101601.898
101602.011
101602.129
101602.252
101602.382
101602.518
101602.66
101602.809
101602.965
101603.127
101603.296
101603.471
101603.652
101603.841
101604.036
101604.238
101604.443
101604.649
101604.86
101605.074
101605.297
101605.535
101605.784
101606.044
101606.314
101606.593
101606.884
101607.161
101607.396
101607.598
101607.74
101607.797
101607.752
101607.613
101607.393
101607.087
101606.685
101606.171
101605.542
101604.782
101603.858
101603.021
101602.364
101600.918
101602.488
101602.493
101602.5
101602.508
101602.519
101602.531
101602.545
101602.561
101602.579
101602.599
101602.621
101602.644
101602.67
101602.698
101602.729
101602.761
101602.796
101602.833
101602.872
101602.915
101602.959
101603.007
101603.057
101603.11
101603.166
101603.225
101603.287
101603.352
101603.421
101603.493
101603.569
101603.649
101603.732
101603.82
101603.911
101604.007
101604.108
101604.213
101604.322
101604.437
101604.557
101604.682
101604.812
101604.948
101605.09
101605.238
101605.393
101605.553
101605.72
101605.895
101606.075
101606.26
101606.449
101606.641
101606.836
101607.038
101607.244
101607.456
101607.672
101607.888
101608.102
101608.306
101608.493
101608.67
101608.833
101608.963
101609.081
101609.218
101609.349
101609.383
101609.29
101609.015
101608.586
101608.003
101607.292
101606.458
101605.49
101604.346
101603.103
101601.513
101604.524
101604.53
101604.537
101604.546
101604.556
101604.568
101604.582
101604.598
101604.616
101604.635
101604.656
101604.68
101604.705
101604.732
101604.761
101604.792
101604.825
101604.861
101604.899
101604.939
101604.982
101605.027
101605.074
101605.124
101605.177
101605.233
101605.292
101605.353
101605.418
101605.485
101605.556
101605.63
101605.708
101605.789
101605.874
101605.962
101606.055
101606.151
101606.251
101606.356
101606.465
101606.579
101606.697
101606.82
101606.948
101607.081
101607.219
101607.362
101607.51
101607.664
101607.823
101607.987
101608.156
101608.331
101608.512
101608.7
101608.895
101609.093
101609.291
101609.488
101609.68
101609.863
101610.034
101610.185
101610.319
101610.421
101610.483
101610.486
101610.443
101610.349
101610.229
101610.149
101610.074
101609.832
101609.229
101608.377
101607.318
101606.001
101604.584
101603.228
101606.336
101606.342
101606.349
101606.358
101606.368
101606.38
101606.394
101606.409
101606.426
101606.445
101606.465
101606.488
101606.512
101606.537
101606.565
101606.595
101606.626
101606.66
101606.696
101606.733
101606.774
101606.816
101606.86
101606.907
101606.957
101607.009
101607.063
101607.12
101607.18
101607.243
101607.308
101607.377
101607.448
101607.523
101607.601
101607.682
101607.766
101607.854
101607.945
101608.041
101608.14
101608.243
101608.35
101608.461
101608.576
101608.696
101608.82
101608.948
101609.081
101609.219
101609.361
101609.508
101609.659
101609.814
101609.972
101610.135
101610.301
101610.469
101610.639
101610.809
101610.979
101611.146
101611.31
101611.468
101611.619
101611.76
101611.871
101611.935
101611.924
101611.839
101611.649
101611.334
101610.846
101610.38
101610.002
101609.527
101608.919
101608.122
101606.795
101605.273
101607.935
101607.94
101607.947
101607.956
101607.966
101607.978
101607.991
101608.005
101608.022
101608.039
101608.059
101608.08
101608.102
101608.127
101608.153
101608.181
101608.21
101608.242
101608.275
101608.31
101608.348
101608.387
101608.428
101608.472
101608.518
101608.566
101608.616
101608.669
101608.724
101608.782
101608.842
101608.905
101608.97
101609.039
101609.11
101609.184
101609.261
101609.341
101609.425
101609.512
101609.602
101609.695
101609.793
101609.894
101609.999
101610.108
101610.221
101610.338
101610.459
101610.585
101610.715
101610.849
101610.988
101611.131
101611.278
101611.429
101611.583
101611.741
101611.902
101612.066
101612.231
101612.396
101612.56
101612.721
101612.876
101613.02
101613.148
101613.252
101613.323
101613.35
101613.307
101613.123
101612.775
101612.23
101611.516
101610.687
101609.678
101608.631
101607.655
101606.65
101609.338
101609.343
101609.35
101609.358
101609.368
101609.379
101609.391
101609.405
101609.42
101609.437
101609.455
101609.474
101609.496
101609.518
101609.542
101609.568
101609.596
101609.625
101609.656
101609.689
101609.723
101609.76
101609.798
101609.838
101609.88
101609.925
101609.971
101610.019
101610.07
101610.123
101610.178
101610.236
101610.296
101610.359
101610.424
101610.492
101610.563
101610.636
101610.713
101610.793
101610.876
101610.962
101611.052
101611.145
101611.243
101611.344
101611.449
101611.559
101611.673
101611.792
101611.916
101612.044
101612.177
101612.316
101612.459
101612.608
101612.762
101612.921
101613.085
101613.255
101613.428
101613.605
101613.785
101613.967
101614.148
101614.324
101614.493
101614.648
101614.782
101614.883
101614.937
101614.925
101614.832
101614.616
101614.181
101613.504
101612.731
101611.696
101610.381
101609.174
101610.558
101610.562
101610.569
101610.577
101610.585
101610.595
101610.607
101610.62
101610.634
101610.649
101610.666
101610.684
101610.703
101610.724
101610.747
101610.771
101610.796
101610.823
101610.851
101610.881
101610.913
101610.946
101610.982
101611.018
101611.057
101611.098
101611.14
101611.185
101611.231
101611.28
101611.33
101611.383
101611.438
101611.496
101611.556
101611.619
101611.684
101611.753
101611.824
101611.898
101611.975
101612.056
101612.141
101612.229
101612.321
101612.418
101612.519
101612.625
101612.736
101612.852
101612.973
101613.101
101613.235
101613.375
101613.522
101613.676
101613.838
101614.007
101614.184
101614.369
101614.562
101614.762
101614.971
101615.186
101615.408
101615.633
101615.859
101616.083
101616.297
101616.494
101616.663
101616.791
101616.862
101616.854
101616.748
101616.538
101616.126
101615.551
101614.65
101613.504
101611.612
101611.616
101611.622
101611.629
101611.637
101611.646
101611.656
101611.667
101611.68
101611.694
101611.709
101611.726
101611.743
101611.762
101611.783
101611.804
101611.827
101611.852
101611.878
101611.905
101611.934
101611.964
101611.996
101612.03
101612.065
101612.102
101612.141
101612.182
101612.224
101612.269
101612.315
101612.364
101612.415
101612.468
101612.524
101612.581
101612.642
101612.706
101612.773
101612.842
101612.916
101612.992
101613.073
101613.158
101613.247
101613.341
101613.44
101613.544
101613.655
101613.771
101613.895
101614.025
101614.163
101614.309
101614.464
101614.629
101614.803
101614.987
101615.183
101615.39
101615.609
101615.841
101616.086
101616.343
101616.613
101616.894
101617.185
101617.484
101617.785
101618.083
101618.371
101618.635
101618.863
101619.036
101619.131
101619.128
101619.011
101618.737
101618.316
101617.695
101612.511
101612.514
101612.519
101612.525
101612.531
101612.539
101612.548
101612.558
101612.569
101612.581
101612.594
101612.609
101612.625
101612.642
101612.66
101612.679
101612.7
101612.722
101612.745
101612.77
101612.796
101612.823
101612.852
101612.883
101612.915
101612.949
101612.984
101613.021
101613.06
101613.1
101613.143
101613.187
101613.233
101613.282
101613.333
101613.387
101613.444
101613.505
101613.568
101613.634
101613.704
101613.777
101613.855
101613.938
101614.025
101614.118
101614.216
101614.321
101614.433
101614.551
101614.678
101614.814
101614.959
101615.114
101615.28
101615.457
101615.647
101615.85
101616.067
101616.299
101616.548
101616.812
101617.094
101617.395
101617.715
101618.053
101618.409
101618.782
101619.167
101619.562
101619.96
101620.351
101620.725
101621.064
101621.349
101621.554
101621.661
101621.634
101621.494
101621.033
101613.274
101613.276
101613.279
101613.283
101613.288
101613.294
101613.301
101613.309
101613.318
101613.328
101613.34
101613.352
101613.365
101613.38
101613.396
101613.413
101613.431
101613.45
101613.47
101613.492
101613.515
101613.539
101613.565
101613.592
101613.62
101613.65
101613.681
101613.714
101613.748
101613.785
101613.823
101613.864
101613.907
101613.953
101614.001
101614.051
101614.103
101614.159
101614.218
101614.281
101614.349
101614.42
101614.496
101614.577
101614.664
101614.757
101614.856
101614.963
101615.077
101615.199
101615.33
101615.471
101615.622
101615.784
101615.96
101616.149
101616.353
101616.573
101616.81
101617.066
101617.342
101617.639
101617.958
101618.302
101618.669
101619.062
101619.481
101619.923
101620.388
101620.871
101621.368
101621.872
101622.374
101622.859
101623.311
101623.705
101624.016
101624.207
101624.292
101624.084
101613.896
101613.897
101613.898
101613.9
101613.903
101613.907
101613.911
101613.917
101613.924
101613.932
101613.94
101613.95
101613.96
101613.972
101613.985
101613.999
101614.014
101614.03
101614.047
101614.066
101614.085
101614.106
101614.129
101614.153
101614.178
101614.204
101614.233
101614.263
101614.294
101614.328
101614.364
101614.402
101614.441
101614.482
101614.526
101614.573
101614.624
101614.677
101614.734
101614.795
101614.86
101614.929
101615.003
101615.082
101615.167
101615.258
101615.356
101615.461
101615.574
101615.696
101615.825
101615.964
101616.116
101616.289
101616.483
101616.691
101616.914
101617.156
101617.417
101617.698
101618.002
101618.327
101618.676
101619.05
101619.452
101619.886
101620.351
101620.848
101621.375
101621.932
101622.514
101623.116
101623.731
101624.346
101624.945
101625.507
101626.006
101626.403
101626.679
101626.735
101614.409
101614.408
101614.406
101614.406
101614.406
101614.407
101614.409
101614.413
101614.417
101614.422
101614.427
101614.434
101614.442
101614.451
101614.461
101614.472
101614.484
101614.497
101614.511
101614.527
101614.543
101614.561
101614.579
101614.6
101614.621
101614.644
101614.669
101614.695
101614.722
101614.75
101614.779
101614.812
101614.847
101614.885
101614.925
101614.967
101615.012
101615.06
101615.112
101615.168
101615.227
101615.292
101615.362
101615.439
101615.523
101615.616
101615.717
101615.829
101615.952
101616.089
101616.241
101616.404
101616.575
101616.747
101616.929
101617.129
101617.348
101617.587
101617.847
101618.13
101618.435
101618.763
101619.113
101619.489
101619.93
101620.434
101620.967
101621.529
101622.121
101622.741
101623.389
101624.063
101624.759
101625.473
101626.19
101626.892
101627.551
101628.119
101628.567
101628.831
101614.788
101614.784
101614.779
101614.776
101614.773
101614.771
101614.77
101614.77
101614.771
101614.773
101614.776
101614.779
101614.784
101614.79
101614.796
101614.804
101614.813
101614.823
101614.834
101614.846
101614.859
101614.874
101614.889
101614.906
101614.924
101614.943
101614.963
101614.984
101615.008
101615.034
101615.063
101615.092
101615.122
101615.155
101615.19
101615.228
101615.268
101615.312
101615.359
101615.409
101615.464
101615.524
101615.588
101615.658
101615.735
101615.818
101615.909
101616.008
101616.115