/*--------------------------------*- C++ -*----------------------------------*\
  =========                 |
  \\      /  F ield         | OpenFOAM: The Open Source CFD Toolbox
   \\    /   O peration     | Website:  https://openfoam.org
    \\  /    A nd           | Version:  8
     \\/     M anipulation  |
\*---------------------------------------------------------------------------*/
FoamFile
{
    version     2.0;
    format      ascii;
    class       surfaceScalarField;
    location    "0.069";
    object      phi;
}
// * * * * * * * * * * * * * * * * * * * * * * * * * * * * * * * * * * * * * //

dimensions      [1 0 -1 0 0 0 0];

internalField   nonuniform List<scalar> 
84340
(
-7.07275669e-08
3.77248141e-07
-3.06619433e-07
-2.82638823e-07
1.12582939e-06
-9.14077963e-07
-6.40104837e-07
1.89413009e-06
-1.53686155e-06
-1.14773667e-06
2.68603176e-06
-2.17862992e-06
-1.81049522e-06
3.50617911e-06
-2.8436793e-06
-2.63363556e-06
4.35942097e-06
-3.53656607e-06
-3.62270355e-06
5.25026529e-06
-4.2615088e-06
-4.78351975e-06
6.18257674e-06
-5.02209847e-06
-6.12213811e-06
7.15953776e-06
-5.82128487e-06
-7.64477486e-06
8.18371664e-06
-6.6614745e-06
-9.35771034e-06
9.25716879e-06
-7.54465906e-06
-1.12671685e-05
1.03815314e-05
-8.47253233e-06
-1.3379182e-05
1.15581064e-05
-9.44658779e-06
-1.5699449e-05
1.27879313e-05
-1.04681977e-05
-1.82331764e-05
1.40718286e-05
-1.15386761e-05
-2.09849342e-05
1.54104577e-05
-1.26593192e-05
-2.39584907e-05
1.68043399e-05
-1.38314505e-05
-2.71566582e-05
1.82538832e-05
-1.50564342e-05
-3.05811204e-05
1.97593985e-05
-1.63357097e-05
-3.42322543e-05
2.13211031e-05
-1.76708018e-05
-3.81089358e-05
2.29391203e-05
-1.90633347e-05
-4.22083258e-05
2.46134689e-05
-2.05150428e-05
-4.65256261e-05
2.63440365e-05
-2.20277729e-05
-5.1053814e-05
2.81305497e-05
-2.36034767e-05
-5.57833229e-05
2.99725125e-05
-2.5244202e-05
-6.07016848e-05
3.18691361e-05
-2.69520623e-05
-6.57931197e-05
3.38192322e-05
-2.87291813e-05
-7.10380567e-05
3.58210891e-05
-3.05776389e-05
-7.64125911e-05
3.78723002e-05
-3.24993624e-05
-8.18878437e-05
3.99695346e-05
-3.4495996e-05
-8.74292194e-05
4.21082538e-05
-3.65687174e-05
-9.29956544e-05
4.42824546e-05
-3.87179929e-05
-9.85392065e-05
4.64847688e-05
-4.09433324e-05
-0.000104004849
4.87063228e-05
-4.32429494e-05
-0.00010932967
5.09357782e-05
-4.56133842e-05
-0.000114438488
5.31558246e-05
-4.8049607e-05
-0.000119242918
5.53476788e-05
-5.05460381e-05
-0.00012365084
5.75010445e-05
-5.30961037e-05
-0.000127572434
5.96042587e-05
-5.56858507e-05
-0.000130909388
6.16131408e-05
-5.82795445e-05
-0.000133497124
6.34539761e-05
-6.08697614e-05
-0.000135074792
6.50418948e-05
-6.34680404e-05
-0.00013535669
6.63315462e-05
-6.60537757e-05
-0.000134052106
6.72242335e-05
-6.85332283e-05
-0.000130838112
6.76079186e-05
-7.082665e-05
-0.000125392054
6.73537084e-05
-7.28048658e-05
-0.000117283896
6.63201867e-05
-7.44338213e-05
-0.000105989839
6.43431497e-05
-7.56431026e-05
-9.09967391e-05
6.12285981e-05
-7.62280331e-05
-7.16531904e-05
5.66567843e-05
-7.60071496e-05
-4.73632615e-05
5.04771831e-05
-7.47744364e-05
-1.77376599e-05
4.26782733e-05
-7.23118135e-05
1.77636149e-05
3.2965167e-05
-6.847506e-05
6.03814839e-05
2.0167874e-05
-6.27949938e-05
0.000111261314
4.24300956e-06
-5.51326653e-05
0.000171595704
-1.49943015e-05
-4.5350817e-05
0.000242814186
-3.85979223e-05
-3.26324541e-05
0.000326678716
-6.75478467e-05
-1.63298532e-05
0.000424645164
-0.000102048422
4.06758704e-06
0.000538661082
-0.000142812956
2.87812605e-05
0.000670578382
-0.000190926718
5.89921672e-05
0.000822249607
-0.000247391913
9.57016807e-05
0.000995992511
-0.000313228675
0.000139465115
0.00119473186
-0.000390072255
0.000191310652
0.00142079589
-0.000478430232
0.000252343764
0.00167751227
-0.000581063533
0.00032432631
0.00196624709
-0.00069566007
0.000406906924
0.00228077193
-0.000815974886
0.000501434289
0.00263261298
-0.000974399231
0.000622545431
0.00304169833
-0.00114202812
0.000732932723
0.0034388271
-0.0012427728
0.000845636758
0.00380742844
-0.00147892189
0.00111031558
0.0043457158
-0.00181198481
0.00127369426
0.00498318927
-0.0018856898
0.00124821415
0.00543376685
-0.00195056519
0.00149998569
0.00573114921
-0.00231884635
0.0020214607
0.00617757504
-0.00264728803
0.00220085812
0.00684211724
-0.00275172613
0.00208717993
0.00735813762
-0.00279134715
0.00227532497
-0.00292461706
0.00268875432
0.00759400284
-5.69464675e-08
4.34087781e-07
-2.27239712e-07
1.29597287e-06
-5.14129706e-07
2.18084889e-06
-9.21187599e-07
3.09289837e-06
-1.45216094e-06
4.03694188e-06
-2.11108595e-06
5.01811619e-06
-2.90218165e-06
6.04111137e-06
-3.82981291e-06
7.10993741e-06
-4.8984307e-06
8.22786246e-06
-6.11248741e-06
9.39745595e-06
-7.47632563e-06
1.06206632e-05
-8.99404576e-06
1.1898879e-05
-1.06693547e-05
1.32330117e-05
-1.25053984e-05
1.46235375e-05
-1.45045921e-05
1.60705481e-05
-1.66684252e-05
1.75737769e-05
-1.89972706e-05
1.91326284e-05
-2.14901756e-05
2.0746185e-05
-2.41446348e-05
2.24132046e-05
-2.69563494e-05
2.4132111e-05
-2.99189608e-05
2.59009673e-05
-3.30237469e-05
2.7717429e-05
-3.62592932e-05
2.95786908e-05
-3.96111034e-05
3.14813976e-05
-4.30611532e-05
3.34215249e-05
-4.65873743e-05
3.53942402e-05
-5.01630573e-05
3.73937137e-05
-5.37562203e-05
3.94129611e-05
-5.73289497e-05
4.14436443e-05
-6.08367689e-05
4.34758685e-05
-6.42278154e-05
4.54977112e-05
-6.74408841e-05
4.74938257e-05
-7.04077553e-05
4.94498224e-05
-7.30544144e-05
5.13510353e-05
-7.52967331e-05
5.31760479e-05
-7.70547048e-05
5.49116444e-05
-7.82209241e-05
5.65115985e-05
-7.86432808e-05
5.79209416e-05
-7.8094721e-05
5.9053097e-05
-7.63293115e-05
5.98449773e-05
-7.31008302e-05
6.02225527e-05
-6.81517027e-05
6.00896162e-05
-6.11561256e-05
5.93326178e-05
-5.17523177e-05
5.78168493e-05
-3.95445313e-05
5.53963194e-05
-2.40570662e-05
5.18621615e-05
-4.86745308e-06
4.71262068e-05
1.85765409e-05
4.0894455e-05
4.64757692e-05
3.33242921e-05
7.9742021e-05
2.33850957e-05
0.000119252112
1.09614139e-05
0.000166005685
-4.08142061e-06
0.000221268869
-2.2304853e-05
0.000286324101
-4.48949787e-05
0.000362598671
-7.20399129e-05
0.000451741454
-0.000104146321
0.000555176628
-0.000142043253
0.000674221346
-0.000186603836
0.000810800702
-0.000238640231
0.000967048611
-0.000299074611
0.00114505029
-0.000368943316
0.00134709454
-0.000449452468
0.00157556254
-0.00054171304
0.00183276396
-0.000647288924
0.00211973893
-0.000765418912
0.00243753247
-0.000898869367
0.00278979563
-0.00104793377
0.00316755474
-0.00119374295
0.00355248465
-0.00135933618
0.00399137411
-0.00158092308
0.00448283145
-0.00173423396
0.00489028759
-0.00188638066
0.00526909909
-0.00219079792
0.00581163884
-0.00242823065
0.00636600844
-0.00250493583
0.00666778233
-0.00262062175
0.00682526324
-0.00280477149
0.00702915099
-0.0029556166
0.00731914013
-0.00308133845
-0.00317151586
0.00756603897
-4.40216455e-08
4.77954884e-07
-1.75181636e-07
1.42691366e-06
-3.95431376e-07
2.40084628e-06
-7.06982685e-07
3.40416678e-06
-1.11222516e-06
4.44187285e-06
-1.6135495e-06
5.51910127e-06
-2.21338872e-06
6.64058349e-06
-2.91426483e-06
7.81041779e-06
-3.71860692e-06
9.0317789e-06
-4.62864799e-06
1.03070398e-05
-5.64629821e-06
1.16378228e-05
-6.77299575e-06
1.30250504e-05
-8.00953961e-06
1.44689916e-05
-9.35590365e-06
1.59692973e-05
-1.08110342e-05
1.75250315e-05
-1.23726368e-05
1.91346868e-05
-1.40369373e-05
2.07961876e-05
-1.57984332e-05
2.25068881e-05
-1.76496152e-05
2.42635387e-05
-1.95806627e-05
2.60622521e-05
-2.15791043e-05
2.78984402e-05
-2.36294128e-05
2.97667025e-05
-2.57125164e-05
3.16606889e-05
-2.78052196e-05
3.35729202e-05
-2.98796135e-05
3.54946582e-05
-3.19024036e-05
3.74156851e-05
-3.38341173e-05
3.93239924e-05
-3.56298979e-05
4.12072113e-05
-3.72390168e-05
4.30511286e-05
-3.86047916e-05
4.48398963e-05
-3.96657566e-05
4.65568279e-05
-4.03576803e-05
4.81837961e-05
-4.05915054e-05
4.9681562e-05
-4.02566804e-05
5.10139878e-05
-3.92163174e-05
5.21333241e-05
-3.72857015e-05
5.29785201e-05
-3.42587485e-05
5.34819835e-05
-2.9911043e-05
5.35703916e-05
-2.40121678e-05
5.31511846e-05
-1.63045052e-05
5.2134084e-05
-6.48599172e-06
5.04006079e-05
5.78305639e-06
4.78169207e-05
2.09312745e-05
4.41805303e-05
3.93778573e-05
3.93661647e-05
6.13745699e-05
3.33952612e-05
8.72395237e-05
2.59925663e-05
0.000117990503
1.63703689e-05
0.000154396122
4.48374966e-06
0.000197344857
-9.62992023e-06
0.00024784663
-2.71226134e-05
0.000307061229
-4.8259552e-05
0.0003764475
-7.34745851e-05
0.000457439857
-0.000103304651
0.000550998464
-0.000138461676
0.00065857609
-0.000179626318
0.000781967455
-0.00022754732
0.000922973588
-0.000283059807
0.00108339516
-0.000347036691
0.00126520709
-0.000420464287
0.00147044286
-0.000504323325
0.00170092036
-0.000599433565
0.00195789407
-0.000706438106
0.002242299
-0.000826128794
0.00255485414
-0.000959853936
0.00289574503
-0.00110631846
0.00326039803
-0.00126353001
0.00364939593
-0.00143693802
0.00406719987
-0.00161155219
0.00447888667
-0.00177102703
0.00487662552
-0.00197866506
0.00533383242
-0.00219144291
0.00577736997
-0.00232991961
0.00606868556
-0.00248211453
0.00629731468
-0.00265686112
0.00657311865
-0.00278074183
0.00684494333
-0.00289244911
0.00702485722
-0.00298468845
0.0071488532
-0.00307961594
0.00724919608
-0.00318168207
-0.0032790108
0.00735669143
-3.5404466e-08
5.13274722e-07
-1.39865548e-07
1.5312574e-06
-3.13811114e-07
2.57465863e-06
-5.57810063e-07
3.64801732e-06
-8.72622718e-07
4.75652213e-06
-1.25895609e-06
5.90525595e-06
-1.71738669e-06
7.09881926e-06
-2.24807866e-06
8.34089756e-06
-2.85107291e-06
9.634542e-06
-3.52596483e-06
1.09816798e-05
-4.27175466e-06
1.23833379e-05
-5.08668478e-06
1.38396807e-05
-5.96804598e-06
1.53500254e-05
-6.91197173e-06
1.69128655e-05
-7.91320839e-06
1.85258778e-05
-8.96485727e-06
2.01859095e-05
-1.00581005e-05
2.18889657e-05
-1.11818674e-05
2.36301479e-05
-1.23224547e-05
2.54035734e-05
-1.34630669e-05
2.72022627e-05
-1.45833198e-05
2.90180392e-05
-1.56588485e-05
3.08415212e-05
-1.66614919e-05
3.26625626e-05
-1.75588974e-05
3.44694919e-05
-1.83143734e-05
3.6249232e-05
-1.88867959e-05
3.79871365e-05
-1.92308068e-05
3.966696e-05
-1.92875523e-05
4.12628372e-05
-1.89867621e-05
4.27491401e-05
-1.82450503e-05
4.40969014e-05
-1.69619973e-05
4.52724037e-05
-1.50103452e-05
4.62306818e-05
-1.22486234e-05
4.69182861e-05
-8.51228637e-06
4.72760026e-05
-3.61150277e-06
4.72307871e-05
2.66915758e-06
4.66959955e-05
1.05542113e-05
4.55949598e-05
2.03032181e-05
4.38193045e-05
3.22066338e-05
4.1245577e-05
4.6636131e-05
3.77022786e-05
6.39572446e-05
3.30770642e-05
8.43361134e-05
2.74354788e-05
0.000108419979
2.00939861e-05
0.000136827395
1.0956018e-05
0.00017026562
-4.58066169e-08
0.000209572413
-1.33173154e-05
0.000255773429
-2.98339781e-05
0.000309819669
-4.95660578e-05
0.000373139391
-7.295346e-05
0.000446587048
-0.000100574397
0.000531352172
-0.000133029132
0.000628827043
-0.000170954332
0.0007405425
-0.000215025434
0.000868029032
-0.000265954052
0.00101292545
-0.000324529061
0.00117691127
-0.000391540054
0.0013617434
-0.000467899456
0.00156921346
-0.000554514795
0.00180085634
-0.000652115122
0.00205762583
-0.000761100428
0.00233965279
-0.000881467569
0.00264561385
-0.00101240575
0.00297351017
-0.00115403103
0.00332042219
-0.00130677133
0.00368690153
-0.00147280239
0.00406531518
-0.00164194763
0.00444647287
-0.00181809881
0.00483173847
-0.00199682027
0.00521967414
-0.00215896436
0.00554712462
-0.0023061165
0.0058160892
-0.00246040785
0.00606426085
-0.00257809147
0.00626890593
-0.00268675962
0.00641168143
-0.00279963694
0.00653974
-0.00290880069
0.00666458774
-0.00301729772
0.0068007315
-0.00312083295
0.00692700998
-0.00320589496
0.00703204121
-0.00328671103
-0.00337896006
0.00713199471
-3.20420598e-08
5.45159861e-07
-1.25160722e-07
1.62415664e-06
-2.78206259e-07
2.72745393e-06
-4.90021827e-07
3.85955424e-06
-7.59387733e-07
5.02558272e-06
-1.08503769e-06
6.23057466e-06
-1.46540354e-06
7.47882769e-06
-1.89841177e-06
8.77352157e-06
-2.38104558e-06
1.01167638e-05
-2.90968671e-06
1.15098797e-05
-3.47982631e-06
1.29530054e-05
-4.08580551e-06
1.44451551e-05
-4.72058946e-06
1.59842699e-05
-5.37551291e-06
1.75672128e-05
-6.03998914e-06
1.91897388e-05
-6.70118412e-06
2.08464476e-05
-7.34369485e-06
2.25307754e-05
-7.9491932e-06
2.42348984e-05
-8.49611946e-06
2.59497015e-05
-8.96006826e-06
2.76653597e-05
-9.31291545e-06
2.93699796e-05
-9.52111509e-06
3.10487558e-05
-9.54448463e-06
3.26849034e-05
-9.33656438e-06
3.42604749e-05
-8.84287675e-06
3.57543759e-05
-7.99910553e-06
3.71421214e-05
-6.72834899e-06
3.83948794e-05
-4.94428778e-06
3.94773648e-05
-2.54503802e-06
4.0348388e-05
5.91050986e-07
4.09592147e-05
4.60937678e-06
4.12523719e-05
9.67834879e-06
4.11598881e-05
1.59748081e-05
4.06198899e-05
2.37035923e-05
3.9545158e-05
3.30950925e-05
3.7837098e-05
4.4406872e-05
3.53818914e-05
5.79701185e-05
3.20292509e-05
7.41255115e-05
2.76612962e-05
9.3056111e-05
2.2312203e-05
0.000115355886
1.5399611e-05
0.000141585538
6.84440558e-06
0.000172394835
-3.37702708e-06
0.000208493755
-1.60083491e-05
0.000250711575
-3.12654222e-05
0.000300161005
-4.94990784e-05
0.000357943917
-7.11043163e-05
0.000424701201
-9.65956057e-05
0.000501617308
-0.000126486801
0.000590003175
-0.000161344273
0.000691201253
-0.00020177779
0.000806605097
-0.000248438632
0.000937655762
-0.00030201102
0.00108581351
-0.000363189546
0.00125254244
-0.000432689781
0.00143928944
-0.000511283293
0.00164744463
-0.00059970279
0.00187803604
-0.000698498153
0.00213158828
-0.000808073862
0.00240797338
-0.00092850646
0.00270599022
-0.00105912303
0.00302317246
-0.00119865496
0.00335517666
-0.00134441463
0.00369701827
-0.00149587668
0.00404182025
-0.00165157688
0.00438931072
-0.00182029577
0.00473373382
-0.00198637302
0.00505540581
-0.00213977222
0.00533389904
-0.00227531444
0.0055780983
-0.00240316386
0.00577810303
-0.00250612095
0.00592291957
-0.00260522348
0.00604907889
-0.00270424989
0.00616532715
-0.00280300678
0.00626695376
-0.00290126197
0.00635665689
-0.00299850166
0.00643541212
-0.00309605108
0.00651287175
-0.00319829001
0.0066071282
-0.00330014802
0.00671409576
-0.00339367225
-0.00349118554
0.00682632891
-3.27401401e-08
5.77846078e-07
-1.26398376e-07
1.71774072e-06
-2.78069525e-07
2.87904118e-06
-4.84682225e-07
4.06607337e-06
-7.42874867e-07
5.28367187e-06
-1.04881788e-06
6.53640366e-06
-1.3981118e-06
7.82799604e-06
-1.78577101e-06
9.16104233e-06
-2.20567902e-06
1.05365189e-05
-2.65023943e-06
1.19542712e-05
-3.110472e-06
1.34130509e-05
-3.5757764e-06
1.49102524e-05
-4.03356413e-06
1.64418281e-05
-4.46895444e-06
1.80023487e-05
-4.86447546e-06
1.95849779e-05
-5.19991546e-06
2.11815753e-05
-5.45133427e-06
2.27818486e-05
-5.59094109e-06
2.43741241e-05
-5.5863202e-06
2.59446609e-05
-5.39991327e-06
2.74784905e-05
-4.98833985e-06
2.89578983e-05
-4.301962e-06
3.03618217e-05
-3.28369082e-06
3.16660238e-05
-1.86558138e-06
3.28417021e-05
3.28095979e-08
3.38552635e-05
2.50664598e-06
3.46675001e-05
5.66823773e-06
3.52324352e-05
9.64069964e-06
3.55039817e-05
1.45641013e-05
3.5423994e-05
2.05984901e-05
3.49237591e-05
2.79261183e-05
3.39236003e-05
3.675225e-05
3.23325343e-05
4.7324749e-05
3.00460891e-05
5.99376381e-05
2.69308865e-05
7.49053393e-05
2.28679309e-05
9.2425945e-05
1.78597319e-05
0.000113033067
1.14205131e-05
0.000137228006
3.46468325e-06
0.000165578927
-6.04048894e-06
0.000198722297
-1.77456353e-05
0.000237403371
-3.18386372e-05
0.000282662177
-4.86379017e-05
0.000335177696
-6.85260374e-05
0.000395850224
-9.19402376e-05
0.000465702672
-0.000119353936
0.000545881857
-0.000151286066
0.00063757185
-0.000188288326
0.000742026551
-0.000230944421
0.00086054465
-0.000279865474
0.000994424644
-0.000335661117
0.00114491895
-0.000398936495
0.00131319716
-0.000470293092
0.0015003293
-0.000550325866
0.00170724504
-0.000639609965
0.00193447152
-0.000738514182
0.00218195441
-0.00084718994
0.00244882217
-0.000965369915
0.00273333006
-0.00109258556
0.00303308144
-0.00122826132
0.00334477374
-0.00137081857
0.00366385762
-0.00151774168
0.00398396974
-0.00166452929
0.00429838918
-0.00181029819
0.0046015276
-0.00195471701
0.00487403087
-0.00209280015
0.00510775547
-0.00222009841
0.00530199965
-0.00233401691
0.00546308982
-0.0024364047
0.00559458302
-0.00253465659
0.00571265596
-0.00262419296
0.00581409456
-0.00270666056
0.00590131481
-0.00279146816
0.00597803429
-0.00287972346
0.00604447569
-0.00296770004
0.00610672711
-0.00306074835
0.00617063355
-0.00315995203
0.00623674101
-0.00326439232
0.00630763748
-0.00337103855
0.00638916187
-0.00347518549
-0.00357986393
0.00647785276
-3.51832452e-08
6.12899674e-07
-1.34183347e-07
1.81656111e-06
-2.92051785e-07
3.03670582e-06
-5.03388062e-07
4.27718349e-06
-7.62190291e-07
5.54222682e-06
-1.06162569e-06
6.83557118e-06
-1.39380235e-06
8.15988413e-06
-1.74954486e-06
9.51647486e-06
-2.11855671e-06
1.09051982e-05
-2.48866261e-06
1.23240206e-05
-2.8454281e-06
1.37694347e-05
-3.17192191e-06
1.52363376e-05
-3.44836507e-06
1.67178339e-05
-3.65174156e-06
1.8205258e-05
-3.75522638e-06
1.96879629e-05
-3.72812352e-06
2.11539369e-05
-3.53498796e-06
2.25881398e-05
-3.13476457e-06
2.39732884e-05
-2.48029743e-06
2.52895398e-05
-1.51634542e-06
2.65138384e-05
-1.77960688e-07
2.76187629e-05
1.60949967e-06
2.8573557e-05
3.93118596e-06
2.93434764e-05
6.88435179e-06
2.98876136e-05
1.0580124e-05
3.01585022e-05
1.51450822e-05
3.01014816e-05
2.07229694e-05
2.96534121e-05
2.74843606e-05
2.87413736e-05
3.56253563e-05
2.72816954e-05
4.5369569e-05
2.51781516e-05
5.69799626e-05
2.23117161e-05
7.07464431e-05
1.85644573e-05
8.68700307e-05
1.39207917e-05
0.000105824521
7.97459239e-06
0.000128056175
6.34379463e-07
0.000154062066
-8.14819608e-06
0.000184407827
-1.89274366e-05
0.000219744831
-3.18746555e-05
0.000260978567
-4.72767099e-05
0.000308719696
-6.54894114e-05
0.00036378215
-8.69039063e-05
0.000427088721
-0.00011194747
0.000499647881
-0.000141088387
0.000582529196
-0.000174824958
0.000676857234
-0.000213685582
0.000783785364
-0.000258218015
0.000904461477
-0.00030896846
0.00103998921
-0.000366476406
0.00119137576
-0.000431256485
0.00135949853
-0.000503788619
0.00154503867
-0.000584481648
0.0017484983
-0.00067375798
0.00196991717
-0.00077174988
0.00220869726
-0.000878394931
0.00246342975
-0.000993251207
0.00273174997
-0.00111551441
0.003010424
-0.00124404785
0.00329548932
-0.00137765452
0.00358260841
-0.00151538369
0.00386679608
-0.00165500928
0.00414314172
-0.00179408997
0.00440513689
-0.00192652678
0.00464064269
-0.00204580589
0.00484304714
-0.00215712293
0.0050004518
-0.00225020587
0.00512386081
-0.00234350822
0.00523040473
-0.00244056102
0.00533094067
-0.00253694046
0.00542723739
-0.00263095251
0.00551995052
-0.00271690498
0.00560319536
-0.00278990347
0.00567496868
-0.00286323877
0.00573970631
-0.00294445698
0.00580578784
-0.00303377707
0.00587064276
-0.00312559847
0.00593200992
-0.0032213123
0.00599449388
-0.00332686706
0.00605736285
-0.00343389609
0.00612821303
-0.00354602024
-0.00365757486
0.0062059386
-3.6105485e-08
6.4897874e-07
-1.35516414e-07
1.91593596e-06
-2.90708683e-07
3.19185725e-06
-4.93451097e-07
4.47987998e-06
-7.34528801e-07
5.78325299e-06
-1.0034467e-06
7.10443119e-06
-1.28812372e-06
8.44449595e-06
-1.57458407e-06
9.80286151e-06
-1.84661123e-06
1.11771418e-05
-2.08565137e-06
1.25629658e-05
-2.26999182e-06
1.39536671e-05
-2.37441886e-06
1.53406415e-05
-2.36962891e-06
1.6712904e-05
-2.22175922e-06
1.80572293e-05
-1.89189906e-06
1.93579224e-05
-1.33488626e-06
2.05967197e-05
-4.98778765e-07
2.17518015e-05
6.75969241e-07
2.27982803e-05
2.25769622e-06
2.37075207e-05
4.32501619e-06
2.44461914e-05
6.96754762e-06
2.49758665e-05
1.02878557e-05
2.52528426e-05
1.44046441e-05
2.52262373e-05
1.94538391e-05
2.48379205e-05
2.5590738e-05
2.40210548e-05
3.29926134e-05
2.26990043e-05
4.18614414e-05
2.0783926e-05
5.24327503e-05
1.81693478e-05
6.49723348e-05
1.47413319e-05
7.96792055e-05
1.04704358e-05
9.69706412e-05
5.01937874e-06
0.000117240328
-1.70618749e-06
0.000140929378
-9.76928829e-06
0.000168539243
-1.9636382e-05
0.000200638759
-3.14663169e-05
0.000238006453
-4.55171449e-05
0.000281193664
-6.21159745e-05
0.000330929706
-8.16121022e-05
0.000388040559
-0.000104389044
0.000453416999
-0.000130867416
0.000528006492
-0.000161495048
0.000612803764
-0.00019674648
0.000708828955
-0.000237115396
0.000817098595
-0.000283096513
0.000938589562
-0.000335178555
0.00107419601
-0.000393826585
0.00122468839
-0.000459463077
0.00139065824
-0.00053244865
0.00157245791
-0.000613058713
0.00177020236
-0.000701535842
0.00198357663
-0.00079785873
0.00221165288
-0.000901836991
0.00245273918
-0.00101283882
0.00270426412
-0.00112992244
0.00296280367
-0.00125179319
0.00322417178
-0.00137688487
0.00348366195
-0.00150354019
0.003736295
-0.00163028966
0.00397882811
-0.00175791864
0.00420358567
-0.00187976838
0.00440067278
-0.00199117827
0.00456785218
-0.0020937075
0.00470737546
-0.00218533016
0.00482174049
-0.00227148868
0.00491735018
-0.00234581616
0.00499652122
-0.00242267959
0.00506246482
-0.00250650449
0.00512012183
-0.00259459697
0.00517487167
-0.00268570092
0.00523297631
-0.00277500778
0.00530344391
-0.00286036907
0.00537159769
-0.00293138941
0.00543963439
-0.00301248791
0.00550936401
-0.00310349924
0.00558326695
-0.00319949389
0.00565744468
-0.00329548019
0.00573694376
-0.00340635349
0.00581867431
-0.00351561148
0.0059040828
-0.00363141125
-0.00374408522
0.00599060763
-3.25589753e-08
6.81444176e-07
-1.18830246e-07
2.00207816e-06
-2.48186729e-07
3.32106774e-06
-4.08809407e-07
4.64034084e-06
-5.87388592e-07
5.96165526e-06
-7.68714266e-07
7.28556511e-06
-9.35259679e-07
8.61083454e-06
-1.06673071e-06
9.9341099e-06
-1.13959207e-06
1.12497638e-05
-1.1264521e-06
1.25495688e-05
-9.95846943e-07
1.38227856e-05
-7.11438054e-07
1.50559355e-05
-2.31332256e-07
1.6232479e-05
4.92511075e-07
1.73330428e-05
1.51524108e-06
1.83348232e-05
2.90033466e-06
1.92112287e-05
4.71991045e-06
1.9931798e-05
7.05692436e-06
2.04608059e-05
1.00063261e-05
2.07576225e-05
1.36766794e-05
2.07753025e-05
1.81920179e-05
2.04599503e-05
2.36938544e-05
1.97503827e-05
3.03423688e-05
1.85770502e-05
3.83198437e-05
1.68597194e-05
4.78363702e-05
1.45037452e-05
5.91327209e-05
1.14018074e-05
7.24035864e-05
7.51214553e-06
8.80154295e-05
2.55652668e-06
0.00010631605
-3.56033145e-06
0.000127695991
-1.09106344e-05
0.000152597303
-1.98831561e-05
0.00018151492
-3.06251212e-05
0.000215120366
-4.33761493e-05
0.000253909044
-5.84265795e-05
0.00029852877
-7.6087671e-05
0.000349711784
-9.67019029e-05
0.00040823901
-0.000120645066
0.000474942922
-0.000148318009
0.000550697808
-0.00018014605
0.000636401076
-0.00021657293
0.000732950023
-0.000258046359
0.000841212181
-0.000305011128
0.000961987679
-0.000357893499
0.001095971
-0.000417082565
0.00124369829
-0.000482908688
0.00140548978
-0.00055562105
0.00158139485
-0.000635371263
0.00177115279
-0.000722209886
0.00197415859
-0.000816067841
0.002189269
-0.000916649471
0.00241467632
-0.00102326907
0.00264778415
-0.00113494768
0.00288529864
-0.00125035599
0.0031233942
-0.00136802053
0.00335753302
-0.00148593436
0.00358305229
-0.0016024064
0.00379543705
-0.00171592705
0.00399045527
-0.00182530974
0.00415836275
-0.00192582761
0.0042976787
-0.00201908584
0.00441193488
-0.00210543614
0.00450973707
-0.00219151098
0.00459890802
-0.00227450181
0.00468134721
-0.00235392868
0.00475766177
-0.00242213128
0.00481788656
-0.00248290471
0.00486546281
-0.00255408064
0.00490414755
-0.00263328125
0.00493642444
-0.00271797663
0.00496793766
-0.00280651909
0.00500994197
-0.00290237026
0.00506869825
-0.00299013991
0.00513702226
-0.0030808053
0.00520688547
-0.00317335588
0.00528299349
-0.00327559227
0.00536954662
-0.00338202189
0.00546290055
-0.00349969405
0.00556488322
-0.00361757891
0.00566927484
-0.00373578486
-0.0038537863
0.00577899393
-2.3588202e-08
7.05022706e-07
-7.97081288e-08
2.05818456e-06
-1.53436079e-07
3.39477994e-06
-2.2807375e-07
4.71496013e-06
-2.84705567e-07
6.01826555e-06
-3.01666708e-07
7.30250087e-06
-2.5401966e-07
8.56315743e-06
-1.12987722e-07
9.79304219e-06
1.54685e-07
1.09820485e-05
5.87268996e-07
1.2116934e-05
1.22868944e-06
1.31813049e-05
2.12929328e-06
1.41552602e-05
3.34656123e-06
1.50151268e-05
4.94637675e-06
1.57331283e-05
7.00366316e-06
1.62774212e-05
9.60455676e-06
1.66102008e-05
1.28473293e-05
1.66888701e-05
1.6844136e-05
1.64638201e-05
2.17228113e-05
1.58787423e-05
2.76282158e-05
1.48696645e-05
3.47262012e-05
1.33617003e-05
4.32076728e-05
1.1268613e-05
5.32558271e-05
8.528561e-06
6.50992612e-05
5.01591014e-06
7.90479038e-05
5.54688816e-07
9.54005196e-05
-4.95126257e-06
0.000114500469
-1.15883056e-05
0.000136737517
-1.96810748e-05
0.000162543234
-2.93666524e-05
0.000192494616
-4.08626735e-05
0.000227035292
-5.4424541e-05
0.000266738439
-7.03290324e-05
0.000312242991
-8.88815196e-05
0.000364231759
-0.000110416222
0.000423433288
-0.000135290128
0.000490613065
-0.000163882661
0.000566558255
-0.000196591281
0.000652058931
-0.000233819754
0.000747883878
-0.000275972101
0.000854749419
-0.000323439611
0.000973286925
-0.00037658503
0.00110399826
-0.000435723657
0.00124720464
-0.000501101094
0.00140298952
-0.000572868684
0.0015711384
-0.000651058827
0.00175108461
-0.000735568579
0.00194189451
-0.000826182488
0.00214217604
-0.000922492744
0.00234998978
-0.00102388282
0.00256283362
-0.00112949449
0.00277760087
-0.00123803741
0.00299085048
-0.00134819833
0.00319842777
-0.00145793421
0.00339611537
-0.00156570902
0.00358017372
-0.00166999349
0.00374761419
-0.00176984759
0.00389369819
-0.00186201157
0.00401614095
-0.0019477529
0.00411162771
-0.00202131465
0.00418881705
-0.00209627544
0.00425864216
-0.00217526135
0.00432164382
-0.00225451262
0.00438120619
-0.00233406389
0.00444081238
-0.00241353452
0.0045058723
-0.00248719056
0.00456994417
-0.00254697571
0.00462631843
-0.00261045361
0.00467571522
-0.0026826763
0.00472075535
-0.00276301472
0.00476158409
-0.00284734531
0.00479571127
-0.00293649279
0.00483613832
-0.00303056135
0.0048844133
-0.0031290743
0.00494070759
-0.00322964229
0.00500579971
-0.00334067357
0.00508383074
-0.00346004032
0.00517257776
-0.0035884267
0.00527678021
-0.00372176455
0.00539051471
-0.00384949943
-0.00396958011
0.00550632557
-8.28350934e-09
7.13240367e-07
-1.43989671e-08
2.06420845e-06
2.21498818e-09
3.37806184e-06
6.47008934e-08
4.65235825e-06
1.99346831e-07
5.88349227e-06
4.36186931e-07
7.06552214e-06
8.09623515e-07
8.18957058e-06
1.35909678e-06
9.24340635e-06
2.12978219e-06
1.02111873e-05
3.17333268e-06
1.10731935e-05
4.54889435e-06
1.18055376e-05
6.32399746e-06
1.23799344e-05
8.57529338e-06
1.27635897e-05
1.13909541e-05
1.29172062e-05
1.48712527e-05
1.27968387e-05
1.91302651e-05
1.23508797e-05
2.42977041e-05
1.15210956e-05
3.05209934e-05
1.02401659e-05
3.79661738e-05
8.43316459e-06
4.67958054e-05
6.03959905e-06
5.72436511e-05
2.91338436e-06
6.95488713e-05
-1.03711361e-06
8.39810454e-05
-5.90416275e-06
0.000100847254
-1.18509007e-05
0.000120487377
-1.90860902e-05
0.000143276092
-2.77406901e-05
0.00016970519
-3.80181756e-05
0.000200169276
-5.01459975e-05
0.000235171467
-6.43697473e-05
0.000275267148
-8.09593297e-05
0.000321051796
-0.000100210237
0.000373161075
-0.00012243944
0.000432262931
-0.000147984579
0.000499046291
-0.000177200861
0.000574206489
-0.000210451676
0.000658425966
-0.000248103559
0.000752348969
-0.000290515766
0.000856554958
-0.000338027286
0.00097152247
-0.000390941203
0.00109758733
-0.000449506111
0.0012348957
-0.000513895061
0.00138335278
-0.000584182427
0.00154256981
-0.000660319828
0.00171181283
-0.000742113429
0.00188996211
-0.000829209839
0.00207551519
-0.000921123362
0.00226648011
-0.00101714898
0.00246033403
-0.00111634811
0.00265405476
-0.00121760481
0.00284464706
-0.00132008794
0.00302885532
-0.00142224664
0.00320493466
-0.00152427854
0.00336808016
-0.00162108041
0.00351481103
-0.00171244046
0.00364236301
-0.00179754585
0.00375042408
-0.0018779089
0.00383894065
-0.00195052823
0.00391014395
-0.00201895629
0.00397243381
-0.00208360443
0.00402383982
-0.00214768129
0.00406564275
-0.00221706402
0.00410238868
-0.00229125823
0.00413465507
-0.00236632966
0.00416560508
-0.00244448373
0.00420171987
-0.00252330406
0.00425083023
-0.00259608418
0.0043083335
-0.00266795433
0.00436509071
-0.00273943029
0.00442049472
-0.00281841441
0.00447768868
-0.00290453349
0.00453655189
-0.00299534957
0.00459505457
-0.00308905762
0.00465675743
-0.00319076868
0.00472275798
-0.00329563269
0.00479172831
-0.00340963192
0.00486664133
-0.00353493957
0.00494341175
-0.00366518137
0.00502584309
-0.00380417911
0.00511298005
-0.00393662091
-0.00405491981
0.00519833694
1.38951628e-08
6.99334028e-07
7.92623822e-08
1.9988237e-06
2.23832173e-07
3.23347041e-06
4.78857464e-07
4.3973072e-06
8.79770071e-07
5.48254959e-06
1.46689916e-06
6.47835819e-06
2.28627118e-06
7.37015826e-06
3.39044207e-06
8.13918882e-06
4.83941034e-06
8.76216502e-06
6.7014922e-06
9.21104899e-06
9.05462105e-06
9.45233629e-06
1.19875351e-05
9.44693647e-06
1.56011248e-05
9.1499028e-06
2.00098459e-05
8.50837283e-06
2.53440133e-05
7.46254236e-06
3.17507263e-05
5.94401852e-06
3.93791307e-05
3.89252167e-06
4.84292765e-05
1.18982772e-06
5.91115689e-05
-2.24934485e-06
7.16620817e-05
-6.51115988e-06
8.63459135e-05
-1.17707249e-05
0.00010345485
-1.81463615e-05
0.000123346826
-2.57964848e-05
0.00014639439
-3.4898851e-05
0.000172958189
-4.56503157e-05
0.000203484577
-5.82675481e-05
0.000238455257
-7.2989369e-05
0.000278385413
-9.00767145e-05
0.000323825358
-0.0001098103
0.000375355014
-0.000132489642
0.000433575303
-0.000158431225
0.000499096347
-0.000187961225
0.000572522345
-0.000221411357
0.000654431347
-0.000259110678
0.000745354035
-0.000301375204
0.000845744818
-0.000348495202
0.000955948233
-0.00040072005
0.00107616096
-0.000458240887
0.0012063901
-0.000521171199
0.0013464097
-0.000589526553
0.00149571762
-0.00066320378
0.00165349588
-0.00074196144
0.00181857979
-0.000825404434
0.00198944395
-0.000912978218
0.00216423765
-0.00100400408
0.00234075029
-0.00109763642
0.00251639812
-0.0011927971
0.0026883021
-0.00128825224
0.00285352156
-0.00138282428
0.00300944086
-0.00147600713
0.00315456986
-0.00156737538
0.00328295655
-0.00165266485
0.00339372246
-0.00173184577
0.00348724721
-0.00180596455
0.00356599422
-0.00187629206
0.00363183247
-0.00194374606