/*--------------------------------*- C++ -*----------------------------------*\
  =========                 |
  \\      /  F ield         | OpenFOAM: The Open Source CFD Toolbox
   \\    /   O peration     | Website:  https://openfoam.org
    \\  /    A nd           | Version:  8
     \\/     M anipulation  |
\*---------------------------------------------------------------------------*/
FoamFile
{
    version     2.0;
    format      ascii;
    class       volScalarField;
    location    "0.056";
    object      p;
}
// * * * * * * * * * * * * * * * * * * * * * * * * * * * * * * * * * * * * * //

dimensions      [1 -1 -2 0 0 0 0];

internalField   nonuniform List<scalar> 
42400
(
101478.22
101478.208
101478.194
101478.179
101478.163
101478.146
101478.127
101478.107
101478.086
101478.063
101478.039
101478.013
101477.986
101477.958
101477.928
101477.896
101477.862
101477.826
101477.789
101477.749
101477.707
101477.663
101477.616
101477.566
101477.514
101477.458
101477.399
101477.337
101477.271
101477.202
101477.128
101477.05
101476.968
101476.882
101476.79
101476.695
101476.602
101476.51
101476.416
101476.302
101476.167
101476.025
101475.889
101475.761
101475.629
101475.494
101475.356
101475.215
101475.071
101474.923
101474.77
101474.626
101474.486
101474.352
101474.201
101474.033
101473.885
101473.748
101473.614
101473.476
101473.339
101473.203
101473.07
101472.943
101472.832
101472.743
101472.643
101472.506
101472.46
101472.263
101471.925
101472.258
101472.663
101470.562
101469.812
101471.645
101472.587
101475.065
101477.947
101479.928
101477.998
101477.99
101477.979
101477.967
101477.954
101477.94
101477.924
101477.907
101477.889
101477.87
101477.849
101477.827
101477.803
101477.778
101477.752
101477.723
101477.693
101477.662
101477.628
101477.593
101477.556
101477.516
101477.474
101477.429
101477.382
101477.332
101477.28
101477.224
101477.165
101477.102
101477.037
101476.968
101476.893
101476.816
101476.741
101476.669
101476.587
101476.485
101476.371
101476.262
101476.16
101476.054
101475.945
101475.833
101475.717
101475.598
101475.473
101475.353
101475.244
101475.14
101475.017
101474.878
101474.755
101474.646
101474.543
101474.439
101474.339
101474.246
101474.16
101474.085
101474.03
101474.001
101473.998
101474.019
101474.058
101474.158
101474.315
101474.46
101474.793
101475.197
101475.337
101475.983
101477.303
101477.575
101478.126
101480.735
101484.404
101489.598
101491.189
101492.436
101477.939
101477.933
101477.925
101477.916
101477.906
101477.894
101477.882
101477.868
101477.853
101477.837
101477.819
101477.801
101477.781
101477.76
101477.737
101477.713
101477.688
101477.661
101477.633
101477.603
101477.571
101477.537
101477.501
101477.464
101477.424
101477.381
101477.337
101477.29
101477.239
101477.186
101477.132
101477.077
101477.023
101476.966
101476.897
101476.813
101476.724
101476.641
101476.561
101476.479
101476.394
101476.306
101476.215
101476.117
101476.026
101475.951
101475.873
101475.757
101475.638
101475.545
101475.464
101475.381
101475.302
101475.227
101475.158
101475.099
101475.056
101475.036
101475.042
101475.072
101475.134
101475.237
101475.383
101475.588
101475.84
101476.219
101476.719
101477.274
101477.943
101478.871
101479.783
101480.372
101482.024
101485.677
101489.328
101491.681
101493.284
101495.059
101497.321
101499.885
101478.044
101478.04
101478.034
101478.027
101478.018
101478.009
101477.999
101477.988
101477.976
101477.962
101477.948
101477.933
101477.917
101477.9
101477.881
101477.862
101477.842
101477.82
101477.798
101477.774
101477.749
101477.722
101477.694
101477.665
101477.634
101477.601
101477.566
101477.53
101477.493
101477.455
101477.413
101477.363
101477.309
101477.252
101477.197
101477.143
101477.087
101477.027
101476.965
101476.9
101476.828
101476.764
101476.712
101476.643
101476.554
101476.477
101476.412
101476.351
101476.285
101476.22
101476.161
101476.108
101476.067
101476.044
101476.043
101476.062
101476.106
101476.18
101476.3
101476.471
101476.695
101476.99
101477.366
101477.839
101478.357
101479.046
101479.862
101480.901
101481.799
101482.879
101485.146
101489.025
101491.315
101492.155
101493.76
101496.053
101498.076
101499.824
101501.662
101503.704
101478.303
101478.299
101478.294
101478.288
101478.281
101478.273
101478.264
101478.254
101478.244
101478.233
101478.222
101478.21
101478.197
101478.184
101478.17
101478.156
101478.141
101478.125
101478.109
101478.092
101478.074
101478.055
101478.034
101478.013
101477.99
101477.968
101477.945
101477.919
101477.892
101477.862
101477.831
101477.8
101477.768
101477.734
101477.698
101477.66
101477.618
101477.571
101477.529
101477.5
101477.454
101477.39
101477.338
101477.296
101477.251
101477.204
101477.159
101477.118
101477.082
101477.059
101477.051
101477.057
101477.082
101477.13
101477.211
101477.332
101477.505
101477.734
101478.027
101478.394
101478.851
101479.4
101480.067
101480.854
101481.709
101482.687
101483.581
101484.951
101488.265
101491.28
101492.241
101492.9
101495.058
101497.243
101498.769
101500.568
101502.44
101504.707
101507.625
101510.228
101478.688
101478.683
101478.677
101478.671
101478.665
101478.657
101478.65
101478.642
101478.633
101478.624
101478.615
101478.606
101478.597
101478.587
101478.578
101478.568
101478.559
101478.549
101478.538
101478.527
101478.515
101478.504
101478.496
101478.486
101478.476
101478.465
101478.453
101478.441
101478.427
101478.413
101478.397
101478.379
101478.361
101478.341
101478.315
101478.293
101478.286
101478.266
101478.226
101478.193
101478.17
101478.145
101478.119
101478.093
101478.071
101478.056
101478.047
101478.049
101478.062
101478.091
101478.143
101478.224
101478.343
101478.503
101478.72
101478.996
101479.342
101479.772
101480.302
101480.926
101481.66
101482.491
101483.462
101484.51
101485.676
101487.449
101490.834
101492.791
101493.191
101494.424
101496.454
101497.976
101499.663
101501.73
101503.848
101506.059
101508.293
101510.607
101513.22
101515.394
101479.156
101479.151
101479.145
101479.138
101479.132
101479.125
101479.118
101479.112
101479.105
101479.098
101479.092
101479.086
101479.08
101479.075
101479.071
101479.065
101479.06
101479.056
101479.054
101479.054
101479.053
101479.053
101479.052
101479.051
101479.05
101479.05
101479.049
101479.048
101479.047
101479.046
101479.044
101479.038
101479.033
101479.041
101479.048
101479.03
101479.011
101479.009
101479.006
101479.001
101478.996
101478.994
101478.995
101479.001
101479.015
101479.039
101479.077
101479.135
101479.217
101479.33
101479.481
101479.676
101479.928
101480.243
101480.633
101481.11
101481.687
101482.366
101483.161
101484.08
101485.113
101486.25
101487.513
101489.742
101492.403
101493.484
101494.033
101495.659
101497.441
101499.024
101500.939
101502.838
101504.932
101507.02
101509.184
101511.356
101513.513
101515.621
101518.268
101520.678
101479.662
101479.656
101479.649
101479.643
101479.637
101479.631
101479.626
101479.621
101479.616
101479.612
101479.609
101479.607
101479.605
101479.605
101479.605
101479.607
101479.611
101479.616
101479.62
101479.626
101479.633
101479.64
101479.649
101479.658
101479.668
101479.679
101479.69
101479.702
101479.712
101479.721
101479.743
101479.768
101479.772
101479.774
101479.79
101479.808
101479.821
101479.835
101479.851
101479.871
101479.895
101479.926
101479.965
101480.017
101480.085
101480.173
101480.287
101480.431
101480.614
101480.843
101481.127
101481.476
101481.899
101482.408
101483.016
101483.727
101484.543
101485.47
101486.499
101487.647
101488.993
101491.179
101493.356
101494.252
101495.136
101497.027
101498.587
101500.033
101501.977
101504.038
101505.925
101507.94
101510.062
101512.08
101514.109
101516.198
101518.535
101520.653
101523.08
101526.015
101480.15
101480.144
101480.139
101480.133
101480.129
101480.125
101480.122
101480.12
101480.119
101480.119
101480.121
101480.124
101480.128
101480.133
101480.14
101480.149
101480.159
101480.171
101480.184
101480.199
101480.216
101480.234
101480.253
101480.274
101480.296
101480.317
101480.339
101480.372
101480.41
101480.43
101480.448
101480.481
101480.515
101480.547
101480.581
101480.616
101480.655
101480.699
101480.748
101480.806
101480.874
101480.956
101481.055
101481.176
101481.324
101481.505
101481.725
101481.992
101482.313
101482.697
101483.152
101483.69
101484.32
101485.044
101485.868
101486.793
101487.818
101488.92
101490.194
101492.284
101494.351
101495.217
101496.225
101498.067
101499.744
101501.379
101503.067
101505.01
101506.904
101508.75
101510.672
101512.657
101514.772
101516.957
101518.99
101521.561
101524.507
101527.617
101530.441
101532.238
101480.567
101480.563
101480.559
101480.556
101480.554
101480.554
101480.555
101480.557
101480.562
101480.568
101480.575
101480.584
101480.596
101480.609
101480.624
101480.642
101480.661
101480.683
101480.707
101480.733
101480.761
101480.792
101480.822
101480.854
101480.897
101480.944
101480.978
101481.012
101481.057
101481.106
101481.154
101481.204
101481.256
101481.313
101481.374
101481.441
101481.515
101481.599
101481.696
101481.808
101481.939
101482.095
101482.279
101482.497
101482.758
101483.066
101483.43
101483.858
101484.358
101484.94
101485.613
101486.38
101487.245
101488.197
101489.246
101490.361
101491.684
101493.56
101495.312
101496.484
101497.639
101499.258
101500.872
101502.402
101504.08
101505.908
101507.709
101509.539
101511.346
101513.24
101515.239
101517.179
101519.38
101522
101524.504
101526.868
101528.854
101530.936
101533.152
101536.096
101480.859
101480.858
101480.857
101480.858
101480.861
101480.866
101480.873
101480.881
101480.892
101480.905
101480.92
101480.938
101480.959
101480.982
101481.008
101481.036
101481.068
101481.102
101481.139
101481.177
101481.219
101481.271
101481.322
101481.367
101481.415
101481.473
101481.534
101481.595
101481.658
101481.726
101481.797
101481.873
101481.955
101482.044
101482.141
101482.25
101482.373
101482.512
101482.673
101482.858
101483.075
101483.327
101483.623
101483.968
101484.37
101484.836
101485.373
101485.991
101486.702
101487.51
101488.414
101489.417
101490.522
101491.713
101493.1
101494.764
101496.238
101497.328
101498.638
101500.094
101501.485
101503.097
101504.724
101506.541
101508.379
101510.202
101512.06
101513.93
101515.854
101517.817
101519.79
101521.82
101523.848
101526.252
101529.108
101530.947
101532.849
101535.764
101538.558
101540.056
101480.961
101480.964
101480.969
101480.976
101480.985
101480.996
101481.01
101481.027
101481.046
101481.069
101481.095
101481.124
101481.156
101481.191
101481.23
101481.272
101481.316
101481.366
101481.423
101481.478
101481.534
101481.596
101481.664
101481.735
101481.807
101481.883
101481.963
101482.047
101482.136
101482.231
101482.332
101482.441
101482.56
101482.691
101482.837
101483.001
101483.187
101483.399
101483.642
101483.922
101484.245
101484.618
101485.047
101485.541
101486.104
101486.746
101487.475
101488.3
101489.221
101490.24
101491.349
101492.544
101493.786
101495.135
101496.484
101497.76
101499.205
101500.774
101502.314
101503.794
101505.376
101506.982
101508.699
101510.594
101512.464
101514.3
101516.215
101518.193
101520.153
101522.173
101524.585
101527.099
101529.411
101531.503
101533.1
101535.479
101538.065
101539.618
101541.169
101543.032
101480.804
101480.813
101480.824
101480.839
101480.856
101480.876
101480.9
101480.926
101480.957
101480.992
101481.03
101481.071
101481.117
101481.167
101481.221
101481.282
101481.345
101481.408
101481.478
101481.554
101481.633
101481.715
101481.802
101481.894
101481.99
101482.091
101482.197
101482.31
101482.431
101482.56
101482.7
101482.853
101483.022
101483.21
101483.42
101483.656
101483.925
101484.23
101484.579
101484.976
101485.429
101485.943
101486.525
101487.18
101487.911
101488.723
101489.623
101490.606
101491.671
101492.818
101494.057
101495.359
101496.758
101498.229
101499.736
101501.279
101502.8
101504.31
101505.85
101507.363
101508.881
101510.656
101512.722
101514.878
101517.206
101519.144
101520.924
101523.047
101525.082
101527.066
101529.315
101531.67
101533.649
101535.223
101537.504
101539.951
101541.703
101543.543
101545.852
101548.459
101480.305
101480.321
101480.342
101480.366
101480.393
101480.424
101480.46
101480.499
101480.543
101480.591
101480.644
101480.701
101480.766
101480.833
101480.902
101480.979
101481.061
101481.147
101481.238
101481.334
101481.435
101481.541
101481.652
101481.77
101481.894
101482.025
101482.165
101482.316
101482.478
101482.654
101482.847
101483.06
101483.297
101483.562
101483.86
101484.196
101484.576
101485.006
101485.492
101486.039
101486.655
101487.343
101488.109
101488.954
101489.877
101490.864
101491.937
101493.067
101494.189
101495.356
101496.881
101498.661
101500.258
101501.82
101503.413
101505.113
101506.87
101508.617
101510.575
101512.648
101514.386
101515.958
101517.677
101519.428
101520.693
101522.478
101525.118
101526.85
101528.477
101530.747
101532.987
101535.012
101537.201
101539.125
101540.621
101542.709
101545.468
101547.687
101549.739
101552.274
101479.386
101479.412
101479.445
101479.481
101479.52
101479.565
101479.614
101479.668
101479.727
101479.792
101479.862
101479.936
101480.016
101480.103
101480.194
101480.291
101480.393
101480.501
101480.615
101480.735
101480.862
101480.996
101481.137
101481.287
101481.447
101481.619
101481.804
101482.005
101482.224
101482.465
101482.732
101483.029
101483.36
101483.731
101484.147
101484.614
101485.138
101485.723
101486.374
101487.095
101487.891
101488.763
101489.713
101490.748
101491.859
101493.022
101494.345
101496.135
101498.36
101500.599
101502.068
101503.326
101504.689
101505.939
101507.173
101508.552
101510.039
101511.49
101513.276
101515.07
101517.235
101519.387
101520.955
101522.611
101524.606
101526.808
101528.697
101530.689
101532.798
101534.829
101536.278
101538.148
101540.955
101543.717
101546.1
101547.718
101549.465
101551.774
101553.697
101555.725
101477.964
101478.001
101478.047
101478.097
101478.151
101478.21
101478.275
101478.345
101478.421
101478.503
101478.59
101478.684
101478.784
101478.889
101479.001
101479.12
101479.245
101479.377
101479.516
101479.664
101479.82
101479.987
101480.165
101480.356
101480.562
101480.786
101481.031
101481.3
101481.598
101481.928
101482.296
101482.707
101483.167
101483.681
101484.256
101484.896
101485.606
101486.39
101487.25
101488.187
101489.201
101490.288
101491.425
101492.618
101494.209
101496.305
101497.931
101498.986
101500.018
101501.152
101502.379
101503.968
101505.797
101507.381
101508.839
101510.779
101512.811
101514.637
101516.437
101518.495
101520.855
101522.88
101524.844
101526.929
101528.737
101530.212
101531.797
101534.067
101536.499
101538.412
101540.989
101543.531
101545.393
101547.247
101549.152
101551.279
101553.473
101555.648
101558.127
101560.101
101475.994
101476.045
101476.106
101476.171
101476.241
101476.316
101476.397
101476.484
101476.577
101476.676
101476.781
101476.892
101477.011
101477.136
101477.268
101477.408
101477.555
101477.712
101477.878
101478.055
101478.245
101478.449
101478.669
101478.908
101479.17
101479.458
101479.776
101480.129
101480.522
101480.96
101481.449
101481.996
101482.604
101483.28
101484.027
101484.85
101485.75
101486.728
101487.785
101488.917
101490.12
101491.391
101492.707
101494.027
101495.434
101496.682
101497.942
101499.693
101501.745
101503.846
101505.928
101507.365
101508.392
101509.997
101512.567
101514.138
101515.671
101518.017
101519.984
101521.612
101523.386
101525.309
101527.192
101529.092
101531.209
101533.212
101535.438
101538.037
101540.495
101542.879
101545.031
101546.88
101549.042
101551.354
101553.345
101555.537
101557.963
101560.389
101562.526
101565.125
101473.447
101473.513
101473.592
101473.673
101473.758
101473.85
101473.947
101474.05
101474.159
101474.274
101474.397
101474.525
101474.662
101474.805
101474.957
101475.118
101475.29
101475.472
101475.668
101475.879
101476.107
101476.355
101476.627
101476.927
101477.258
101477.625
101478.035
101478.492
101479.002
101479.571
101480.204
101480.908
101481.686
101482.543
101483.482
101484.505
101485.613
101486.807
101488.087
101489.45
101490.894
101492.415
101494.109
101495.979
101497.424
101498.987
101500.925
101502.456
101503.828
101505.247
101506.753
101508.674
101510.817
101512.529
101514.14
101516.128
101518.091
101519.521
101520.787
101522.783
101525.568
101528.09
101530.75
101533.337
101535.935
101538.872
101540.997
101542.718
101544.572
101546.415
101548.151
101550.032
101552.52
101555.312
101557.656
101559.195
101561.284
101563.414
101564.831
101566.832
101470.402
101470.484
101470.58
101470.678
101470.78
101470.888
101471.001
101471.12
101471.246
101471.378
101471.517
101471.664
101471.819
101471.983
101472.158
101472.345
101472.546
101472.762
101472.998
101473.254
101473.536
101473.846
101474.191
101474.574
101475
101475.477
101476.009
101476.602
101477.261
101477.992
101478.799
101479.684
101480.65
101481.697
101482.824
101484.028
101485.306
101486.652
101488.061
101489.529
101491.048
101492.575
101494.12
101495.795
101497.365
101498.876
101500.558
101502.256
101503.835
101505.725
101508.158
101510.689
101512.471
101514.381
101517.058
101519.683
101522.003
101524.085
101526.269
101528.847
101531.002
101532.73
101534.561
101536.515
101538.398
101540.274
101542.198
101544.418
101546.76
101549.068
101551.623
101554.514
101557.204
101559.222
101560.467
101562.218
101564.723
101567.165
101569.399
101571.2
101466.956
101467.054
101467.169
101467.284
101467.402
101467.525
101467.655
101467.79
101467.933
101468.083
101468.241
101468.408
101468.586
101468.777
101468.982
101469.203
101469.445
101469.709
101469.999
101470.32
101470.677
101471.074
101471.517
101472.013
101472.566
101473.183
101473.868
101474.628
101475.466
101476.385
101477.386
101478.47
101479.637
101480.881
101482.196
101483.57
101485.019
101486.501
101487.96
101489.396
101490.923
101492.715
101494.673
101496.781
101499.151
101501.608
101504.066
101506.629
101509.399
101511.804
101513.145
101514.14
101516.205
101518.985
101520.952
101522.85
101524.763
101526.786
101528.971
101530.446
101532.292
101534.847
101536.848
101539.025
101541.007
101542.999
101545.325
101547.598
101549.862
101552.437
101555.675
101558.017
101560.237
101562.681
101564.839
101567.351
101570.128
101572.129
101573.674
101575.404
101505.363
101505.369
101505.376
101505.382
101505.389
101505.396
101505.403
101505.41
101505.417
101505.424
101505.431
101505.439
101505.446
101505.453
101505.461
101505.468
101505.476
101505.484
101505.491
101505.499
101505.506
101505.514
101505.521
101505.528
101505.536
101505.542
101505.549
101505.556
101505.562
101505.567
101505.573
101505.577
101505.581
101505.585
101505.587
101505.589
101505.589
101505.588
101505.586
101505.583
101505.577
101505.57
101505.561
101505.549
101505.535
101505.518
101505.498
101505.474
101505.446
101505.414
101505.376
101505.334
101505.287
101505.232
101505.161
101505.082
101505.003
101504.911
101504.808
101504.692
101504.56
101504.413
101504.248
101504.062
101503.852
101503.61
101503.328
101502.988
101502.584
101502.094
101501.507
101500.893
101500.259
101499.528
101498.633
101497.366
101495.779
101493.934
101491.8
101489.684
101503.931
101503.936
101503.942
101503.948
101503.955
101503.961
101503.968
101503.975
101503.983
101503.99
101503.998
101504.006
101504.014
101504.023
101504.031
101504.04
101504.049
101504.059
101504.069
101504.079
101504.089
101504.099
101504.11
101504.121
101504.132
101504.143
101504.154
101504.166
101504.177
101504.189
101504.201
101504.212
101504.224
101504.236
101504.247
101504.259
101504.27
101504.281
101504.292
101504.302
101504.311
101504.32
101504.328
101504.335
101504.341
101504.345
101504.347
101504.347
101504.345
101504.341
101504.335
101504.324
101504.308
101504.288
101504.265
101504.238
101504.204
101504.163
101504.114
101504.054
101503.984
101503.902
101503.805
101503.691
101503.556
101503.395
101503.2
101502.963
101502.671
101502.318
101501.903
101501.403
101500.708
101499.789
101498.789
101497.59
101495.888
101493.884
101492.13
101490.643
101502.465
101502.47
101502.475
101502.481
101502.487
101502.493
101502.5
101502.507
101502.514
101502.522
101502.53
101502.539
101502.548
101502.558
101502.568
101502.578
101502.589
101502.601
101502.613
101502.625
101502.638
101502.652
101502.666
101502.681
101502.696
101502.712
101502.728
101502.745
101502.763
101502.781
101502.801
101502.82
101502.841
101502.862
101502.884
101502.907
101502.93
101502.955
101502.98
101503.006
101503.033
101503.061
101503.089
101503.118
101503.148
101503.178
101503.209
101503.24
101503.272
101503.304
101503.338
101503.371
101503.405
101503.439
101503.472
101503.505
101503.536
101503.565
101503.592
101503.614
101503.63
101503.637
101503.633
101503.613
101503.571
101503.499
101503.389
101503.233
101503.026
101502.768
101502.442
101501.869
101501.226
101500.486
101499.209
101497.339
101495.75
101494.092
101492.027
101490.433
101500.961
101500.965
101500.969
101500.974
101500.979
101500.985
101500.992
101500.999
101501.006
101501.014
101501.023
101501.032
101501.042
101501.052
101501.063
101501.075
101501.088
101501.101
101501.115
101501.129
101501.145
101501.161
101501.178
101501.197
101501.216
101501.236
101501.257
101501.279
101501.302
101501.327
101501.352
101501.379
101501.408
101501.437
101501.469
101501.502
101501.537
101501.573
101501.611
101501.651
101501.693
101501.738
101501.784
101501.833
101501.884
101501.94
101502
101502.063
101502.127
101502.195
101502.266
101502.341
101502.418
101502.499
101502.583
101502.669
101502.758
101502.849
101502.94
101503.029
101503.115
101503.193
101503.258
101503.305
101503.327
101503.318
101503.27
101503.182
101503.054
101502.882
101502.485
101502.113
101501.559
101500.095
101498.753
101497.687
101496.161
101494.575
101492.999
101491.236
101499.39
101499.393
101499.396
101499.4
101499.405
101499.41
101499.416
101499.423
101499.43
101499.438
101499.446
101499.455
101499.465
101499.476
101499.488
101499.5
101499.513
101499.527
101499.542
101499.558
101499.575
101499.593
101499.613
101499.633
101499.654
101499.677
101499.701
101499.727
101499.754
101499.782
101499.813
101499.845
101499.879
101499.915
101499.953
101499.993
101500.035
101500.081
101500.129
101500.18
101500.234
101500.292
101500.355
101500.421
101500.492
101500.567
101500.647
101500.732
101500.823
101500.919
101501.021
101501.128
101501.242
101501.361
101501.486
101501.618
101501.756
101501.898
101502.043
101502.188
101502.33
101502.463
101502.58
101502.672
101502.728
101502.733
101502.672
101502.524
101502.259
101501.742
101501.079
101500.565
101500.247
101499.535
101498.332
101497.138
101495.936
101494.78
101493.667
101491.896
101497.751
101497.753
101497.756
101497.759
101497.763
101497.767
101497.772
101497.778
101497.784
101497.792
101497.799
101497.808
101497.818
101497.828
101497.839
101497.851
101497.864
101497.878
101497.893
101497.909
101497.926
101497.944
101497.963
101497.984
101498.006
101498.03
101498.055
101498.081
101498.109
101498.139
101498.171
101498.205
101498.241
101498.28
101498.321
101498.365
101498.412
101498.461
101498.514
101498.572
101498.633
101498.698
101498.768
101498.844
101498.924
101499.011
101499.103
101499.201
101499.306
101499.418
101499.537
101499.663
101499.796
101499.937
101500.084
101500.239
101500.401
101500.569
101500.74
101500.913
101501.083
101501.244
101501.389
101501.507
101501.584
101501.603
101501.543
101501.375
101501.061
101500.553
101499.871
101499.042
101498.192
101497.365
101496.41
101495.37
101494.274
101493.203
101491.933
101490.124
101496.034
101496.035
101496.037
101496.039
101496.042
101496.045
101496.049
101496.054
101496.059
101496.065
101496.071
101496.079
101496.087
101496.095
101496.105
101496.116
101496.127
101496.139
101496.152
101496.166
101496.182
101496.198
101496.215
101496.234
101496.254
101496.275
101496.298
101496.322
101496.348
101496.377
101496.407
101496.439
101496.472
101496.508
101496.546
101496.587
101496.632
101496.68
101496.732
101496.787
101496.847
101496.911
101496.979
101497.053
101497.132
101497.217
101497.308
101497.405
101497.509
101497.621
101497.739
101497.865
101497.998
101498.138
101498.285
101498.438
101498.596
101498.76
101498.926
101499.093
101499.255
101499.406
101499.537
101499.636
101499.685
101499.666
101499.552
101499.315
101498.925
101498.363
101497.633
101496.76
101495.785
101494.729
101493.587
101492.389
101491.173
101489.996
101488.915
101487.282
101494.255
101494.255
101494.256
101494.257
101494.259
101494.26
101494.263
101494.266
101494.269
101494.273
101494.278
101494.283
101494.288
101494.295
101494.301
101494.309
101494.317
101494.326
101494.336
101494.346
101494.358
101494.37
101494.383
101494.397
101494.413
101494.43
101494.448
101494.466
101494.486
101494.506
101494.529
101494.553
101494.58
101494.609
101494.64
101494.673
101494.709
101494.748
101494.789
101494.834
101494.882
101494.934
101494.99
101495.05
101495.115
101495.185
101495.26
101495.341
101495.427
101495.52
101495.618
101495.723
101495.834
101495.95
101496.071
101496.196
101496.322
101496.447
101496.566
101496.675
101496.771
101496.848
101496.894
101496.897
101496.839
101496.701
101496.459
101496.085
101495.551
101494.833
101493.939
101492.906
101491.756
101490.521
101489.224
101487.897
101486.583
101485.341
101484.156
101482.156
101492.427
101492.426
101492.426
101492.426
101492.426
101492.426
101492.427
101492.428
101492.429
101492.431
101492.432
101492.434
101492.437
101492.439
101492.442
101492.446
101492.45
101492.455
101492.459
101492.464
101492.47
101492.476
101492.482
101492.489
101492.496
101492.503
101492.512
101492.522
101492.532
101492.544
101492.556
101492.57
101492.585
101492.601
101492.618
101492.636
101492.657
101492.678
101492.702
101492.728
101492.756
101492.786
101492.819
101492.855
101492.894
101492.936
101492.982
101493.031
101493.082
101493.135
101493.191
101493.25
101493.311
101493.376
101493.444
101493.514
101493.587
101493.659
101493.729
101493.79
101493.826
101493.828
101493.785
101493.68
101493.492
101493.196
101492.759
101492.149
101491.339
101490.338
101489.159
101487.825
101486.365
101484.814
101483.204
101481.541
101479.815
101477.987
101476.003
101473.747
101490.589
101490.588
101490.586
101490.585
101490.583
101490.581
101490.58
101490.578
101490.576
101490.574
101490.572
101490.57
101490.568
101490.567
101490.565
101490.563
101490.56
101490.558
101490.556
101490.554
101490.552
101490.55
101490.547
101490.545
101490.543
101490.541
101490.539
101490.536
101490.534
101490.532
101490.53
101490.527
101490.525
101490.523
101490.521
101490.519
101490.516
101490.514
101490.513
101490.512
101490.511
101490.511
101490.511
101490.512
101490.513
101490.514
101490.517
101490.518
101490.523
101490.531
101490.534
101490.54
101490.543
101490.541
101490.532
101490.513
101490.485
101490.442
101490.381
101490.303
101490.199
101490.054
101489.855
101489.587
101489.228
101488.751
101488.124
101487.304
101486.277
101485.033
101483.575
101481.93
101480.142
101478.255
101476.281
101474.19
101471.85
101469.334
101466.466
101463.705
101488.774
101488.772
101488.769
101488.765
101488.762
101488.758
101488.753
101488.748
101488.743
101488.738
101488.732
101488.725
101488.719
101488.711
101488.704
101488.696
101488.687
101488.678
101488.668
101488.658
101488.647
101488.636
101488.624
101488.611
101488.597
101488.582
101488.566
101488.55
101488.533
101488.514
101488.494
101488.474
101488.451
101488.427
101488.402
101488.376
101488.349
101488.319
101488.288
101488.256
101488.221
101488.185
101488.147
101488.107
101488.066
101488.024
101487.976
101487.913
101487.851
101487.791
101487.72
101487.64
101487.554
101487.462
101487.359
101487.242
101487.106
101486.947
101486.758
101486.528
101486.257
101485.934
101485.543
101485.066
101484.482
101483.768
101482.907
101481.876
101480.612
101479.114
101477.404
101475.512
101473.423
101471.209
101468.792
101465.947
101462.983
101459.854
101456.458
101453.737
101487.03
101487.027
101487.022
101487.017
101487.011
101487.004
101486.997
101486.989
101486.98
101486.97
101486.96
101486.949
101486.937
101486.924
101486.91
101486.895
101486.88
101486.863
101486.845
101486.826
101486.806
101486.784
101486.761
101486.736
101486.71
101486.683
101486.653
101486.621
101486.588
101486.552
101486.514
101486.473
101486.43
101486.384
101486.335
101486.283
101486.228
101486.17
101486.108
101486.042
101485.973
101485.899
101485.817
101485.727
101485.629
101485.519
101485.407
101485.294
101485.173
101485.044
101484.902
101484.747
101484.575
101484.386
101484.18
101483.956
101483.71
101483.437
101483.131
101482.783
101482.384
101481.92
101481.372
101480.722
101479.944
101479.022
101477.959
101476.658
101475.15
101473.483
101471.586
101469.256
101466.691
101463.888
101460.652
101457.614
101454.696
101451.753
101449.037
101446.579
101485.399
101485.394
101485.387
101485.379
101485.371
101485.361
101485.351
101485.339
101485.326
101485.312
101485.297
101485.281
101485.264
101485.245
101485.225
101485.204
101485.181
101485.157
101485.131
101485.104
101485.074
101485.043
101485.009
101484.974
101484.936
101484.895
101484.852
101484.806
101484.757
101484.705
101484.648
101484.589
101484.526
101484.46
101484.389
101484.314
101484.235
101484.148
101484.053
101483.952
101483.842
101483.725
101483.605
101483.481
101483.347
101483.202
101483.046
101482.881
101482.704
101482.515
101482.313
101482.095
101481.861
101481.608
101481.332
101481.028
101480.692
101480.319
101479.904
101479.439
101478.917
101478.323
101477.641
101476.868
101476
101475.006
101473.745
101472.253
101470.639
101468.774
101466.578
101464.302
101462.018
101459.589
101457.137
101454.632
101452.053
101449.514
101447.142
101445.144
101483.918
101483.911
101483.901
101483.891
101483.88
101483.867
101483.853
101483.837
101483.821
101483.803
101483.783
101483.762
101483.74
101483.716
101483.69
101483.663
101483.634
101483.603
101483.57
101483.534
101483.497
101483.457
101483.414
101483.368
101483.32
101483.269
101483.214
101483.156
101483.094
101483.029
101482.959
101482.886
101482.807
101482.722
101482.63
101482.531
101482.425
101482.316
101482.203
101482.082
101481.953
101481.814
101481.665
101481.507
101481.34
101481.163
101480.975
101480.775
101480.562
101480.334
101480.09