/*--------------------------------*- C++ -*----------------------------------*\
  =========                 |
  \\      /  F ield         | OpenFOAM: The Open Source CFD Toolbox
   \\    /   O peration     | Website:  https://openfoam.org
    \\  /    A nd           | Version:  8
     \\/     M anipulation  |
\*---------------------------------------------------------------------------*/
FoamFile
{
    version     2.0;
    format      ascii;
    class       surfaceScalarField;
    location    "0.056";
    object      phi;
}
// * * * * * * * * * * * * * * * * * * * * * * * * * * * * * * * * * * * * * //

dimensions      [1 0 -1 0 0 0 0];

internalField   nonuniform List<scalar> 
84340
(
-5.27759621e-08
2.73630104e-07
-2.20824557e-07
-2.23544681e-07
8.44208638e-07
-6.73391983e-07
-5.26971311e-07
1.46058581e-06
-1.15709979e-06
-9.75557063e-07
2.12725699e-06
-1.6786019e-06
-1.57990699e-06
2.84646019e-06
-2.24203204e-06
-2.34905898e-06
3.61845175e-06
-2.84921323e-06
-3.29086599e-06
4.44210931e-06
-3.50020751e-06
-4.4123243e-06
5.3155726e-06
-4.19401101e-06
-5.71982173e-06
6.23680049e-06
-4.92919072e-06
-7.21930189e-06
7.20392661e-06
-5.7043244e-06
-8.91635182e-06
8.21543504e-06
-6.51825237e-06
-1.08162267e-05
9.2702008e-06
-7.37018148e-06
-1.29238241e-05
1.0367449e-05
-8.25969424e-06
-1.52436203e-05
1.15066718e-05
-9.18670397e-06
-1.77795663e-05
1.26875223e-05
-1.01513886e-05
-2.0534968e-05
1.39097213e-05
-1.11541142e-05
-2.3512327e-05
1.51729616e-05
-1.21953773e-05
-2.671317e-05
1.64768318e-05
-1.32757413e-05
-3.01378456e-05
1.78207556e-05
-1.43958073e-05
-3.37853019e-05
1.92039378e-05
-1.55561808e-05
-3.76528369e-05
2.06253217e-05
-1.67574537e-05
-4.17358258e-05
2.20835506e-05
-1.80001928e-05
-4.60274095e-05
2.35769245e-05
-1.92849303e-05
-5.05181665e-05
2.51033637e-05
-2.06121498e-05
-5.51957288e-05
2.66603518e-05
-2.19822787e-05
-6.0044372e-05
2.82448814e-05
-2.33956669e-05
-6.50445569e-05
2.98533761e-05
-2.48525496e-05
-7.01724204e-05
3.14816008e-05
-2.63530168e-05
-7.53991826e-05
3.31245163e-05
-2.78969416e-05
-8.06904355e-05
3.47760754e-05
-2.94839071e-05
-8.60054175e-05
3.64291578e-05
-3.11131405e-05
-9.1296508e-05
3.80756716e-05
-3.27834131e-05
-9.65088058e-05
3.97063924e-05
-3.44927727e-05
-0.000101577068
4.13079185e-05
-3.62381609e-05
-0.000106422556
4.28628425e-05
-3.80156533e-05
-0.000110946676
4.43488962e-05
-3.98228537e-05
-0.000115048099
4.5756665e-05
-4.1653107e-05
-0.000118631248
4.70649983e-05
-4.34794824e-05
-0.000121554471
4.82182611e-05
-4.52923373e-05
-0.000123612048
4.91428243e-05
-4.70821834e-05
-0.000124590533
4.98087592e-05
-4.88268397e-05
-0.000124279917
5.01568411e-05
-5.04635992e-05
-0.000122474663
5.01126083e-05
-5.19135371e-05
-0.000118894747
4.95759462e-05
-5.31510753e-05
-0.000113215113
4.84346688e-05
-5.41089833e-05
-0.000105066618
4.65710781e-05
-5.47137033e-05
-9.40649125e-05
4.38485766e-05
-5.48438054e-05
-7.97881874e-05
4.00930807e-05
-5.4362722e-05
-6.1838307e-05
3.51925931e-05
-5.31347231e-05
-3.97255609e-05
2.88872317e-05
-5.09915806e-05
-1.31167557e-05
2.1156708e-05
-4.77563822e-05
1.88042948e-05
1.12618892e-05
-4.31730652e-05
5.68616146e-05
-9.56407291e-07
-3.70903798e-05
0.0001018779
-1.58983815e-05
-2.91068358e-05
0.000154866639
-3.37076111e-05
-1.9269148e-05
0.000216965597
-5.55167839e-05
-6.56931739e-06
0.000289288694
-8.15292852e-05
9.21986733e-06
0.000373167462
-0.000112262963
2.83985431e-05
0.000470157056
-0.00014841119
5.14367727e-05
0.000581265714
-0.000190684703
7.9591855e-05
0.0007081089
-0.000239805051
0.000112978472
0.000852267381
-0.000296426397
0.000152284856
0.00101516512
-0.000361157358
0.000198276811
0.00119790058
-0.000434377416
0.000251658889
0.00140151296
-0.000516833367
0.000313237305
0.00162771036
-0.000609706347
0.00038352293
0.00187609942
-0.000710401652
0.000462024047
0.00214678703
-0.000821480591
0.00055080146
0.00244987454
-0.000954071489
0.00065099002
0.00277839727
-0.00107478425
0.000746264829
0.00310682003
-0.00120616898
0.000877747735
0.00349054654
-0.00144104396
0.00105731741
0.00398733898
-0.00160631332
0.00110952125
0.00442178956
-0.00165795814
0.00122350953
0.00472511007
-0.00192329034
0.0016199773
0.0051813896
-0.00235044348
0.00189417851
0.00583969724
-0.00252878505
0.00187049915
0.00649770098
-0.00251109035
0.00185311724
0.00682862093
-0.00273692554
0.00240606725
-0.00298300784
0.00282037076
0.0069913215
-3.80873309e-08
3.11753824e-07
-1.64071067e-07
9.70244971e-07
-3.90987229e-07
1.68756325e-06
-7.29884219e-07
2.46622324e-06
-1.18992745e-06
3.30658026e-06
-1.77872888e-06
4.20733752e-06
-2.50268764e-06
5.1661602e-06
-3.36723772e-06
6.18022307e-06
-4.37706784e-06
7.24674003e-06
-5.53626554e-06
8.36324359e-06
-6.84838654e-06
9.5276863e-06
-8.31646214e-06
1.07384187e-05
-9.94295236e-06
1.19940952e-05
-1.17296546e-05
1.3293545e-05
-1.36775834e-05
1.46356387e-05
-1.57868045e-05
1.60191488e-05
-1.80562529e-05
1.74426375e-05
-2.04835187e-05
1.89043483e-05
-2.30646005e-05
2.04021147e-05
-2.57936392e-05
2.19332831e-05
-2.86626176e-05
2.349464e-05
-3.16610279e-05
2.50823378e-05
-3.4775514e-05
2.66918297e-05
-3.79894723e-05
2.8317788e-05
-4.12826067e-05
2.99540062e-05
-4.46304405e-05
3.15932945e-05
-4.80037418e-05
3.32273254e-05
-5.13679235e-05
3.48465062e-05
-5.46824618e-05
3.64398656e-05
-5.79001396e-05
3.79946611e-05
-6.09643332e-05
3.94943722e-05
-6.38071201e-05
4.0919595e-05
-6.63527756e-05
4.22533171e-05
-6.85174847e-05
4.3474053e-05
-7.02190119e-05
4.45659729e-05
-7.13490791e-05
4.54807442e-05
-7.17510757e-05
4.61606546e-05
-7.12365272e-05
4.6552683e-05
-6.96118476e-05
4.65960943e-05
-6.6693357e-05
4.62271447e-05
-6.22513326e-05
4.53698734e-05
-5.60174655e-05
4.3926454e-05
-4.76958767e-05
4.17948847e-05
-3.69764237e-05
3.88607541e-05
-2.34986109e-05
3.49615644e-05
-6.8562727e-06
2.99338888e-05
1.32093966e-05
2.37885544e-05
3.70593588e-05
1.6249285e-05
6.55198185e-05
6.73881243e-06
9.92878166e-05
-4.87363165e-06
0.000139158202
-1.87058632e-05
0.00018604177
-3.5613207e-05
0.00024094839
-5.5853885e-05
0.000304890952
-7.98311929e-05
0.000379328237
-0.000108134429
0.00046522774
-0.000141405219
0.000563973434
-0.000180263189
0.000677110266
-0.000225387431
0.000806185153
-0.000277473113
0.000952631229
-0.000337117643
0.00111790023
-0.000405060607
0.00130300458
-0.000481517505
0.00150882556
-0.000566965704
0.00173593869
-0.000661479996
0.00198493317
-0.000765819335
0.00225923513
-0.000884002428
0.0025601708
-0.00101133363
0.0028823514
-0.00114366032
0.00323080305
-0.00130252434
0.00362530978
-0.00146929482
0.00402607611
-0.00160694048
0.00439239008
-0.00180736458
0.0048621504
-0.00207607941
0.00542447702
-0.00222028887
0.00584801315
-0.00234682567
0.00610729811
-0.00260972267
0.00641432101
-0.00283579261
0.00684768999
-0.00294442864
0.00716101273
-0.00305020374
-0.00315874224
0.00733679142
-2.53792436e-08
3.37198016e-07
-1.12170641e-07
1.05712881e-06
-2.71524495e-07
1.84702381e-06
-5.12717597e-07
2.70753621e-06
-8.43204274e-07
3.63719924e-06
-1.26880372e-06
4.63308143e-06
-1.79391298e-06
5.69142631e-06
-2.42198058e-06
6.80846038e-06
-3.15556438e-06
7.98050723e-06
-3.99644813e-06
9.20432537e-06
-4.94568887e-06
1.0477141e-05
-6.00360355e-06
1.17965645e-05
-7.16970273e-06
1.31604442e-05
-8.4425788e-06
1.45666912e-05
-9.81975348e-06
1.60131059e-05
-1.12974971e-05
1.74972092e-05
-1.2870606e-05
1.90160901e-05
-1.45321624e-05
2.05662778e-05
-1.62732551e-05
2.21436133e-05
-1.80826774e-05
2.37431468e-05
-1.99465912e-05
2.53590355e-05
-2.18481562e-05
2.69844285e-05
-2.37670905e-05
2.86113393e-05
-2.56791492e-05
3.02304767e-05
-2.75555385e-05
3.18310876e-05
-2.93622247e-05
3.34007405e-05
-3.10589683e-05
3.4924907e-05
-3.25977764e-05
3.63862392e-05
-3.39247898e-05
3.77678996e-05
-3.49804462e-05
3.90514374e-05
-3.57024453e-05
4.02176114e-05
-3.6016899e-05
4.12354245e-05
-3.58271179e-05
4.20650642e-05
-3.50145927e-05
4.26632216e-05
-3.34210932e-05
4.29743537e-05
-3.08815626e-05
4.29432964e-05
-2.72232452e-05
4.25046619e-05
-2.22488282e-05
4.15808521e-05
-1.57506229e-05
4.01007605e-05
-7.48616963e-06
3.79658625e-05
2.81873684e-06
3.50684758e-05
1.54877619e-05
3.12612855e-05
3.08319408e-05
2.64549596e-05
4.9022015e-05
2.0675355e-05
7.06240111e-05
1.33646571e-05
9.61787987e-05
4.38449705e-06
0.000126329129
-6.35594484e-06
0.000161842691
-1.92578485e-05
0.000203609759
-3.50211863e-05
0.000252486015
-5.37422794e-05
0.00030964329
-7.5854925e-05
0.000375953201
-0.000101914344
0.000452595656
-0.000132486927
0.000540939658
-0.000168165205
0.000642412575
-0.000209596656
0.000758453566
-0.00025743502
0.000890555138
-0.000312353086
0.00104015934
-0.00037497972
0.00120857887
-0.000445880369
0.00139677403
-0.000525300537
0.00160553103
-0.00061380588
0.00183570072
-0.000711677266
0.0020881997
-0.000819456476
0.00236347729
-0.000936751604
0.00266070376
-0.0010630418
0.00298179473
-0.00120509193
0.00333031132
-0.00135985089
0.00370299781
-0.0015163502
0.00408124786
-0.0016807798
0.00448892635
-0.00187698124
0.00493729399
-0.0020553172
0.00534392959
-0.00221401046
0.00568817792
-0.00242033639
0.00606744752
-0.00259956565
0.00643011643
-0.00270949784
0.00664070385
-0.00282030773
0.00676616264
-0.00296124118
0.00691384935
-0.00309209873
0.0070704952
-0.00320681334
-0.00330539794
0.0072171985
-1.79893997e-08
3.55230475e-07
-8.10974037e-08
1.12029707e-06
-1.98453566e-07
1.96444883e-06
-3.77292e-07
2.88645163e-06
-6.23079529e-07
3.8830717e-06
-9.39622653e-07
4.94971752e-06
-1.32928148e-06
6.08118652e-06
-1.79304339e-06
7.27233264e-06
-2.33076554e-06
8.51834951e-06
-2.94157678e-06
9.81526739e-06
-3.62364431e-06
1.11593511e-05
-4.37414542e-06
1.25472211e-05
-5.18917792e-06
1.39756465e-05
-6.06363228e-06
1.5441331e-05
-6.99101782e-06
1.69406945e-05
-7.96324804e-06
1.84696616e-05
-8.97040273e-06
2.00234886e-05
-1.00004476e-05
2.15965899e-05
-1.10389066e-05
2.31823661e-05
-1.20684359e-05
2.47729987e-05
-1.30683173e-05
2.63592723e-05
-1.40141606e-05
2.79306629e-05
-1.48767278e-05
2.94743384e-05
-1.56224335e-05
3.09766591e-05
-1.62132312e-05
3.24224136e-05
-1.66065328e-05
3.37946239e-05
-1.67564912e-05
3.50755083e-05
-1.66032823e-05
3.62337432e-05
-1.60765627e-05
3.72419731e-05
-1.50916769e-05
3.80674298e-05
-1.35432338e-05
3.8670147e-05
-1.13102044e-05
3.90034837e-05
-8.25901426e-06
3.90150872e-05
-4.23597153e-06
3.86415328e-05
9.31569779e-07
3.78083295e-05
7.42500653e-06
3.64515479e-05
1.54523156e-05
3.4479238e-05
2.52444492e-05
3.17908133e-05
3.70882596e-05
2.82592835e-05
5.12638758e-05
2.37928357e-05
6.79337146e-05
1.84015213e-05
8.76110881e-05
1.15870599e-05
0.000110786014
3.28347766e-06
0.000138056484
-6.59129911e-06
0.0001700908
-1.86654181e-05
0.00020760959
-3.31296481e-05
0.00025160021
-5.03414464e-05
0.000303027738
-7.06797919e-05
0.000362636979
-9.46243147e-05
0.000431581028
-0.000122679705
0.000511117818
-0.000155384502
0.000602546279
-0.000193335017
0.000707246738
-0.00023717899
0.000826659703
-0.000287569311
0.000962184045
-0.000345111636
0.00111517035
-0.000410411611
0.0012868895
-0.000484062076
0.00147823802
-0.000566317831
0.00168995225
-0.000657584471
0.00192242729
-0.000757766698
0.00217608854
-0.000867459425
0.00245126456
-0.000986847135
0.00274843006
-0.00111661723
0.00306677241
-0.00125509108
0.00340384454
-0.00140011274
0.00375583734
-0.00155708575
0.00412034889
-0.00172436534
0.00450703941
-0.00190304605
0.0048937866
-0.002067534
0.00525353388
-0.002236737
0.00559343355
-0.00239522588
0.00590195399
-0.00252254129
0.00611771793
-0.00263611047
0.00627833219
-0.00276019037
0.0064446187
-0.00287578928
0.00660452429
-0.00298021326
0.00672911704
-0.00308582601
0.00682504939
-0.00318801494
0.00691185025
-0.00329359237
-0.00339430868
0.00700078673
-1.67091931e-08
3.72000275e-07
-7.41746624e-08
1.17784569e-06
-1.79471598e-07
2.06983948e-06
-3.37699126e-07
3.04478283e-06
-5.52049403e-07
4.09753524e-06
-8.23990826e-07
5.22178172e-06
-1.15347716e-06
6.41080541e-06
-1.53888447e-06
7.65788271e-06
-1.97730578e-06
8.95692447e-06
-2.46444967e-06
1.03025764e-05
-2.99507499e-06
1.1690154e-05
-3.56263256e-06
1.31149696e-05
-4.15914581e-06
1.45723654e-05
-4.77504162e-06
1.60574482e-05
-5.39893636e-06
1.75648279e-05
-6.01737525e-06
1.90883579e-05
-6.61448393e-06
2.06208754e-05
-7.17158747e-06
2.2153994e-05
-7.66687013e-06
2.36779747e-05
-8.07490036e-06
2.51813824e-05
-8.3668614e-06
2.66516172e-05
-8.51043476e-06
2.80746532e-05
-8.46610428e-06
2.94304633e-05
-8.1879833e-06
3.06990352e-05
-7.62173787e-06
3.18567126e-05
-6.70264934e-06
3.28761327e-05
-5.35290319e-06
3.37264207e-05
-3.49024945e-06
3.43718146e-05
-1.01675331e-06
3.47692787e-05
2.1834699e-06
3.4868094e-05
6.24658104e-06
3.46080248e-05
1.13231574e-05
3.3928006e-05
1.75767851e-05
3.27626847e-05
2.51896983e-05
3.10299816e-05
3.43665521e-05
2.86329962e-05
4.53649049e-05
2.54548849e-05
5.8455709e-05
2.13903226e-05
7.37988954e-05
1.64497284e-05
9.18258929e-05
1.02346005e-05
0.000113000213
2.62104916e-06
0.000137858635
-6.45406358e-06
0.000166984435
-1.75355786e-05
0.000201069957
-3.07985342e-05
0.00024104689
-4.65643627e-05
0.000287589389
-6.5203644e-05
0.000341589683
-8.71252572e-05
0.000404040187
-0.000112786799
0.000476050146
-0.00014268413
0.000558803844
-0.000177371844
0.00065357746
-0.000217446646
0.000761683047
-0.000263482896
0.0008844666
-0.000316110931
0.00102325127
-0.000375955537
0.00117928105
-0.000443590576
0.00135373236
-0.000519553946
0.00154735248
-0.000604022352
0.00176062289
-0.000697323194
0.00199375638
-0.000799442915
0.00224674187
-0.000910562373
0.00251909275
-0.00103011104
0.00281001334
-0.00115837443
0.0031178697
-0.00129469916
0.00344151692
-0.00144026128
0.0037777488
-0.00159132133
0.00412440219
-0.00174676593
0.00447295291
-0.00190563817
0.00481212649
-0.00206354208
0.00512607559
-0.00221699994
0.00540479023
-0.00234625478
0.00562955865
-0.00246151483
0.00580689908
-0.00257257789
0.00596494848
-0.00268060121
0.00610844203
-0.00277961505
0.00623120141
-0.00288296108
0.00633997459
-0.00298456694
0.00643918506
-0.0030794248
0.00652889144
-0.00317552817
0.0066177298
-0.00327684397
0.00671334052
-0.00338918705
-0.00348146529
0.00680051846
-2.00841722e-08
3.92114588e-07
-8.55094847e-08
1.24331197e-06
-2.01200499e-07
2.18557645e-06
-3.69928142e-07
3.21356129e-06
-5.92373854e-07
4.32003663e-06
-8.67247936e-07
5.49671643e-06
-1.19143698e-06
6.73506031e-06
-1.56030816e-06
8.02682537e-06
-1.96766156e-06
9.36435549e-06
-2.40535268e-06
1.07403518e-05
-2.8638625e-06
1.21487554e-05
-3.33191559e-06
1.35831222e-05
-3.79629869e-06
1.50368568e-05
-4.2416219e-06
1.65028893e-05
-4.65002826e-06
1.7973363e-05
-5.00090334e-06
1.94393734e-05
-5.27035092e-06
2.08904768e-05
-5.4311234e-06
2.23149346e-05
-5.45129053e-06
2.36983262e-05
-5.29334625e-06
2.50236406e-05
-4.91371373e-06
2.6272208e-05
-4.26153495e-06
2.74227204e-05
-3.2815964e-06
2.84507974e-05
-1.9084765e-06
2.93262172e-05
-6.55342159e-08
3.00141067e-05
2.33720742e-06
3.04737662e-05
5.40650692e-06
3.06575426e-05
9.25804392e-06
3.05207488e-05
1.40231447e-05
3.00047087e-05
1.9849231e-05
2.9042604e-05
2.68997331e-05
2.75581969e-05
3.53619798e-05
2.54665187e-05
4.54668968e-05
2.26586279e-05
5.74846844e-05
1.90131654e-05
7.16061033e-05
1.45126805e-05
8.81308146e-05
8.93140587e-06
0.00010754998
1.97253536e-06
0.000130316209
-6.31494282e-06
0.000156951706
-1.6399117e-05
0.000188083054
-2.85082922e-05
0.000224541657
-4.29103998e-05
0.000266930876
-5.99222588e-05
0.00031605596
-7.99207638e-05
0.000372818495
-0.000103323717
0.00043820454
-0.000130586126
0.000513280075
-0.000162196832
0.000599186956
-0.000198689277
0.000697126411
-0.000240618767
0.000808329331
-0.000288569492
0.000934026449
-0.000343138073
0.00107545618
-0.000404906471
0.00123374111
-0.000474389301
0.00140982399
-0.00055203134
0.00160423123
-0.000637990286
0.00181712664
-0.000732441695
0.00204828121
-0.00083516975
0.00229706703
-0.000946102293
0.00256264938
-0.00106501914
0.0028438517
-0.00119175911
0.00313832
-0.00132457448
0.00344314008
-0.00146319032
0.00375402526
-0.00160558108
0.00406781621
-0.00175404985
0.00437985923
-0.00190336321
0.00467864211
-0.00204554875
0.00494631508
-0.00217331238
0.00517125401
-0.00228848361
0.00534612837
-0.00239187901
0.00549463229
-0.00249476411
0.00562401589
-0.00259090607
0.00574152145
-0.00269009286
0.00584672653
-0.00278581452
0.00594620627
-0.00287910228
0.00603557692
-0.00297234048
0.00611950506
-0.00306850049
0.00620376559
-0.00316368736
0.00628685153
-0.00325861178
0.00638016929
-0.00337015416
0.00649704883
-0.00350605314
-0.00360518738
0.00662078624
-2.54248958e-08
4.17568643e-07
-1.04452756e-07
1.32237834e-06
-2.39587948e-07
2.32075393e-06
-4.30887563e-07
3.40490689e-06
-6.76046671e-07
4.56524541e-06
-9.70513234e-07
5.79123639e-06
-1.30761201e-06
7.07221636e-06
-1.67863513e-06
8.39790977e-06
-2.07287246e-06
9.7586585e-06
-2.47775514e-06
1.11453048e-05
-2.87796914e-06
1.25490447e-05
-3.25608581e-06
1.39613194e-05
-3.59197003e-06
1.53728274e-05
-3.86245528e-06
1.67734673e-05
-4.04089176e-06
1.81518991e-05
-4.09654023e-06
1.9495129e-05
-3.99365368e-06
2.07877062e-05
-3.69125258e-06
2.20126587e-05
-3.1435972e-06
2.31508068e-05
-2.29806284e-06
2.41782541e-05
-1.09284757e-06
2.50671551e-05
5.45076326e-07
2.5784975e-05
2.69769623e-06
2.62983751e-05
5.45771375e-06
2.65664184e-05
8.92991743e-06
2.65421477e-05
1.32322351e-05
2.61717221e-05
1.8496683e-05
2.53934035e-05
2.48810253e-05
2.41367543e-05
3.25637019e-05
2.23224277e-05
4.17476455e-05
1.98591088e-05
5.2694631e-05
1.66117248e-05
6.5595982e-05
1.25657545e-05
8.07261387e-05
7.52913939e-06
9.85107462e-05
1.22930579e-06
0.000119351645
-6.32736352e-06
0.000143719026
-1.54349884e-05
0.000172163414
-2.64707123e-05
0.00020541713
-3.95673589e-05
0.000244054832
-5.50353325e-05
0.000288771277
-7.32230529e-05
0.000340363206
-9.45004114e-05
0.000399717376
-0.000119274265
0.000467789766
-0.0001479907
0.000545601237
-0.000181132437
0.000634225545
-0.000219207356
0.000734785045
-0.000262752936
0.000848418338
-0.000312318816
0.000976250527
-0.000368446864
0.00111933257
-0.000431647063
0.00127856265
-0.000502363334
0.00145459833
-0.000580936887
0.00164768821
-0.000667473505
0.00185765429
-0.00076199153
0.00208389914
-0.000864229439
0.00232540018
-0.000973937263
0.00258074291
-0.00109050732
0.0028477978
-0.00121315228
0.00312363364
-0.00134085044
0.00340524527
-0.0014733665
0.00368847492
-0.00160780033
0.00396924975
-0.00174396176
0.00424189235
-0.00187822098
0.00449402562
-0.00200618111
0.00471400204
-0.00212333842
0.00489555708
-0.00222710326
0.00504409527
-0.00232185102
0.00517213084
-0.00241652052
0.00528514938
-0.00250490033
0.00538887284
-0.00259849145
0.00548461738
-0.00268665562
0.00557309443
-0.00277857566
0.00565439633
-0.00286712153
0.00572918144
-0.00295389256
0.00580367752
-0.00304684224
0.0058866039
-0.00315143131
0.00597714126
-0.00325422711
0.00606683085
-0.00334829956
0.00615722581
-0.00346054371
0.00626007777
-0.00360889583
-0.00372985431
0.00638475636
-2.96855769e-08
4.47265386e-07
-1.18601083e-07
1.41130852e-06
-2.66248268e-07
2.46841716e-06
-4.69300553e-07
3.60797657e-06
-7.21689818e-07
4.81765343e-06
-1.0147017e-06
6.08426836e-06
-1.33704955e-06
7.3945857e-06
-1.67490111e-06
8.73578423e-06
-2.01181888e-06
1.00956007e-05
-2.32870951e-06
1.14622215e-05
-2.60333667e-06
1.28236997e-05
-2.8100514e-06
1.41680638e-05
-2.91940191e-06
1.54822096e-05
-2.89769601e-06
1.67517952e-05
-2.70639347e-06
1.7960633e-05
-2.30161856e-06
1.90903932e-05
-1.63327978e-06
2.011941e-05
-6.43168373e-07
2.10225937e-05
7.35259314e-07
2.17724305e-05
2.57736861e-06
2.23362016e-05
4.96812646e-06
2.26764613e-05
8.00321236e-06
2.27499613e-05
1.17942865e-05
2.25073839e-05
1.64687723e-05
2.18920277e-05
2.21719623e-05
2.08390686e-05
2.90685786e-05
1.92752348e-05
3.734564e-05
1.71164944e-05
4.72382603e-05
1.42443131e-05
5.89340474e-05
1.06268544e-05
7.26883891e-05
6.10501759e-06
8.88775269e-05
4.22880276e-07
0.000107864021
-6.42039594e-06
0.000130064426
-1.46708519e-05
0.000155946587
-2.4652366e-05
0.00018613459
-3.6514786e-05
0.000221232659
-5.05323772e-05
0.000261776813
-6.7014066e-05
0.000308502674
-8.62922907e-05
0.000362201797
-0.00010873337
0.000423718352
-0.000134738357
0.000493963019
-0.00016474363
0.000573899704
-0.000199209303
0.000664529771
-0.000238618894
0.000766872093
-0.000283472659
0.000881937264
-0.00033427017
0.00101067953
-0.000391492596
0.00115394183
-0.000455578226
0.001312389
-0.00052689088
0.00148640788
-0.000605662465
0.0016759836
-0.000691935251
0.00188059321
-0.000785542451
0.00209925636
-0.000886132634
0.00233053186
-0.000993263074
0.00257256283
-0.00110625659
0.00282296509
-0.00122433578
0.00307859943
-0.00134613808
0.00333578814
-0.00147033749
0.00358961762
-0.00159467658
0.00383625626
-0.00172000191
0.00407101539
-0.0018425566
0.00428504612
-0.00195799006
0.00446995394
-0.00206312666
0.00462043907
-0.00215666392
0.00474285732
-0.00224575509
0.00484911704
-0.00233336211
0.00494516294
-0.0024178965
0.00503418371
-0.00250554164
0.00511883967
-0.00258955751
0.00519696552
-0.00267661939
0.00527156202
-0.00276125512
0.00534265738
-0.00284967437
0.00542113729
-0.00294560564
0.00550365707
-0.00303641654
0.00558486121
-0.00312805074
0.00567309287
-0.00323966627
0.00577258312
-0.00335371957
0.00587974684
-0.00345546277
0.00598207224
-0.00356286621
0.00607160086
-0.003698418
-0.00382608404
0.00616783897
-2.98232682e-08
4.77096624e-07
-1.15775353e-07
1.4972719e-06
-2.53531536e-07
2.60618628e-06
-4.3546314e-07
3.78992252e-06
-6.50714936e-07
5.03292082e-06
-8.85272863e-07
6.31884297e-06
-1.12198103e-06
7.63131158e-06
-1.34049462e-06
8.95431646e-06
-1.51705115e-06
1.02721768e-05
-1.62412044e-06
1.15693112e-05
-1.63033449e-06
1.28299351e-05
-1.49939171e-06
1.40371432e-05
-1.18992199e-06
1.51727631e-05
-6.5472445e-07
1.62166217e-05
1.60030398e-07
1.71459033e-05
1.31582937e-06
1.79346204e-05
2.88229707e-06
1.85529701e-05
4.9385573e-06
1.89663628e-05
7.57529253e-06
1.9135727e-05
1.08957758e-05
1.90157526e-05
1.50173915e-05
1.85548839e-05
2.0073482e-05
1.76939134e-05
2.62148895e-05
1.63660254e-05
3.36132217e-05
1.44937517e-05
4.2479213e-05
1.19731442e-05
5.29924544e-05
8.76207224e-06
6.5388123e-05
4.72092055e-06
7.99978901e-05
-3.65342537e-07
9.71454619e-05
-6.52058218e-06
0.000117208184
-1.39575408e-05
0.000140584686
-2.29534212e-05
0.000167818382
-3.36538513e-05
0.000199450927
-4.63031059e-05
0.000235976581
-6.11776726e-05
0.000278037921
-7.85757095e-05
0.000326331746
-9.88257102e-05
0.000381604742
-0.000122286478
0.000444661514
-0.000149348381
0.000516354452
-0.00018042551
0.000597569923
-0.000215952912
0.00068921047
-0.000256383124
0.000792173787
-0.00030217143
0.000907318238
-0.000353761997
0.00103541663
-0.000411569549
0.00117710428
-0.000475956144
0.00133281506
-0.00054720153
0.00150270289
-0.000625464022
0.00168655444
-0.000710740188
0.00188359701
-0.000802702606
0.00209256525
-0.000900901022
0.00231169909
-0.00100467383
0.00253881314
-0.00111324428
0.00277123696
-0.0012256845
0.00300561299
-0.00134063027
0.00323828242
-0.00145700285
0.00346484793
-0.00157270124
0.00368185341
-0.00168734056
0.00388403668
-0.00179685753
0.00406482287
-0.001900786
0.00421859682
-0.00199632843
0.00434517918
-0.0020845697
0.00445013058
-0.00216807579
0.0045430909
-0.00224962232
0.00462718923
-0.00232985127
0.00470446877
-0.00241063982
0.00477781152
-0.00249123807
0.00484667721
-0.00257440663
0.00491516226
-0.00265804266
0.00498100725
-0.00274246513
0.00504607551
-0.00282632498
0.00511328141
-0.00291688229
0.00518837968
-0.00302070703
0.005273865
-0.00312190531
0.00536499206
-0.00321918177
0.00545195513
-0.00332663254
0.00553924072
-0.00344100801
0.00563721075
-0.00355343452
0.00572981275
-0.00365546815
0.00579987432
-0.00376847635
-0.00388929706
0.00586309483
-2.41631819e-08
5.01269039e-07
-8.91546429e-08
1.56227789e-06
-1.85753272e-07
2.70280256e-06
-3.0085511e-07
3.9050446e-06
-4.17525632e-07
5.14961379e-06
-5.14980833e-07
6.41632254e-06
-5.68492092e-07
7.68484902e-06
-5.4925532e-07
8.93510755e-06
-4.24010599e-07
1.01469617e-05
-1.54575275e-07
1.12999072e-05
3.02741821e-07
1.23726511e-05
9.97533559e-07
1.33423864e-05
1.9862532e-06
1.41840804e-05
3.33316245e-06
1.48697514e-05
5.11123383e-06
1.53678733e-05
7.4038675e-06
1.56420305e-05
1.03054128e-05
1.56514716e-05
1.39229886e-05
1.5348837e-05
1.83778841e-05
1.46808856e-05
2.38070721e-05
1.35866229e-05
3.03699082e-05
1.19921116e-05
3.82463174e-05
9.81757407e-06
4.76050939e-05
7.00732697e-06
5.86752008e-05
3.42373148e-06
7.17350609e-05
-1.0866191e-06
8.70755118e-05
-6.57826973e-06
0.000105030302
-1.32337437e-05
0.000125954256
-2.12891513e-05
0.000150316974
-3.08831322e-05
0.000178594446
-4.22348186e-05
0.00021123052
-5.55892708e-05
0.000248789375
-7.12124484e-05
0.000291883896
-8.93973263e-05
0.000341170031
-0.000110463463
0.000397353814
-0.000134759095
0.000461183414
-0.000162654858
0.000533437953
-0.000194540501
0.000614913395
-0.000230823244
0.000706404157
-0.000271915621
0.000808676104
-0.00031822414
0.000922428147
-0.00037013437
0.00104825016
-0.00042799258
0.00118657281
-0.000492083694
0.0013376099
-0.000562605632
0.00150129352
-0.00063963867
0.00167719702
-0.000723103877
0.00186443385
-0.000812699598
0.00206157731
-0.000907882395
0.00226672662
-0.00100785067
0.00247755381
-0.00111172702
0.00269130421
-0.00121842307
0.00290469088
-0.00132662983
0.00311410222
-0.00143509469
0.00331563065
-0.00154215755
0.00350571445
-0.00164708541
0.00368022524
-0.00174721078
0.00383444487
-0.0018415589
0.00396570903
-0.00192812027
0.00407357541
-0.00200865063
0.00416397595
-0.00208672736
0.00424309216
-0.00216368422
0.00431505184
-0.00224003343
0.00438202321
-0.00231659134
0.00444646058
-0.0023942866
0.0045089785
-0.00247315582
0.00457090966
-0.00255316727
0.00463269437
-0.00263618958
0.00469772092
-0.00272306809
0.00476396871
-0.00280871233
0.0048315195
-0.00289387614
0.00489965527
-0.00298501922
0.00496687612
-0.00308793004
0.00503903855
-0.00319407045
0.00511774813
-0.0032978946
0.00519118835
-0.0034000758
0.00525963102
-0.00350945437
0.00533177664
-0.00362558265
0.00541545922
-0.00373915145
0.00549722151
-0.00385023805
-0.00396591383
0.00557383998
-1.24331874e-08
5.13727383e-07
-3.71188954e-08
1.58700251e-06
-5.83781647e-08
2.72410881e-06
-5.59927608e-08
3.90271314e-06
-5.16885222e-09
5.09884999e-06
1.23578222e-07
6.28764127e-06
3.64654198e-07
7.44384438e-06
7.57731019e-07
8.54210756e-06
1.34810559e-06
9.55666968e-06
2.18724726e-06
1.0460854e-05
3.33362541e-06
1.12263677e-05
4.85360685e-06
1.18225063e-05
6.82234253e-06
1.22154533e-05
9.3255217e-06
1.23666883e-05
1.2459944e-05
1.22335754e-05
1.63354026e-05
1.17667053e-05
2.10765224e-05
1.0910495e-05
2.68243167e-05
9.60119608e-06
3.37363529e-05
7.76901455e-06
4.19675435e-05
5.35561057e-06
5.17408303e-05
2.21901659e-06
6.32834004e-05
-1.7247907e-06
7.68561611e-05
-6.56521123e-06
9.27532817e-05
-1.24731462e-05
0.000111287673
-1.96207449e-05
0.000132865039
-2.81553469e-05
0.000157900904
-3.82692934e-05
0.000186790897
-5.01787992e-05
0.000220028363
-6.412022e-05
0.000258147863
-8.03539049e-05
0.000301722767
-9.91637207e-05
0.000351369453
-0.000120858639
0.000407741522
-0.000145768852
0.000471520799
-0.000174242152
0.000543405792
-0.00020664345
0.000624096444
-0.000243344825
0.000714273059
-0.000284716381
0.000814564654
-0.000331114059
0.000925514424
-0.000382864563
0.0010475383
-0.000440247155
0.00118087748
-0.000503472649
0.00132554567
-0.00057265985
0.00148127304
-0.00064781012
0.00164744816
-0.000728779817
0.00182305696
-0.000815246528
0.00200659705
-0.000906643054
0.0021960869
-0.00100218861
0.00238913665
-0.00110093143
0.00258311329
-0.00120182669
0.00277503985
-0.00130365307
0.00296160396
-0.00140498673
0.00313940797
-0.00150443344
0.00330499956
-0.00160068587
0.00345581267
-0.00169297025
0.00358818826
-0.00177946045
0.00370085078
-0.0018598726
0.00379478795
-0.00193549522
0.00387555402
-0.00200888546
0.0039476759
-0.00208077119
0.00401406573
-0.00215311542
0.00407516186
-0.00222477825
0.00413290868
-0.0022977782
0.004186237
-0.00236991754
0.00423794558
-0.00244599265
0.00429208548
-0.00252729299
0.00434863321
-0.00260971239
0.00440659696
-0.00269415086
0.00446620957
-0.00278267877
0.00452956434
-0.00287206571
0.00459692132
-0.0029612327
0.00466271207
-0.00305081054
0.00472257736
-0.00314779721
0.00478138965
-0.00325288522
0.00484339353
-0.00335990203
0.00490861914
-0.00346530618
0.00497563151
-0.00357647176
0.00504455374
-0.00369450881
0.00511506418
-0.00380966493
0.00518479043
-0.00391996699
-0.00404097996
0.00525985508
6.04825044e-09
5.07719017e-07
4.30835598e-08
1.55002718e-06
1.34967686e-07
2.63229606e-06
3.10896088e-07
3.72686623e-06
6.05511303e-07
4.80432549e-06
1.05911752e-06
5.83413457e-06
1.71799127e-06
6.78507898e-06
2.63492544e-06
7.62529088e-06
3.86985247e-06
8.32186988e-06
5.49065765e-06
8.84018647e-06
7.57403915e-06
9.14313517e-06
1.02072168e-05
9.18948981e-06
1.34884407e-05
8.93440414e-06
1.75285872e-05
8.32673128e-06
2.24527831e-05
7.30958505e-06
2.84014201e-05
5.81829138e-06
3.55194848e-05
3.79267303e-06
4.3999438e-05
1.12150569e-06
5.40434896e-05
-2.27475257e-06
6.58790596e-05
-6.47964914e-06
7.97592866e-05
-1.16608718e-05
9.59665395e-05
-1.79316754e-05
0.000114849727
-2.54479981e-05
0.000136755921
-3.43789045e-05
0.000162049027
-4.49133776e-05
0.000191154658
-5.72604627e-05
0.000224536475
-7.16505525e-05
0.000262693369
-8.83350895e-05
0.000306160866
-0.000107587063
0.000355507183
-0.000129699519
0.000411326387
-0.000154982172
0.000474229071
-0.000183760523
0.000544830038
-0.000216368973
0.000623731947
-0.000253143172
0.000711499732
-0.000294410309
0.000808632656
-0.000340476794
0.000915530582
-0.00039161333
0.00103245496
-0.000448037455
0.0011594849
-0.000509893527
0.00129646994
-0.000577231249
0.00144298111
-0.000649982917
0.00159826357
-0.000727941488
0.00176119516
-0.000810740973
0.00193025054
-0.000897834576
0.00210345477
-0.000988450273
0.00227842628
-0.00108161427
0.00245252518
-0.0011762874
0.00262296754
-0.00127137388
0.00278688153
-0.00136574092
0.00294148624
-0.00145825819
0.00308424594
-0.00154774695
0.00321313452
-0.00163332263
0.00332647079
-0.00171402274
0.00342367924
-0.00179017929
0.00350652369
-0.00186230529
0.00357884655
-0.00193219567