/*--------------------------------*- C++ -*----------------------------------*\
  =========                 |
  \\      /  F ield         | OpenFOAM: The Open Source CFD Toolbox
   \\    /   O peration     | Website:  https://openfoam.org
    \\  /    A nd           | Version:  8
     \\/     M anipulation  |
\*---------------------------------------------------------------------------*/
FoamFile
{
    version     2.0;
    format      ascii;
    class       volScalarField;
    location    "0.056";
    object      T;
}
// * * * * * * * * * * * * * * * * * * * * * * * * * * * * * * * * * * * * * //

dimensions      [0 0 0 1 0 0 0];

internalField   nonuniform List<scalar> 
42400
(
472.135797
470.388319
468.595011
466.754899
464.86707
462.930705
460.945093
458.909667
456.824026
454.68797
452.501531
450.265014
447.979033
445.644555
443.262947
440.836017
438.366069
435.855947
433.309084
430.729547
428.122077
425.492124
422.845871
420.190251
417.532947
414.882377
412.247657
409.638546
407.065372
404.538921
402.070319
399.67088
397.35194
395.124681
392.999941
390.988024
389.098509
387.340097
385.720488
384.246273
382.922828
381.75429
380.743584
379.892462
379.201605
378.6707
378.298539
378.08304
378.023815
378.113921
378.349522
378.724831
379.231941
379.860438
380.596348
381.42382
382.320844
383.255467
384.187061
385.09632
386.013827
386.576066
386.729768
386.489715
385.805738
384.873418
383.620399
381.956181
379.756031
377.065712
373.709691
369.596782
365.472087
360.647817
354.243604
348.036826
342.558176
337.5141
329.000185
324.155019
472.176089
470.510056
468.800287
467.045828
465.245787
463.399359
461.505852
459.564711
457.575546
455.538164
453.452602
451.319162
449.13845
446.911421
444.639418
442.324221
439.968098
437.573847
435.144848
432.685109
430.199306
427.692822
425.171774
422.643033
420.114229
417.593747
415.090694
412.614862
410.176653
407.787001
405.457253
403.199042
401.024127
398.944228
396.970851
395.115122
393.387592
391.79804
390.355275
389.066934
387.939323
386.977323
386.184302
385.562037
385.110641
384.828426
384.712397
384.756276
384.953313
385.292554
385.7601
386.339721
387.009949
387.74317
388.499541
389.249044
389.981513
390.59663
390.866805
390.77364
390.150603
389.322504
388.209351
386.74245
384.796209
382.297439
379.253804
375.654725
371.465114
366.857407
361.775176
355.919787
350.000857
344.168641
337.662289
330.593402
324.48293
318.84707
313.339414
308.643984
472.227006
470.663909
469.059756
467.413642
465.724728
463.992264
462.215612
460.394275
458.52792
456.616411
454.659838
452.658557
450.613222
448.52483
446.394763
444.22483
442.017319
439.775042
437.50138
435.200333
432.876558
430.535407
428.182962
425.82605
423.472256
421.129918
418.808106
416.516585
414.265751
412.066547
409.930369
407.868944
405.894191
404.01805
402.252284
400.608253
399.09666
397.727267
396.508629
395.447848
394.550331
393.819534
393.256606
392.860165
392.626565
392.548896
392.615934
392.817213
393.132167
393.536133
393.995775
394.479448
394.959273
395.430995
395.63615
395.555066
395.080821
394.243172
393.171529
391.796317
390.043443
387.779049
384.974767
381.620313
377.732522
373.305143
368.402072
363.09198
357.357594
351.341548
345.245245
338.872646
332.374524
326.290161
320.575891
314.98389
309.986487
305.472871
302.034378
300.314119
472.284988
470.839122
469.355277
467.832626
466.270413
464.667979
463.024782
461.340427
459.614687
457.847538
456.039185
454.190099
452.301055
450.373166
448.407929
446.407268
444.373577
442.309766
440.219307
438.106275
435.97539
433.832053
431.682367
429.533163
427.391999
425.267157
423.167619
421.103031
419.083631
417.120165
415.223766
413.405807
411.677714
410.050729
408.535655
407.142534
405.880358
404.756718
403.777432
402.946129
402.26388
401.729233
401.337132
401.078386
400.939821
400.901511
400.939354
401.03242
401.153193
401.279056
401.239861
401.001681
400.463565
399.558033
398.467415
397.122352
395.452566
393.355501
390.760965
387.642983
383.991075
379.823006
375.182339
370.112912
364.6613
358.843805
352.759311
346.528658
340.239545
333.938764
327.863067
322.097788
316.658962
311.71636
307.540274
304.029788
301.251297
300.159121
299.931791
299.892746
472.346125
471.023882
469.666934
468.274558
466.846113
465.381065
463.879005
462.33968
460.763018
459.149153
457.498458
455.811579
454.089468
452.333417
450.545105
448.726631
446.880557
445.009952
443.118425
441.210168
439.289985
437.363316
435.43626
433.515577
431.608681
429.723613
427.868996
426.053964
424.288052
422.581068
420.942917
419.383377
417.911841
416.537029
415.266653
414.107034
413.062685
412.135838
411.326225
410.630355
410.040633
409.546779
409.135249
408.790663
408.49966
408.163709
407.737572
407.170025
406.402029
405.375168
404.192897
402.797129
401.126558
399.103638
396.645447
393.718319
390.298966
386.380971
381.978565
377.129384
371.893059
366.318799
360.457317
354.390094
348.19505
341.931352
335.699209
329.627219
323.863997
318.47563
313.577022
309.339598
305.847899
303.077329
300.946542
300.126076
299.940404
299.894011
299.877516
299.873049
472.406114
471.205193
469.972816
468.708393
467.411422
466.08152
464.71844
463.322098
461.8926
460.430266
458.935658
457.409613
455.853275
454.268124
452.656012
451.019199
449.360382
447.682731
445.989909
444.286106
442.57604
440.864975
439.158703
437.463528
435.786217
434.133936
432.514153
430.934505
429.402642
427.926019
426.511662
425.165874
423.893913
422.699653
421.58512
420.550223
419.592396
418.706168
417.883681
417.114783
416.357906
415.582838
414.75326
413.826312
412.751725
411.569583
410.245485
408.735955
406.992305
404.951313
402.547391
399.745495
396.516811
392.842764
388.718253
384.152812
379.17332
373.823799
368.17735
362.294441
356.230934
350.057656
343.841375
337.686911
331.694481
325.96362
320.575397
315.640564
311.27915
307.599475
304.641547
302.462377
300.836586
300.09693
299.940434
299.898239
299.882015
299.875133
299.866795
299.869166
472.46011
471.368405
470.248215
469.099091
467.920685
466.71277
465.47526
464.208236
462.911965
461.586925
460.23383
458.853656
457.447662
456.017418
454.564832
453.092164
451.602052
450.097519
448.581986
447.059264
445.533541
444.009355
442.491543
440.985172
439.495449
438.027592
436.586677
435.177451
433.804105
432.470023
431.177479
429.927316
428.718594
427.548377
426.411198
425.295395
424.18469
423.058625
421.893044
420.660318
419.361271
417.969721
416.45562
414.784796
412.916653
410.797467
408.387394
405.653123
402.564852
399.099014
395.240699
390.984863
386.337528
381.317548
375.9576
370.303736
364.431717
358.4004
352.269035
346.114344
340.008581
334.037335
328.289429
322.86713
317.868654
313.394609
309.522893
306.334221
303.847958
302.036388
300.844557
300.122423
299.964224
299.915573
299.898683
299.8905
299.876737
299.855858
299.840671
299.831148
472.502894
471.497749
470.466515
469.408878
468.324626
467.213659
466.076014
464.91188
463.721611
462.505751
461.265047
460.000464
458.713202
457.404706
456.076677
454.731071
453.3701
451.99622
450.612105
449.220617
447.824751
446.427564
445.032089
443.641215
442.257548
440.883236
439.519764
438.167717
436.826522
435.494161
434.166915
432.838992
431.501454
430.143345
428.750989
427.310288
425.805168
424.216289
422.520546
420.689889
418.688576
416.486773
414.054539
411.362775
408.384112
405.094397
401.47445
397.511378
393.199877
388.543329
383.554653
378.257109
372.684649
366.884039
360.920089
354.860894
348.767935
342.709897
336.757096
330.998764
325.52658
320.427967
315.795841
311.710062
308.248148
305.451304
303.315666
301.798076
300.816071
300.250479
300.009291
299.947458
299.92345
299.902427
299.880845
299.860881
299.834094
299.810208
299.796301
299.790288
472.529473
471.578124
470.602214
469.601531
468.575944
467.525421
466.450035
465.349976
464.225564
463.077252
461.905635
460.711454
459.495595
458.259083
457.003071
455.728825
454.437691
453.13106
451.810312
450.476751
449.131517
447.77548
446.409113
445.032418
443.644882
442.245104
440.830543
439.397184
437.939065
436.449077
434.918208
433.335379
431.688065
429.96082
428.135431
426.192287
424.109984
421.865663
419.435533
416.795582
413.92259
410.794882
407.392927
403.700709
399.706777
395.405263
390.796869
385.889763
380.700487
375.254245
369.585538
363.739058
357.770281
351.753028
345.748962
339.828503
334.066286
328.545266
323.345773
318.553825
314.255709
310.51919
307.403398
304.921273
303.051091
301.732412
300.875852
300.37327
300.115506
300.002954
299.952539
299.917434
299.880083
299.842615
299.816857
299.801155
299.797889
299.796223
299.790501
299.788604
472.536012
471.59792
470.635668
469.649066
468.637983
467.602349
466.542165
465.457499
464.348489
463.215337
462.058307
460.877712
459.673894
458.447207
457.197982
455.926486
454.632883
453.317182
451.979174
450.618332
449.233694
447.823718
446.386088
444.917391
443.412679
441.865513
440.269407
438.616651
436.898536
435.104216
433.221155
431.235189
429.130629
426.890424
424.496433
421.929828
419.17158
416.203102
413.006864
409.56664
405.868625
401.902229
397.660901
393.142955
388.35239
383.299722
378.002797
372.487497
366.788502
360.949274
355.023324
349.077762
343.185849
337.417607
331.846835
326.555629
321.623346
317.128422
313.137265
309.703372
306.867607
304.628596
302.949031
301.760781
300.974267
300.49017
300.213761
300.062159
299.977897
299.912966
299.859352
299.82243
299.806823
299.804707
299.801933
299.798137
299.796703
299.795418
299.790046
299.785591
472.522832
471.558122
470.568603
469.554067
468.514333
467.449239
466.358636
465.242381
464.100327
462.932306
461.73812
460.517518
459.270167
457.995619
456.693228
455.36109
453.996842
452.598201
451.162846
449.687895
448.169825
446.604417
444.986731
443.311075
441.571114
439.75985
437.868012
435.885099
433.799441
431.598232
429.267633
426.792949
424.158883
421.34986
418.350459
415.145942
411.72231
408.067168
404.170347
400.024577
395.626191
390.975867
386.079399
380.948499
375.601647
370.064973
364.372972
358.569035
352.705741
346.844962
341.061861
335.43542
330.04096
324.957379
320.260922
316.021228
312.293309
309.118175
306.51296
304.460674
302.91502
301.807216
301.052702
300.564012
300.261123
300.077431
299.965211
299.885558
299.837362
299.817429
299.812988
299.807914
299.804418
299.802997
299.800925
299.79666
299.792954
299.789534
299.788282
299.786668
472.489713
471.458059
470.399863
469.314851
468.202725
467.063148
465.895734
464.700024
463.474938
462.219155
460.931519
459.610637
458.254835
456.862107
455.430104
453.957075
452.440956
450.878697
449.266245
447.598908
445.87127
444.077157
442.209585
440.260692
438.221686
436.082867
433.833622
431.462494
428.957287
426.305234
423.493209
420.508011
417.336745
413.966967
410.387195
406.587447
402.559791
398.298961
393.803034
389.074156
384.11933
378.951245
373.589131
368.059624
362.397598
356.646788
350.85986
345.098143
339.430793
333.934757
328.69308
323.781875
319.273532
315.230953
311.702169
308.714893
306.27176
304.347764
302.891897
301.834738
301.098081
300.604461
300.284089
300.080796
299.954666
299.877642
299.831051
299.820124
299.81498
299.813079
299.811548
299.80686
299.801963
299.7972
299.793035
299.789677
299.787719
299.787037
299.786474
299.786706
472.436976
471.298669
470.130934
468.933307
467.705235
466.446047
465.154459
463.82922
462.469404
461.07393
459.641088
458.16887
456.654927
455.096533
453.490536
451.833322
450.120749
448.348075
446.509924
444.600234
442.612199
440.538256
438.37008
436.098589
433.713979
431.20579
428.562998
425.774168
422.827631
419.711748
416.415119
412.926861
409.237068
405.337264
401.220931
396.884112
392.326084
387.550107
382.564237
377.382181
372.024166
366.517769
360.898635
355.211042
349.508091
343.851194
338.308612
332.953566
327.861219
323.106285
318.756898
314.868848
311.482711
308.617009
306.267477
304.405597
302.981528
301.931128
301.18398
300.670532
300.32947
300.110403
299.974306
299.893498
299.849452
299.829647
299.822337
299.817787
299.813803
299.809288
299.805031
299.80172
299.798717
299.795676
299.792247
299.788751
299.786928
299.785296
299.784495
299.783015
472.369517
471.094791
469.786976
468.445415
467.069296
465.65752
464.209005
462.722375
461.195948
459.627739
458.015417
456.356269
454.647157
452.884477
451.064111
449.181397
447.231084
445.207283
443.10346
440.912408
438.626247
436.23644
433.733824
431.108675
428.350798
425.449658
422.394556
419.174838
415.780073
412.200421
408.427007
404.452366
400.270966
395.879811
391.279125
386.473107
381.470756
376.286729
370.942189
365.46559
359.893297
354.269946
348.648404
343.089307
337.659641
332.430571
327.473475
322.857225
318.641814
314.875721
311.591548
308.802399
306.501074
304.657942
303.226687
302.149562
301.364704
300.811207
300.433599
300.183998
300.026276
299.931728
299.877896
299.848409
299.833693
299.82586
299.8195
299.812991
299.806902
299.802127
299.79933
299.798123
299.797585
299.795857
299.793515
299.790194
299.787435
299.785361
299.783702
299.781106
472.291177
470.85803
469.387576
467.878962
466.331126
464.742746
463.112431
461.438362
459.718384
457.949961
456.130147
454.255537
452.322238
450.32583
448.261323
446.123139
443.905087
441.60035
439.201487
436.700444
434.088595
431.356798
428.495482
425.494773
422.344657
419.035152
415.556557
411.899767
408.056647
404.020469
399.786437
395.352287
390.718965
385.891385
380.879232
375.697794
370.368769
364.920974
359.390878
353.82283
348.268861
342.787907
337.444351
332.305935
327.440477
322.912401
318.777196
315.077851
311.840865
309.076932
306.775957
304.912914
303.446903
302.327041
301.497738
300.904222
300.494199
300.221552
300.047489
299.93896
299.881262
299.851652
299.836283
299.826337
299.818383
299.812172
299.80783
299.804421
299.801776
299.799377
299.797539
299.796135
299.794835
299.793753
299.792565
299.794217
299.793171
299.790222
299.78744
299.784763
472.204079
470.594798
468.943527
467.249206
465.510504
463.725927
461.893667
460.01149
458.076761
456.086405
454.036867
451.924079
449.743425
447.489722
445.157191
442.739451
440.22952
437.619826
434.902248
432.068165
429.108549
426.014079
422.775296
419.382783
415.827414
412.10066
408.194953
404.104123
399.823911
395.352564
390.691497
385.846028
380.826153
375.647333
370.33124
364.906399
359.408625
353.881159
348.374379
342.944967
337.654419
332.566834
327.745976
323.251885
319.137217
315.442536
312.194746
309.404081
307.06582
305.157631
303.642545
302.472867
301.597605
300.965663
300.525954
300.232617
300.04702
299.93591
299.874335
299.851453
299.838677
299.830412
299.824824
299.819139
299.813941
299.809535
299.805997
299.803084
299.800041
299.79751
299.794838
299.792168
299.790286
299.789135
299.789143
299.792574
299.801744
299.802746
299.801296
299.801674
472.109571
470.309171
468.461708
466.56595
464.620388
462.623166
460.572045
458.464364
456.297001
454.066332
451.768205
449.397906
446.950145
444.419039
441.798113
439.080316
436.25805
433.323229
430.267357
427.081643
423.757149
420.284977
416.65651
412.863702
408.899445
404.75799
400.435453
395.930387
391.244424
386.382984
381.356006
376.178695
370.872214
365.464263
359.989464
354.489441
349.012504
343.612811
338.348961
333.281958
328.472589
323.978357
319.850034
316.12815
312.83975
309.998022
307.600625
305.627244
304.04531
302.812301
301.879782
301.196763
300.713051
300.382986
300.16686
300.030345
299.946777
299.89793
299.870449
299.852085
299.838796
299.829471
299.822227
299.815905
299.809897
299.805222
299.80163
299.79873
299.796881
299.796032
299.796833
299.794977
299.79105
299.789192
299.788454
299.790318
299.800264
299.811831
299.817672
299.820022
472.008747
470.004453
467.947688
465.837003
463.670608
461.446315
459.161504
456.813073
454.397408
451.910347
449.347164
446.702547
443.970603
441.14486
438.218304
435.183425
432.032296
428.756681
425.348179
421.798405
418.099222
414.243026
410.223096
406.034005
401.672106
397.136081
392.427564
387.551799
382.518352
377.341799
372.042383
366.646549
361.187298
355.70426
350.243399
344.856238
339.598548
334.528459
329.704058
325.180592
321.007466
317.225272
313.863064
310.935941
308.443689
306.370001
304.686324
303.35387
302.326812
301.556587
300.995134
300.597788
300.324693
300.141978
300.022507
299.946005
299.897654
299.866359
299.843266
299.829397
299.820507
299.813981
299.808411
299.803851
299.799448
299.795223
299.791853
299.789998
299.78952
299.790509
299.794915
299.802271
299.801644
299.797728
299.795
299.79633
299.800482
299.811089
299.818386
299.82193
471.902523
469.683406
467.406097
465.068913
462.669776
460.206164
457.675067
455.072952
452.395733
449.638752
446.796772
443.863981
440.83402
437.700023
434.454691
431.090391
427.599296
423.973554
420.205512
416.287984
412.214589
407.980144
403.581124
399.016186
394.286755
389.397658
384.357782
379.180735
373.885458
368.496737
363.045548
357.569144
352.110816
346.719222
341.447242
336.350316
331.484208
326.902355
322.653002
318.77639
315.302224
312.247506
309.615572
307.395559
305.563606
304.08569
302.920793
302.024614
301.351991
300.859919
300.508759
300.264291
300.098247
299.988622
299.917662
299.872635
299.844954
299.829237
299.823665
299.819405
299.814365
299.807397
299.801596
299.796185
299.791608
299.787812
299.785313
299.785561
299.786104
299.788211
299.79285
299.804858
299.814334
299.819646
299.820325
299.818941
299.82116
299.819531
299.820255
299.82418
471.791924
469.349128
466.842171
464.269123
461.627614
458.914788
456.127265
453.261112
450.311828
447.274344
444.143037
440.911765
437.573935
434.122585
430.550517
426.850458
423.015259
419.038157
414.913085
410.635044
406.200533
401.608044
396.858611
391.956404
386.909353
381.729771
376.434939
371.047607
365.59634
360.115645
354.645798
349.232293
343.924852
338.775963
333.838961
329.165699
324.803807
320.794032
317.167314
313.943223
311.128951
308.718545
306.693947
305.027664
303.684359
302.625066
301.8088
301.194946
300.745029
300.424043
300.20195
300.053379
299.957748
299.897984
299.862453
299.842307
299.831349
299.825766
299.822624
299.819365
299.814375
299.806729
299.799134
299.79367
299.789279
299.787074
299.786296
299.787412
299.791088
299.794892
299.799019
299.804914
299.812475
299.818417
299.822956
299.824708
299.827949
299.834565
299.839595
299.842963
472.572913
471.709346
470.82323
469.914108
468.98151
468.024953
467.043932
466.037924
465.006382
463.948731
462.864363
461.752633
460.612853
459.444286
458.246139
457.017555
455.757609
454.465296
453.139528
451.779123
450.382797
448.94916
447.476707
445.963813
444.408733
442.809594
441.164402
439.471099
437.727593
435.931755
434.081456
432.17448
430.208578
428.181589
426.091506
423.93654
421.715225
419.426711
417.064647
414.627192
412.113414
409.530413
406.878938
404.160966
401.379747
398.539832
395.646788
392.706981
389.727666
386.716932
383.683514
380.636634
377.58575
374.540228
371.509233
368.501523
365.524971
362.58928
359.714969
356.926172
354.248301
351.707842
349.331562
347.142765
345.156481
343.374707
341.779048
340.325571
338.949696
337.551036
336.062962
334.520601
332.855479
331.089751
329.259305
327.443265
325.754287
324.27361
323.154937
322.399927
472.565561
471.687186
470.785993
469.861606
468.913645
467.941719
466.94543
465.924369
464.87811
463.806212
462.70821
461.583616
460.431907
459.252527
458.044876
456.808307
455.542115
454.245538
452.917738
451.557804
450.164736
448.737441
447.274723
445.775277
444.237682
442.660393
441.041744
439.379942
437.673072
435.919098
434.115876
432.261357
430.353541
428.3905
426.370535
424.291679
422.152181
419.950577
417.685743
415.357161
412.964612
410.500078
407.963763
405.356026
402.677711
399.936395
397.140238
394.291579
391.394702
388.455194
385.479529
382.474846
379.448698
376.408956
373.36418
370.324667
367.30604
364.310884
361.343686
358.441724
355.632851
352.946926
350.419436
348.080908
345.949011
344.027373
342.292436
340.682749
339.097881
337.522314
335.897589
334.150229
332.281429
330.340982
328.405641
326.600356
325.138851
323.970411
323.161853
322.627391
472.556117
471.658699
470.738083
469.793969
468.82606
467.834059
466.817669
465.776588
464.710513
463.619129
462.502112
461.359122
460.1898
458.993763
457.7706
456.519866
455.241075
453.933695
452.597139
451.230759
449.833838
448.405578
446.945093
445.4514
443.92341
442.359916
440.75959
439.120973
437.442471
435.722357
433.958769
432.14972
430.293105
428.386715
426.428265
424.415855
422.347678
420.222113
418.037848
415.793554
413.487859
411.119834
408.689308
406.196864
403.643664
401.024643
398.33559
395.580577
392.763265
389.887457
386.957267
383.977117
380.951687
377.886
374.785377
371.654656
368.494981
365.330979
362.211982
359.15467
356.197139
353.386118
350.759167
348.345915
346.161445
344.189675
342.392829
340.706543
339.051675
337.38096
335.563466
333.633806
331.652437
329.722295
327.910511
326.350683
325.250621
324.4855
323.853484
323.254877
472.544443
471.623473
470.6788
469.710193
468.717435
467.700315
466.658628
465.592178
464.500771
463.384212
462.242309
461.074861
459.88166
458.662487
457.417107
456.145261
454.846667
453.52101
452.167937
450.787046
449.377884
447.939933
446.472601
444.975212
443.446996
441.887073
440.294449
438.667998
437.006453
435.308399
433.572266
431.79632
429.978668
428.117258
426.20989
424.25423
422.247821
420.188096
418.072372
415.898413
413.664276
411.368089
409.008111
406.582733
404.090383
401.529711
398.898784
396.196315
393.421388
390.573438
387.652514
384.659735
381.597841
378.471929
375.290527
372.06728
368.824091
365.580908
362.372212
359.234923
356.213237
353.353526
350.697382
348.273675
346.089981
344.126888
342.331194
340.63077
338.924646
337.192665
335.297585
333.261922
331.355026
329.681857
328.391681
327.360759
326.483681
325.698985
324.965009
324.257156
472.530286
471.580737
470.606837
469.60842
468.585334
467.537446
466.464635
465.366797
464.243838
463.095672
461.922222
460.723414
459.499176
458.249435
456.974112
455.67312
454.346357
452.993702
451.615011
450.210108
448.778775
447.320749
445.835705
444.323249
442.782905
441.214101
439.616155
437.988258
436.329463
434.638664
432.914585
431.155763
429.360538
427.527038
425.653174
423.736633
421.774876
419.765151
417.704504
415.589797
413.417717
411.184797
408.88745
406.522014
404.084858
401.572269
398.981434
396.309476
393.553708
390.711928
387.782826
384.766584
381.665647
378.485567
375.235974
371.931242
368.589943
365.25305
361.961179
358.765921
355.720362
352.875769
350.273397
347.934121
345.848674
343.973241
342.22294
340.551268
338.872473
337.206298
335.506884
333.891784
332.331744
330.949428
329.776605
328.785964
327.9132
327.109825
326.319784
325.51877
472.513223
471.529211
470.520036
469.485578
468.425744
467.340461
466.229683
465.093381
463.931545
462.744184
461.53132
460.292988
459.029233
457.740106
456.425665
455.085968
453.721071
452.331024
450.915864
449.475611
448.010257
446.519763
445.004045
443.462963
441.89631
440.303796
438.685033
437.039514
435.3666
433.665493
431.935217
430.174592
428.382212
426.556422
424.695296
422.796611
420.857823
418.876049
416.848056
414.770244
412.638643
410.448891
408.196263
405.875688
403.481804
401.009019
398.451637
395.804037
393.060969
390.217979
387.27202
384.222238
381.071081
377.825974
374.501162
371.119593
367.714255
364.329174
361.018938
357.845981
354.869757
352.140014
349.688839
347.521256
345.609585
343.893654
342.288511
340.710109
339.104638
337.469098
335.865718
334.393728
333.139969
332.09969
331.215108
330.431095
329.692394
328.95876
328.200546
327.421875
472.492699
471.467221
470.415566
469.337647
468.233411
467.102835
465.945924
464.762709
463.55325
462.317627
461.055943
459.768321
458.454903
457.115844
455.751315
454.361498
452.946583
451.506768
450.042247
448.553213
447.039848
445.502314
443.940749
442.35525
440.745864
439.112573
437.455275
435.773768
434.067726
432.336679
430.579982
428.796783
426.985996
425.146254
423.275886
421.372869
419.434779
417.458744
415.441401
413.378856
411.266645
409.099703
406.872346
404.578289
402.210691
399.762264
397.225459
394.592773
391.857219
389.013009
386.056502
382.987459
379.810616
376.537532
373.188537
369.794472
366.397734
363.051946
359.819502
356.766351
353.953917
351.429123
349.208396
347.274382
345.581881
344.059193
342.627735
341.22641
339.835047
338.483916
337.234012
336.133267
335.183636
334.353071
333.608132
332.915448
332.241924
331.552116
330.832717
330.122764
472.468121
471.392967
470.290386
469.160307
468.002697
466.81756
465.604933
464.364889
463.097532
461.802995
460.48144
459.133058
457.758064
456.356698
454.929225
453.475932
451.997125
450.49313
448.964288
447.410953
445.833484
444.232244
442.607588
440.959855
439.289361
437.596375
435.881115
434.143716
432.384217
430.602529
428.798408
426.971416
425.120875
423.24582
421.344946
419.416553
417.458481
415.46804
413.441938
411.376218
409.266187
407.106373
404.890488
402.611443
400.261411
397.831984
395.31445
392.700245
389.981628
387.152637
384.210368
381.156585
377.999609
374.756341
371.45413
368.132039
364.840887
361.641384
358.599697
355.780281
353.236492
351.000721
349.072356
347.415448
345.985581
344.704528
343.502442
342.339366
341.218958
340.18239
339.276339
338.514735
337.870927
337.307065
336.786412
336.277285
335.750781
335.191947
334.643437
334.195123
472.438977
471.304901
470.141885
468.949848
467.728755
466.478614
465.199473
463.891419
462.554581
461.189121
459.79524
458.373174
456.923195
455.44561
453.940763
452.409034
450.85084
449.266633
447.656901
446.022166
444.362979
442.679922
440.973597
439.244624
437.493626
435.721221
433.928005
432.114527
430.28127
428.428617
426.556821
424.665959
422.755883
420.826162
418.876015
416.904237
414.90912
412.888362
410.838976
408.757197
406.638394
404.477007
402.266512
399.999443
397.667492
395.261738
392.773037
390.192624
387.512982
384.72905
381.839823
378.850165
375.77283
372.630411
369.45681
366.297779
363.209773
360.256546
357.503196
355.007898
352.812533
350.932163
349.345876
348.019037
346.886877
345.883206
344.959868
344.101899
343.328717
342.676182
342.165859
341.784757
341.492617
341.246886
341.00187
340.738265
340.450657
340.187583
340.05014
340.115531
472.40499
471.202193
469.968658
468.704275
467.408983
466.082767
464.725662
463.337749
461.919156
460.470054
458.990663
457.481249
455.942128
454.373664
452.776278
451.150442
449.49669
447.815614
446.107868
444.37417
442.6153
440.832103
439.025481
437.196392
435.345842
433.474873
431.584549
429.675936
427.750076
425.807952
423.850454
421.878327
419.892112
417.892081
415.878157
413.849821
411.80601
409.745006
407.664335
405.560642
403.429597
401.265825
399.062883
396.81331
394.508789
392.140463
389.699437
387.177545
384.568366
381.868601
379.079867
376.210749
373.278652
370.311483
367.348565
364.440169
361.645163
359.026365
356.643581
354.545039
352.758814
351.283168
350.094108
349.140404
348.35916
347.692766
347.106429
346.598433
346.195275
345.93137
345.821449
345.830298
345.942592
346.089456
346.237895
346.386648
346.614646
346.999141
347.652616
348.551803
472.366306
471.085279
469.771444
468.424639
467.044753
465.631728
464.185561
462.706306
461.194069
459.649015
458.071368
456.461413
454.819502
453.146057
451.441576
449.706638
447.941908
446.148144
444.326201
442.477038
440.601718
438.701412
436.777403
434.831077
432.863925
430.877529
428.873549
426.853704
424.819741
422.773403
420.716381
418.650255
416.576429
414.496046
412.409888
410.318276
408.220938
406.116887
404.004294
401.880366
399.74124
397.581925
395.396308
393.177252
390.916868
388.606954
386.239649
383.808331
381.308734
378.740487
376.108609
373.42553
370.712508
368.000639
365.331117
362.753892
360.324682
358.099939
356.13017
354.452495
353.081459
352.011162
351.209019
350.624406
350.199808
349.888012
349.666729
349.544283
349.524784
349.635862
349.93868
350.40281
350.982853
351.622724
352.307128
353.052977
353.912969
354.953882
356.225788
357.598162
472.323614
470.956242
469.55376
468.115931
466.642573
465.133565
463.588848
462.008426
460.392373
458.740831
457.054019
455.332237
453.575875
451.785418
449.961458
448.1047
446.215973
444.296242
442.346615
440.368351
438.362872
436.331765
434.276791
432.199878
430.103127
427.988794
425.859283
423.717116
421.564906
419.405311
417.240979
415.074476
412.908212
410.744331
408.584597
406.430266
404.281951
402.139474
400.001729
397.866572
395.730737
393.589816
391.438307
389.269755
387.076977
384.852719
382.590382
380.284957
377.934114
375.539946
373.110312
370.660456
368.214102
365.803852
363.470699
361.261986
359.227936
357.416609
355.867942
354.607706
353.644261
352.96346
352.533929
352.312013
352.237048
352.248194
352.35671
352.558755
352.874369
353.330419
353.945609
354.718564
355.624175
356.60202
357.627741
358.71309
359.906143
361.20771
362.588822
363.969086
472.27825
470.819125
469.322428
467.787829
466.215061
464.603921
462.95428
461.266081
459.53935
457.774201
455.970847
454.129604
452.250908
450.335323
448.383556
446.396471
444.375105
442.320679
440.234614
438.118546
435.974339
433.804091
431.610145
429.395087
427.161749
424.913194
422.652702
420.383736
418.109906
415.834916
413.562488
411.296284
409.039803
406.796266
404.568464
402.35863
400.168281
397.998056
395.847561
393.715242
391.598291
389.492656
387.393184
385.293896
383.188197
381.069729
378.933201
376.775399
374.596226
372.400219
370.197868
368.006743
365.852093
363.766673
361.789528
359.963487
358.331514
356.932111
355.794461
354.929816
354.341007
354.008476
353.917248
353.987045
354.191096
354.492407
354.871734
355.322843
355.8556
356.47942
357.197723
358.018622
358.942171
359.941051
360.985715
362.06284
363.175757
364.320057
365.459121
366.532532
472.232265
470.680128
469.087906
467.45517
465.781552
464.066759
462.310577
460.512884
458.673651
456.792964
454.871025
452.908177
450.904912
448.86189
446.77996
444.660176
442.503819
440.312417
438.087761
435.831929
433.547298
431.236559
428.902725
426.549137
424.179456
421.797651
419.407978
417.01494
414.623242
412.23772
409.863256
407.504674
405.166616
402.85339
400.568799
398.315956
396.097115
393.913502
391.7652
389.65105
387.56861
385.514218
383.483196
381.470195
379.469572
377.476169
375.486193
373.498233
371.514304
369.540994