/*--------------------------------*- C++ -*----------------------------------*\
  =========                 |
  \\      /  F ield         | OpenFOAM: The Open Source CFD Toolbox
   \\    /   O peration     | Website:  https://openfoam.org
    \\  /    A nd           | Version:  8
     \\/     M anipulation  |
\*---------------------------------------------------------------------------*/
FoamFile
{
    version     2.0;
    format      ascii;
    class       volScalarField;
    location    "0.061";
    object      p;
}
// * * * * * * * * * * * * * * * * * * * * * * * * * * * * * * * * * * * * * //

dimensions      [1 -1 -2 0 0 0 0];

internalField   nonuniform List<scalar> 
42400
(
101532.813
101532.799
101532.784
101532.768
101532.751
101532.734
101532.716
101532.697
101532.678
101532.657
101532.636
101532.614
101532.592
101532.568
101532.544
101532.518
101532.491
101532.463
101532.434
101532.403
101532.37
101532.336
101532.3
101532.262
101532.221
101532.179
101532.133
101532.085
101532.033
101531.979
101531.921
101531.859
101531.794
101531.724
101531.65
101531.572
101531.489
101531.402
101531.319
101531.238
101531.137
101531.012
101530.874
101530.737
101530.609
101530.481
101530.348
101530.21
101530.068
101529.92
101529.765
101529.602
101529.452
101529.309
101529.168
101529.001
101528.811
101528.642
101528.49
101528.346
101528.199
101528.055
101527.918
101527.796
101527.691
101527.621
101527.595
101527.574
101527.657
101527.939
101528.017
101528.396
101529.895
101530.719
101529.089
101529.568
101532.862
101535.162
101540.307
101545.877
101532.863
101532.852
101532.839
101532.826
101532.812
101532.798
101532.782
101532.766
101532.749
101532.731
101532.712
101532.693
101532.672
101532.651
101532.628
101532.605
101532.58
101532.554
101532.527
101532.499
101532.469
101532.437
101532.403
101532.368
101532.33
101532.29
101532.247
101532.202
101532.154
101532.103
101532.048
101531.99
101531.929
101531.864
101531.793
101531.724
101531.661
101531.596
101531.51
101531.4
101531.29
101531.189
101531.089
101530.984
101530.875
101530.763
101530.645
101530.521
101530.4
101530.293
101530.19
101530.063
101529.912
101529.776
101529.659
101529.553
101529.444
101529.337
101529.237
101529.149
101529.078
101529.034
101529.029
101529.064
101529.125
101529.217
101529.391
101529.621
101529.977
101530.688
101531.489
101532.178
101533.972
101535.412
101535.641
101538.917
101543.805
101548.812
101551.977
101553.728
101533.031
101533.023
101533.013
101533.002
101532.991
101532.979
101532.966
101532.953
101532.939
101532.924
101532.908
101532.891
101532.874
101532.856
101532.837
101532.817
101532.796
101532.774
101532.751
101532.726
101532.701
101532.674
101532.645
101532.615
101532.583
101532.549
101532.513
101532.475
101532.434
101532.391
101532.344
101532.298
101532.253
101532.207
101532.16
101532.099
101532.021
101531.938
101531.861
101531.789
101531.715
101531.636
101531.555
101531.468
101531.374
101531.288
101531.211
101531.144
101531.041
101530.916
101530.824
101530.745
101530.664
101530.581
101530.501
101530.43
101530.37
101530.329
101530.316
101530.326
101530.369
101530.452
101530.591
101530.816
101531.118
101531.494
101531.953
101532.534
101533.227
101534.175
101535.356
101536.386
101538.534
101544.226
101548.22
101548.583
101548.889
101552.368
101556.158
101559.221
101533.337
101533.33
101533.322
101533.314
101533.305
101533.295
101533.285
101533.274
101533.262
101533.25
101533.238
101533.224
101533.211
101533.196
101533.182
101533.166
101533.15
101533.134
101533.116
101533.098
101533.079
101533.059
101533.038
101533.016
101532.993
101532.968
101532.942
101532.914
101532.886
101532.858
101532.83
101532.797
101532.756
101532.709
101532.658
101532.611
101532.567
101532.52
101532.469
101532.416
101532.359
101532.295
101532.241
101532.206
101532.153
101532.068
101531.987
101531.925
101531.875
101531.815
101531.755
101531.7
101531.652
101531.618
101531.601
101531.601
101531.621
101531.664
101531.744
101531.871
101532.055
101532.312
101532.664
101533.159
101533.763
101534.501
101535.261
101536.244
101537.197
101538.422
101541.153
101545.198
101547.452
101547.507
101549.297
101552.05
101554.563
101557.112
101559.153
101561.441
101533.769
101533.763
101533.756
101533.749
101533.741
101533.733
101533.724
101533.716
101533.707
101533.697
101533.688
101533.679
101533.669
101533.659
101533.649
101533.639
101533.629
101533.619
101533.608
101533.598
101533.587
101533.576
101533.564
101533.551
101533.538
101533.525
101533.511
101533.497
101533.481
101533.462
101533.442
101533.42
101533.399
101533.379
101533.356
101533.332
101533.305
101533.276
101533.24
101533.213
101533.202
101533.17
101533.115
101533.074
101533.046
101533.016
101532.981
101532.946
101532.916
101532.894
101532.883
101532.882
101532.894
101532.923
101532.977
101533.061
101533.188
101533.363
101533.597
101533.901
101534.295
101534.776
101535.377
101536.147
101537.078
101538.152
101539.044
101540.36
101543.609
101546.814
101547.823
101548.388
101550.212
101552.551
101555.085
101556.872
101558.761
101560.894
101563.484
101565.668
101534.304
101534.298
101534.291
101534.284
101534.277
101534.27
101534.263
101534.256
101534.249
101534.243
101534.236
101534.231
101534.225
101534.22
101534.215
101534.211
101534.207
101534.204
101534.201
101534.198
101534.194
101534.191
101534.189
101534.189
101534.19
101534.19
101534.19
101534.19
101534.19
101534.19
101534.189
101534.187
101534.184
101534.181
101534.175
101534.164
101534.161
101534.173
101534.166
101534.139
101534.126
101534.123
101534.116
101534.107
101534.099
101534.096
101534.097
101534.104
101534.12
101534.147
101534.191
101534.257
101534.35
101534.476
101534.643
101534.859
101535.138
101535.493
101535.939
101536.462
101537.092
101537.792
101538.618
101539.513
101540.557
101542.474
101545.903
101547.839
101548.33
101549.19
101551.411
101553.559
101555.039
101556.598
101558.356
101560.499
101562.624
101564.81
101567.125
101568.921
101534.892
101534.886
101534.879
101534.872
101534.866
101534.86
101534.854
101534.849
101534.844
101534.841
101534.838
101534.836
101534.835
101534.835
101534.836
101534.839
101534.841
101534.844
101534.849
101534.857
101534.866
101534.877
101534.889
101534.9
101534.912
101534.926
101534.939
101534.953
101534.968
101534.983
101534.998
101535.012
101535.023
101535.041
101535.073
101535.088
101535.087
101535.099
101535.121
101535.138
101535.153
101535.17
101535.19
101535.212
101535.24
101535.275
101535.321
101535.381
101535.46
101535.562
101535.692
101535.856
101536.063
101536.322
101536.646
101537.048
101537.542
101538.125
101538.83
101539.61
101540.531
101541.453
101542.502
101544.728
101547.433
101548.917
101549.398
101550.601
101552.654
101554.36
101555.833
101557.37
101559.314
101561.046
101563.131
101565.091
101567.019
101569.088
101571.187
101572.902
101535.484
101535.477
101535.47
101535.463
101535.458
101535.453
101535.449
101535.447
101535.445
101535.445
101535.446
101535.449
101535.453
101535.459
101535.466
101535.475
101535.487
101535.502
101535.517
101535.534
101535.552
101535.572
101535.594
101535.618
101535.643
101535.669
101535.698
101535.727
101535.757
101535.784
101535.819
101535.867
101535.901
101535.922
101535.956
101535.998
101536.036
101536.074
101536.113
101536.154
101536.199
101536.249
101536.305
101536.37
101536.447
101536.54
101536.652
101536.789
101536.955
101537.157
101537.403
101537.702
101538.067
101538.513
101539.046
101539.675
101540.403
101541.213
101542.149
101543.032
101544.319
101546.801
101549.209
101550.179
101550.562
101551.414
101553.067
101554.956
101556.536
101558.244
101559.979
101561.786
101563.819
101565.749
101567.616
101569.404
101571.55
101573.631
101576.009
101578.245
101536.01
101536.004
101535.997
101535.992
101535.989
101535.987
101535.986
101535.987
101535.989
101535.993
101535.999
101536.008
101536.019
101536.032
101536.048
101536.065
101536.085
101536.108
101536.133
101536.161
101536.19
101536.223
101536.258
101536.295
101536.334
101536.375
101536.415
101536.462
101536.521
101536.57
101536.609
101536.66
101536.719
101536.775
101536.832
101536.891
101536.953
101537.018
101537.088
101537.164
101537.248
101537.342
101537.45
101537.575
101537.72
101537.891
101538.093
101538.331
101538.611
101538.942
101539.336
101539.804
101540.357
101541.001
101541.73
101542.561
101543.492
101544.473
101545.925
101548.271
101550.066
101550.703
101551.224
101552.616
101554.469
101556.233
101558.053
101559.932
101561.391
101562.956
101564.658
101566.424
101568.284
101570.14
101572.053
101574.025
101576.098
101578.295
101580.668
101583.037
101536.407
101536.402
101536.398
101536.395
101536.395
101536.396
101536.4
101536.406
101536.415
101536.426
101536.439
101536.455
101536.474
101536.495
101536.52
101536.547
101536.578
101536.612
101536.648
101536.688
101536.731
101536.777
101536.826
101536.875
101536.93
101536.998
101537.058
101537.111
101537.175
101537.247
101537.318
101537.391
101537.466
101537.545
101537.628
101537.715
101537.809
101537.91
101538.021
101538.144
101538.283
101538.44
101538.62
101538.827
101539.066
101539.344
101539.665
101540.037
101540.468
101540.972
101541.557
101542.228
101542.986
101543.829
101544.736
101545.726
101547.304
101549.49
101551.071
101551.799
101552.695
101554.199
101556.244
101558.227
101559.506
101560.462
101561.941
101563.778
101565.14
101566.415
101568.074
101570.063
101571.958
101573.869
101575.816
101577.991
101579.927
101581.713
101584.115
101586.656
101536.612
101536.61
101536.61
101536.612
101536.616
101536.623
101536.633
101536.645
101536.66
101536.679
101536.7
101536.725
101536.754
101536.786
101536.822
101536.861
101536.904
101536.951
101537.001
101537.055
101537.111
101537.173
101537.245
101537.314
101537.378
101537.453
101537.535
101537.617
101537.702
101537.791
101537.883
101537.98
101538.082
101538.19
101538.305
101538.429
101538.565
101538.714
101538.88
101539.066
101539.277
101539.516
101539.79
101540.105
101540.464
101540.876
101541.346
101541.885
101542.503
101543.203
101543.983
101544.84
101545.778
101546.792
101548.269
101550.263
101551.637
101552.299
101553.288
101554.995
101556.796
101558.253
101559.566
101560.783
101562.095
101563.734
101565.344
101566.616
101568.134
101570.089
101572.031
101573.997
101576.015
101578.071
101580.129
101582.357
101584.666
101587.145
101589.118
101590.854
101536.555
101536.558
101536.563
101536.57
101536.581
101536.595
101536.612
101536.633
101536.657
101536.685
101536.717
101536.753
101536.794
101536.838
101536.887
101536.94
101536.997
101537.057
101537.123
101537.199
101537.274
101537.346
101537.429
101537.518
101537.609
101537.703
101537.801
101537.904
101538.012
101538.125
101538.243
101538.369
101538.503
101538.647
101538.804
101538.976
101539.165
101539.376
101539.613
101539.881
101540.185
101540.531
101540.924
101541.373
101541.882
101542.46
101543.118
101543.867
101544.706
101545.647
101546.669
101547.791
101549.118
101550.499
101551.47
101552.504
101553.984
101555.66
101557.062
101558.424
101559.979
101561.199
101562.356
101563.732
101565.448
101567.187
101568.893
101570.562
101572.153
101573.78
101575.81
101578.056
101580.144
101582.386
101584.595
101586.63
101588.828
101590.795
101592.652
101595.041
101536.163
101536.172
101536.184
101536.199
101536.218
101536.241
101536.268
101536.299
101536.334
101536.374
101536.418
101536.467
101536.521
101536.579
101536.642
101536.711
101536.789
101536.867
101536.946
101537.034
101537.128
101537.225
101537.327
101537.433
101537.545
101537.661
101537.782
101537.91
101538.044
101538.186
101538.338
101538.501
101538.676
101538.868
101539.078
101539.311
101539.57
101539.86
101540.186
101540.554
101540.969
101541.437
101541.964
101542.554
101543.215
101543.95
101544.765
101545.666
101546.645
101547.691
101548.711
101550.046
101551.76
101553.44
101555.212
101556.712
101558.001
101559.039
101560.033
101561.246
101562.413
101563.839
101565.589
101567.438
101569.191
101570.891
101572.649
101574.493
101576.323
101578.375
101580.55
101582.341
101584.056
101585.663
101587.215
101589.196
101591.607
101594.269
101596.403
101598.094
101535.36
101535.376
101535.398
101535.423
101535.452
101535.485
101535.524
101535.567
101535.615
101535.669
101535.727
101535.791
101535.863
101535.94
101536.018
101536.101
101536.192
101536.29
101536.392
101536.499
101536.611
101536.729
101536.852
101536.981
101537.116
101537.259
101537.409
101537.568
101537.737
101537.919
101538.115
101538.328
101538.562
101538.819
101539.104
101539.421
101539.775
101540.172
101540.615
101541.111
101541.664
101542.278
101542.956
101543.701
101544.519
101545.388
101546.322
101547.323
101548.752
101550.654
101552.542
101553.897
101554.729
101555.604
101556.557
101557.405
101558.265
101559.774
101562.043
101564.024
101565.704
101567.331
101569.015
101570.773
101572.556
101574.385
101576.233
101578.156
101580.221
101581.827
101583.523
101585.893
101587.677
101589.286
101591.33
101593.199
101595.141
101597.235
101599.288
101601.704
101534.075
101534.101
101534.134
101534.171
101534.212
101534.259
101534.311
101534.368
101534.431
101534.501
101534.575
101534.654
101534.74
101534.833
101534.931
101535.035
101535.144
101535.26
101535.381
101535.509
101535.642
101535.783
101535.93
101536.086
101536.25
101536.425
101536.611
101536.811
101537.028
101537.263
101537.52
101537.803
101538.116
101538.464
101538.852
101539.284
101539.766
101540.302
101540.896
101541.553
101542.276
101543.066
101543.922
101544.848
101545.852
101546.892
101548.261
101550.187
101551.486
101552.209
101552.923
101553.954
101555.54
101557.166
101558.811
101560.797
101562.805
101564.247
101565.432
101566.887
101568.526
101570.272
101572.085
101573.875
101575.709
101577.579
101579.399
101581.244
101583.307
101585.37
101586.783
101588.437
101590.613
101592.316
101594.737
101597.914
101599.747
101601.254
101603.211
101605.668
101532.246
101532.284
101532.331
101532.382
101532.438
101532.499
101532.566
101532.639
101532.717
101532.802
101532.894
101532.991
101533.095
101533.204
101533.321
101533.443
101533.572
101533.708
101533.851
101534.002
101534.16
101534.328
101534.506
101534.695
101534.898
101535.116
101535.352
101535.609
101535.891
101536.201
101536.544
101536.925
101537.349
101537.822
101538.347
101538.931
101539.578
101540.291
101541.073
101541.925
101542.847
101543.84
101544.886
101545.968
101547.091
101548.367
101549.71
101550.862
101552.254
101553.994
101555.74
101557.482
101559.259
101560.966
101562.34
101563.489
101564.649
101565.994
101567.297
101568.637
101570.561
101572.839
101575.03
101576.954
101578.755
101580.748
101582.794
101584.748
101586.815
101589.174
101591.624
101593.358
101594.894
101597.084
101599.122
101600.934
101603.354
101605.971
101607.055
101608.611
101529.839
101529.892
101529.954
101530.021
101530.092
101530.169
101530.252
101530.341
101530.437
101530.538
101530.646
101530.761
101530.882
101531.009
101531.144
101531.285
101531.434
101531.591
101531.756
101531.931
101532.117
101532.314
101532.526
101532.755
101533.002
101533.271
101533.565
101533.889
101534.247
101534.643
101535.082
101535.57
101536.111
101536.709
101537.369
101538.094
101538.887
101539.75
101540.684
101541.689
101542.769
101543.929
101545.145
101546.346
101547.917
101550.121
101551.921
101553.605
101554.955
101555.968
101557.099
101558.256
101559.338
101560.418
101561.998
101564.089
101566.13
101568.375
101570.82
101573.502
101575.379
101576.789
101578.322
101580.345
101582.937
101584.985
101586.747
101588.653
101590.493
101592.012
101593.586
101595.32
101597.349
101600.78
101603.286
101604.69
101606.316
101607.862
101609.354
101611.133
101526.848
101526.915
101526.996
101527.079
101527.167
101527.26
101527.36
101527.466
101527.579
101527.698
101527.823
101527.956
101528.096
101528.243
101528.399
101528.563
101528.737
101528.922
101529.119
101529.33
101529.557
101529.803
101530.07
101530.362
101530.683
101531.037
101531.429
101531.864
101532.347
101532.882
101533.475
101534.131
101534.851
101535.64
101536.499
101537.426
101538.42
101539.475
101540.581
101541.712
101542.874
101544.357
101546.296
101547.954
101549.451
101550.703
101551.542
101552.236
101553.564
101555.877
101558.116
101560.4
101562.762
101565.268
101567.41
101569.102
101570.704
101572.286
101573.943
101575.634
101577.556
101579.788
101582.155
101583.892
101585.388
101587.007
101588.64
101590.514
101592.6
101594.597
101596.497
101598.336
101600.201
101602.355
101605.028
101607.313
101609.142
101611.8
101613.218
101614.24
101523.344
101523.428
101523.527
101523.628
101523.733
101523.844
101523.962
101524.086
101524.217
101524.354
101524.499
101524.652
101524.814
101524.985
101525.167
101525.36
101525.567
101525.789
101526.029
101526.29
101526.574
101526.885
101527.228
101527.607
101528.027
101528.493
101529.011
101529.584
101530.219
101530.92
101531.69
101532.532
101533.45
101534.442
101535.51
101536.653
101537.872
101539.146
101540.497
101541.93
101543.715
101545.663
101547.173
101549.001
101550.78
101552.25
101554.287
101556.496
101558.394
101560.192
101561.974
101563.76
101565.754
101567.391
101568.796
101570.489
101572.223
101573.861
101575.508
101577.198
101578.887
101580.528
101582.125
101584.598
101587.452
101589.584
101591.539
101593.546
101595.578
101597.472
101599.048
101601.265
101604.488
101606.586
101608.652
101610.652
101611.384
101613.088
101616.267
101618.871
101519.335
101519.436
101519.552
101519.671
101519.793
101519.921
101520.055
101520.197
101520.345
101520.502
101520.669
101520.845
101521.032
101521.233
101521.45
101521.683
101521.937
101522.215
101522.519
101522.856
101523.228
101523.642
101524.103
101524.616
101525.188
101525.825
101526.531
101527.312
101528.171
101529.113
101530.138
101531.247
101532.438
101533.707
101535.046
101536.446
101537.888
101539.347
101541.243
101543.847
101545.525
101546.804
101548.471
101550.317
101552.114
101554.265
101556.205
101557.579
101558.9
101560.417
101562.202
101563.875
101565.431
101567.201
101569.14
101571.075
101573.111
101575.138
101577.126
101579.324
101581.876
101584.51
101586.911
101588.757
101590.3
101592.38
101594.343
101596.361
101598.791
101601.002
101603.157
101605.433
101607.635
101610.213
101612.748
101614.604
101616.617
101618.035
101619.573
101621.289
101528.416
101528.421
101528.427
101528.43
101528.433
101528.433
101528.433
101528.431
101528.427
101528.422
101528.416
101528.407
101528.397
101528.385
101528.372
101528.356
101528.339
101528.319
101528.297
101528.273
101528.246
101528.217
101528.185
101528.151
101528.113
101528.072
101528.029
101527.981
101527.93
101527.876
101527.817
101527.754
101527.687
101527.615
101527.538
101527.456
101527.368
101527.275
101527.175
101527.069
101526.956
101526.836
101526.708
101526.571
101526.427
101526.272
101526.108
101525.933
101525.744
101525.542
101525.324
101525.091
101524.84
101524.57
101524.281
101523.968
101523.631
101523.266
101522.87
101522.439
101521.969
101521.454
101520.89
101520.269
101519.585
101518.827
101517.985
101517.043
101515.974
101514.793
101513.6
101512.391
101510.872
101509.281
101507.6
101505.518
101503.177
101500.936
101498.036
101495.384
101528.597
101528.602
101528.606
101528.61
101528.611
101528.612
101528.612
101528.61
101528.607
101528.603
101528.597
101528.59
101528.582
101528.572
101528.56
101528.547
101528.532
101528.516
101528.497
101528.477
101528.455
101528.43
101528.403
101528.374
101528.343
101528.308
101528.271
101528.232
101528.189
101528.143
101528.094
101528.041
101527.984
101527.924
101527.859
101527.79
101527.717
101527.638
101527.555
101527.466
101527.371
101527.27
101527.163
101527.051
101526.931
101526.801
101526.657
101526.504
101526.347
101526.178
101525.995
101525.798
101525.586
101525.356
101525.107
101524.837
101524.543
101524.224
101523.876
101523.497
101523.083
101522.63
101522.132
101521.586
101520.985
101520.322
101519.588
101518.771
101517.863
101516.88
101515.818
101514.736
101513.598
101512.237
101510.616
101508.915
101507.197
101505.319
101503.5
101501.223
101528.959
101528.963
101528.966
101528.969
101528.971
101528.971
101528.971
101528.97
101528.968
101528.965
101528.961
101528.956
101528.95
101528.943
101528.935
101528.925
101528.914
101528.902
101528.888
101528.873
101528.857
101528.838
101528.819
101528.797
101528.773
101528.748
101528.72
101528.691
101528.659
101528.624
101528.587
101528.548
101528.505
101528.46
101528.412
101528.36
101528.305
101528.246
101528.183
101528.117
101528.048
101527.974
101527.895
101527.806
101527.711
101527.614
101527.51
101527.397
101527.277
101527.148
101527.009
101526.86
101526.698
101526.523
101526.333
101526.126
101525.9
101525.654
101525.385
101525.09
101524.766
101524.41
101524.016
101523.582
101523.099
101522.559
101521.956
101521.284
101520.552
101519.762
101518.919
101518.002
101517.014
101515.914
101514.709
101513.442
101511.953
101510.342
101509.287
101506.523
101529.469
101529.472
101529.474
101529.477
101529.478
101529.479
101529.48
101529.48
101529.479
101529.478
101529.476
101529.473
101529.47
101529.466
101529.462
101529.457
101529.45
101529.444
101529.436
101529.427
101529.418
101529.407
101529.395
101529.383
101529.369
101529.354
101529.337
101529.32
101529.301
101529.281
101529.259
101529.235
101529.21
101529.183
101529.155
101529.124
101529.092
101529.058
101529.023
101528.984
101528.939
101528.892
101528.844
101528.794
101528.739
101528.68
101528.618
101528.55
101528.478
101528.4
101528.315
101528.223
101528.123
101528.015
101527.896
101527.766
101527.624
101527.467
101527.293
101527.1
101526.884
101526.643
101526.371
101526.064
101525.717
101525.324
101524.882
101524.39
101523.847
101523.242
101522.548
101521.723
101520.753
101519.659
101518.491
101517.21
101515.578
101514.175
101512.072
101509.447
101530.077
101530.079
101530.081
101530.083
101530.085
101530.086
101530.087
101530.088
101530.089
101530.089
101530.09
101530.09
101530.09
101530.09
101530.09
101530.089
101530.088
101530.087
101530.086
101530.084
101530.082
101530.08
101530.077
101530.074
101530.07
101530.067
101530.062
101530.058
101530.053
101530.047
101530.041
101530.035
101530.028
101530.022
101530.016
101530.008
101529.999
101529.989
101529.978
101529.967
101529.956
101529.944
101529.931
101529.917
101529.902
101529.886
101529.868
101529.849
101529.827
101529.804
101529.777
101529.747
101529.713
101529.674
101529.63
101529.58
101529.524
101529.46
101529.386
101529.302
101529.204
101529.091
101528.956
101528.795
101528.6
101528.364
101528.077
101527.728
101527.3
101526.772
101526.132
101525.387
101524.571
101523.702
101522.537
101521.33
101520.201
101518.438
101515.982
101514.253
101530.741
101530.742
101530.743
101530.744
101530.745
101530.747
101530.749
101530.751
101530.753
101530.756
101530.759
101530.762
101530.765
101530.768
101530.772
101530.776
101530.78
101530.785
101530.79
101530.795
101530.8
101530.806
101530.812
101530.819
101530.826
101530.833
101530.84
101530.849
101530.858
101530.869
101530.879
101530.89
101530.901
101530.912
101530.923
101530.937
101530.951
101530.967
101530.983
101531
101531.019
101531.038
101531.059
101531.081
101531.104
101531.128
101531.153
101531.18
101531.207
101531.235
101531.263
101531.292
101531.321
101531.349
101531.377
101531.403
101531.427
101531.449
101531.467
101531.481
101531.489
101531.488
101531.474
101531.44
101531.377
101531.276
101531.121
101530.898
101530.591
101530.19
101529.695
101529.116
101528.462
101527.485
101526.635
101525.966
101524.533
101523.134
101522.331
101521.046
101531.405
101531.405
101531.406
101531.406
101531.408
101531.41
101531.412
101531.415
101531.419
101531.423
101531.428
101531.433
101531.439
101531.446
101531.453
101531.461
101531.47
101531.48
101531.491
101531.502
101531.514
101531.527
101531.541
101531.557
101531.574
101531.591
101531.61
101531.629
101531.649
101531.671
101531.694
101531.72
101531.747
101531.776
101531.807
101531.839
101531.874
101531.911
101531.951
101531.993
101532.037
101532.085
101532.135
101532.188
101532.244
101532.303
101532.366
101532.432
101532.501
101532.574
101532.65
101532.729
101532.811
101532.897
101532.985
101533.076
101533.17
101533.266
101533.364
101533.464
101533.564
101533.662
101533.755
101533.836
101533.896
101533.923
101533.903
101533.817
101533.649
101533.39
101533.038
101532.597
101532.05
101531.387
101530.662
101529.855
101528.917
101528.009
101527.166
101525.803
101532.031
101532.03
101532.03
101532.03
101532.031
101532.033
101532.035
101532.039
101532.043
101532.049
101532.055
101532.063
101532.071
101532.081
101532.092
101532.104
101532.116
101532.13
101532.145
101532.161
101532.178
101532.197
101532.217
101532.238
101532.261
101532.286
101532.313
101532.342
101532.372
101532.405
101532.439
101532.476
101532.516
101532.558
101532.602
101532.65
101532.7
101532.754
101532.811
101532.871
101532.936
101533.004
101533.076
101533.152
101533.233
101533.318
101533.407
101533.502
101533.601
101533.706
101533.815
101533.93
101534.05
101534.175
101534.306
101534.443
101534.586
101534.734
101534.89
101535.052
101535.22
101535.392
101535.566
101535.736
101535.894
101536.027
101536.12
101536.155
101536.114
101535.982
101535.751
101535.409
101534.933
101534.333
101533.646
101532.891
101532.099
101531.369
101530.669
101529.543
101532.581
101532.579
101532.578
101532.577
101532.578
101532.579
101532.582
101532.585
101532.59
101532.595
101532.602
101532.61
101532.619
101532.629
101532.641
101532.654
101532.668
101532.684
101532.702
101532.721
101532.742
101532.764
101532.789
101532.815
101532.843
101532.872
101532.904
101532.939
101532.975
101533.014
101533.056
101533.1
101533.147
101533.197
101533.25
101533.306
101533.366
101533.429
101533.497
101533.568
101533.643
101533.723
101533.807
101533.896
101533.99
101534.089
101534.194
101534.303
101534.418
101534.538
101534.664
101534.796
101534.934
101535.077
101535.227
101535.382
101535.544
101535.713
101535.888
101536.07
101536.26
101536.454
101536.65
101536.844
101537.037
101537.216
101537.363
101537.46
101537.492
101537.413
101537.192
101536.807
101536.29
101535.704
101535.072
101534.413
101533.758
101533.138
101532.52
101531.716
101533.026
101533.023
101533.02
101533.019
101533.019
101533.019
101533.021
101533.024
101533.028
101533.033
101533.04
101533.048
101533.057
101533.068
101533.08
101533.094
101533.109
101533.126
101533.144
101533.164
101533.185
101533.209
101533.234
101533.262
101533.291
101533.322
101533.356
101533.392
101533.43
101533.471
101533.514
101533.56
101533.609
101533.661
101533.716
101533.775
101533.837
101533.902
101533.971
101534.044
101534.122
101534.203
101534.289
101534.379
101534.474
101534.575
101534.68
101534.79
101534.905
101535.026
101535.151
101535.282
101535.417
101535.558
101535.705
101535.857
101536.015
101536.181
101536.36
101536.552
101536.757
101536.973
101537.201
101537.432
101537.641
101537.815
101537.936
101537.99
101537.939
101537.76
101537.445
101537.001
101536.487
101535.937
101535.357
101534.763
101534.178
101533.657
101533.194
101532.506
101533.351
101533.347
101533.343
101533.34
101533.338
101533.338
101533.338
101533.34
101533.343
101533.347
101533.352
101533.359
101533.367
101533.376
101533.387
101533.399
101533.413
101533.428
101533.445
101533.463
101533.483
101533.505
101533.529
101533.554
101533.582
101533.611
101533.642
101533.675
101533.711
101533.749
101533.789
101533.831
101533.876
101533.924
101533.974
101534.027
101534.083
101534.142
101534.204
101534.269
101534.337
101534.408
101534.483
101534.561
101534.642
101534.727
101534.815
101534.906
101535
101535.098
101535.2
101535.307
101535.421
101535.541
101535.668
101535.803
101535.946
101536.093
101536.239
101536.386
101536.536
101536.686
101536.839
101537.015
101537.192
101537.333
101537.424
101537.433
101537.277
101536.958
101536.515
101536.002
101535.465
101534.925
101534.405
101533.923
101533.517
101533.255
101533.105
101532.68
101533.558
101533.552
101533.547
101533.542
101533.539
101533.536
101533.535
101533.534
101533.535
101533.537
101533.54
101533.544
101533.549
101533.556
101533.564
101533.573
101533.584
101533.596
101533.609
101533.624
101533.64
101533.657
101533.676
101533.697
101533.719
101533.743
101533.768
101533.795
101533.824
101533.854
101533.886
101533.92
101533.956
101533.993
101534.032
101534.073
101534.116
101534.161
101534.207
101534.255
101534.305
101534.356
101534.41
101534.465
101534.523
101534.584
101534.648
101534.715
101534.785
101534.857
101534.927
101534.993
101535.057
101535.118
101535.176
101535.231
101535.284
101535.347
101535.416
101535.481
101535.541
101535.593
101535.631
101535.651
101535.655
101535.628
101535.561
101535.422
101535.167
101534.792
101534.314
101533.784
101533.245
101532.732
101532.269
101531.894
101531.559
101531.482
101531.591
101531.491
101533.652
101533.645
101533.637
101533.63
101533.625
101533.62
101533.616
101533.612
101533.61
101533.609
101533.608
101533.609
101533.611
101533.613
101533.617
101533.622
101533.628
101533.634
101533.642
101533.651
101533.661
101533.672
101533.685
101533.698
101533.712
101533.727
101533.743
101533.761
101533.779
101533.798
101533.818
101533.838
101533.86
101533.882
101533.905
101533.928
101533.953
101533.979
101534.005
101534.033
101534.062
101534.093
101534.124
101534.151
101534.175
101534.197
101534.216
101534.232
101534.244
101534.254
101534.265
101534.275
101534.282
101534.282
101534.274
101534.257
101534.229
101534.185
101534.132
101534.075
101534.009
101533.934
101533.845
101533.737
101533.602
101533.425
101533.199
101532.884
101532.476
101531.981
101531.431
101530.868
101530.26
101529.74
101529.347
101529.063
101528.946
101529.167
101529.614
101529.773
101533.651
101533.642
101533.631
101533.622
101533.614
101533.606
101533.598
101533.592
101533.586
101533.581
101533.576
101533.572
101533.569
101533.567
101533.565
101533.564
101533.564
101533.565
101533.566
101533.568
101533.57
101533.573
101533.577
101533.581
101533.585
101533.59
101533.595
101533.601
101533.607
101533.613
101533.62
101533.627
101533.634
101533.641
101533.648
101533.654
101533.657
101533.658
101533.657
101533.653
101533.647
101533.637
101533.625
101533.615
101533.605
101533.59
101533.569
101533.542
101533.508
101533.466
101533.416