/*--------------------------------*- C++ -*----------------------------------*\
  =========                 |
  \\      /  F ield         | OpenFOAM: The Open Source CFD Toolbox
   \\    /   O peration     | Website:  https://openfoam.org
    \\  /    A nd           | Version:  8
     \\/     M anipulation  |
\*---------------------------------------------------------------------------*/
FoamFile
{
    version     2.0;
    format      ascii;
    class       volScalarField;
    location    "0.061";
    object      p_rgh;
}
// * * * * * * * * * * * * * * * * * * * * * * * * * * * * * * * * * * * * * //

dimensions      [1 -1 -2 0 0 0 0];

internalField   nonuniform List<scalar> 
42400
(
101533.593
101533.579
101533.563
101533.547
101533.531
101533.514
101533.496
101533.477
101533.457
101533.437
101533.416
101533.395
101533.372
101533.348
101533.324
101533.299
101533.272
101533.244
101533.215
101533.184
101533.152
101533.118
101533.083
101533.045
101533.005
101532.962
101532.917
101532.87
101532.819
101532.765
101532.708
101532.647
101532.582
101532.514
101532.441
101532.364
101532.282
101532.196
101532.114
101532.034
101531.937
101531.816
101531.68
101531.544
101531.416
101531.29
101531.159
101531.024
101530.884
101530.738
101530.586
101530.426
101530.279
101530.139
101530.001
101529.84
101529.655
101529.49
101529.343
101529.204
101529.064
101528.926
101528.797
101528.682
101528.585
101528.526
101528.511
101528.508
101528.621
101528.888
101528.975
101529.47
101530.814
101531.197
101529.676
101531.157
101535.093
101536.81
101541.438
101545.859
101533.685
101533.675
101533.662
101533.649
101533.635
101533.62
101533.604
101533.588
101533.571
101533.553
101533.534
101533.515
101533.494
101533.473
101533.451
101533.427
101533.403
101533.377
101533.35
101533.322
101533.292
101533.26
101533.227
101533.192
101533.154
101533.115
101533.072
101533.028
101532.98
101532.929
101532.876
101532.819
101532.758
101532.693
101532.624
101532.556
101532.495
101532.431
101532.346
101532.237
101532.128
101532.026
101531.927
101531.825
101531.718
101531.607
101531.492
101531.371
101531.25
101531.143
101531.043
101530.921
101530.774
101530.639
101530.524
101530.421
101530.316
101530.213
101530.117
101530.033
101529.966
101529.927
101529.926
101529.966
101530.031
101530.131
101530.314
101530.556
101530.953
101531.675
101532.443
101533.231
101535.054
101536.347
101536.689
101540.313
101545.035
101549.613
101552.589
101554.545
101533.89
101533.882
101533.872
101533.861
101533.85
101533.838
101533.825
101533.811
101533.797
101533.782
101533.766
101533.75
101533.732
101533.714
101533.695
101533.675
101533.654
101533.632
101533.609
101533.585
101533.56
101533.533
101533.504
101533.474
101533.442
101533.409
101533.373
101533.335
101533.295
101533.252
101533.206
101533.16
101533.115
101533.07
101533.024
101532.964
101532.886
101532.804
101532.727
101532.657
101532.583
101532.505
101532.425
101532.339
101532.247
101532.161
101532.086
101532.02
101531.921
101531.8
101531.708
101531.631
101531.552
101531.471
101531.394
101531.325
101531.268
101531.23
101531.22
101531.234
101531.28
101531.368
101531.512
101531.741
101532.042
101532.423
101532.893
101533.485
101534.214
101535.211
101536.439
101537.493
101539.663
101545.224
101549.317
101549.841
101550.302
101553.716
101557.28
101560.496
101534.226
101534.219
101534.211
101534.203
101534.194
101534.184
101534.173
101534.162
101534.151
101534.139
101534.126
101534.113
101534.099
101534.085
101534.07
101534.054
101534.038
101534.022
101534.004
101533.986
101533.967
101533.947
101533.926
101533.904
101533.881
101533.857
101533.831
101533.803
101533.775
101533.747
101533.719
101533.687
101533.646
101533.6
101533.55
101533.503
101533.459
101533.413
101533.363
101533.311
101533.254
101533.191
101533.137
101533.101
101533.053
101532.97
101532.887
101532.827
101532.778
101532.721
101532.663
101532.61
101532.563
101532.531
101532.516
101532.518
101532.54
101532.584
101532.667
101532.797
101532.985
101533.248
101533.609
101534.11
101534.712
101535.445
101536.208
101537.199
101538.165
101539.363
101542.07
101546.179
101548.518
101548.766
101550.546
101553.2
101555.725
101558.223
101560.191
101562.428
101534.683
101534.677
101534.67
101534.663
101534.655
101534.647
101534.638
101534.629
101534.62
101534.611
101534.601
101534.592
101534.582
101534.572
101534.562
101534.552
101534.542
101534.531
101534.521
101534.51
101534.499
101534.488
101534.477
101534.464
101534.45
101534.437
101534.424
101534.41
101534.394
101534.375
101534.355
101534.333
101534.312
101534.292
101534.27
101534.246
101534.22
101534.191
101534.156
101534.13
101534.119
101534.09
101534.036
101533.994
101533.967
101533.938
101533.904
101533.871
101533.842
101533.821
101533.81
101533.811
101533.824
101533.854
101533.909
101533.994
101534.121
101534.296
101534.532
101534.838
101535.235
101535.722
101536.336
101537.122
101538.061
101539.137
101540.028
101541.341
101544.585
101547.789
101548.899
101549.53
101551.322
101553.665
101556.084
101557.873
101559.787
101561.882
101564.359
101566.708
101535.237
101535.231
101535.224
101535.217
101535.21
101535.203
101535.196
101535.189
101535.182
101535.175
101535.169
101535.163
101535.157
101535.152
101535.147
101535.143
101535.139
101535.136
101535.133
101535.129
101535.126
101535.122
101535.121
101535.121
101535.121
101535.122
101535.121
101535.121
101535.122
101535.121
101535.121
101535.119
101535.116
101535.113
101535.107
101535.097
101535.095
101535.107
101535.101
101535.075
101535.062
101535.06
101535.053
101535.045
101535.038
101535.035
101535.037
101535.045
101535.062
101535.09
101535.134
101535.201
101535.294
101535.42
101535.586
101535.803
101536.082
101536.435
101536.881
101537.403
101538.033
101538.732
101539.565
101540.463
101541.516
101543.451
101546.878
101548.898
101549.388
101550.232
101552.301
101554.406
101555.98
101557.63
101559.41
101561.497
101563.701
101565.945
101568.309
101570.223
101535.84
101535.833
101535.826
101535.819
101535.813
101535.807
101535.801
101535.796
101535.791
101535.787
101535.785
101535.783
101535.781
101535.781
101535.782
101535.785
101535.787
101535.789
101535.794
101535.802
101535.812
101535.823
101535.834
101535.845
101535.858
101535.871
101535.884
101535.898
101535.913
101535.928
101535.943
101535.958
101535.969
101535.987
101536.019
101536.035
101536.035
101536.047
101536.069
101536.086
101536.102
101536.12
101536.14
101536.163
101536.191
101536.227
101536.273
101536.333
101536.412
101536.514
101536.644
101536.808
101537.015
101537.273
101537.596
101537.997
101538.49
101539.073
101539.775
101540.551
101541.468
101542.387
101543.442
101545.673
101548.369
101549.84
101550.334
101551.565
101553.543
101555.232
101556.832
101558.423
101560.266
101562.039
101564.1
101566.065
101568.122
101570.247
101572.393
101574.224
101536.44
101536.433
101536.425
101536.419
101536.414
101536.409
101536.405
101536.402
101536.401
101536.4
101536.401
101536.404
101536.408
101536.413
101536.42
101536.43
101536.441
101536.456
101536.471
101536.488
101536.506
101536.527
101536.548
101536.572
101536.597
101536.623
101536.651
101536.681
101536.711
101536.739
101536.774
101536.821
101536.856
101536.877
101536.911
101536.953
101536.992
101537.029
101537.069
101537.11
101537.155
101537.205
101537.261
101537.327
101537.404
101537.496
101537.608
101537.744
101537.91
101538.111
101538.355
101538.653
101539.017
101539.462
101539.995
101540.624
101541.353
101542.171
101543.109
101543.995
101545.27
101547.727
101550.138
101551.108
101551.499
101552.375
101554.038
101555.859
101557.436
101559.148
101560.861
101562.673
101564.674
101566.549
101568.422
101570.29
101572.414
101574.476
101576.768
101578.87
101536.97
101536.964
101536.958
101536.952
101536.949
101536.946
101536.946
101536.946
101536.949
101536.953
101536.959
101536.967
101536.978
101536.991
101537.007
101537.024
101537.044
101537.067
101537.092
101537.119
101537.149
101537.181
101537.216
101537.253
101537.292
101537.333
101537.373
101537.42
101537.479
101537.528
101537.567
101537.618
101537.677
101537.734
101537.79
101537.849
101537.911
101537.976
101538.046
101538.122
101538.206
101538.3
101538.407
101538.532
101538.676
101538.846
101539.047
101539.283
101539.561
101539.89
101540.28
101540.745
101541.294
101541.933
101542.656
101543.482
101544.393
101545.369
101546.849
101549.211
101551.009
101551.641
101552.139
101553.515
101555.334
101557.082
101558.872
101560.688
101562.194
101563.737
101565.411
101567.208
101569.065
101570.904
101572.83
101574.754
101576.817
101578.99
101581.382
101583.788
101537.366
101537.361
101537.357
101537.355
101537.354
101537.355
101537.359
101537.365
101537.374
101537.385
101537.398
101537.414
101537.432
101537.454
101537.478
101537.506
101537.536
101537.569
101537.606
101537.646
101537.689
101537.735
101537.783
101537.832
101537.888
101537.955
101538.015
101538.068
101538.132
101538.204
101538.275
101538.347
101538.423
101538.502
101538.584
101538.671
101538.765
101538.866
101538.976
101539.099
101539.237
101539.393
101539.572
101539.777
101540.015
101540.291
101540.61
101540.979
101541.407
101541.908
101542.489
101543.155
101543.907
101544.744
101545.643
101546.652
101548.266
101550.424
101551.928
101552.611
101553.483
101554.978
101556.983
101558.892
101560.19
101561.311
101562.886
101564.546
101565.819
101567.182
101568.925
101570.877
101572.746
101574.642
101576.592
101578.68
101580.555
101582.418
101585.024
101587.476
101537.567
101537.566
101537.565
101537.567
101537.571
101537.578
101537.588
101537.6
101537.615
101537.633
101537.655
101537.68
101537.708
101537.74
101537.776
101537.815
101537.858
101537.904
101537.955
101538.008
101538.064
101538.126
101538.198
101538.267
101538.331
101538.405
101538.487
101538.569
101538.654
101538.742
101538.835
101538.931
101539.033
101539.14
101539.255
101539.379
101539.514
101539.662
101539.827
101540.012
101540.222
101540.46
101540.733
101541.045
101541.402
101541.811
101542.278
101542.814
101543.428
101544.125
101544.903
101545.757
101546.69
101547.704
101549.176
101551.11
101552.419
101553.123
101554.121
101555.733
101557.524
101559.086
101560.478
101561.716
101563.006
101564.529
101566.022
101567.347
101568.971
101570.901
101572.814
101574.755
101576.746
101578.77
101580.825
101583.028
101585.282
101587.699
101589.638
101591.37
101537.502
101537.505
101537.51
101537.517
101537.528
101537.542
101537.559
101537.579
101537.603
101537.631
101537.663
101537.7
101537.74
101537.784
101537.833
101537.886
101537.943
101538.002
101538.069
101538.145
101538.219
101538.291
101538.373
101538.462
101538.553
101538.647
101538.745
101538.848
101538.955
101539.067
101539.186
101539.311
101539.444
101539.588
101539.744
101539.914
101540.102
101540.312
101540.547
101540.813
101541.114
101541.457
101541.848
101542.292
101542.797
101543.37
101544.023
101544.766
101545.598
101546.531
101547.546
101548.657
101549.953
101551.304
101552.315
101553.367
101554.804
101556.448
101557.982
101559.417
101560.809
101561.935
101563.095
101564.499
101566.194
101567.923
101569.626
101571.309
101572.929
101574.629
101576.646
101578.789
101580.83
101583.064
101585.258
101587.335
101589.563
101591.471
101593.283
101595.575
101537.1
101537.108
101537.121
101537.136
101537.155
101537.177
101537.204
101537.235
101537.27
101537.31
101537.354
101537.403
101537.457
101537.515
101537.578
101537.647
101537.724
101537.802
101537.881
101537.969
101538.063
101538.16
101538.261
101538.367
101538.478
101538.594
101538.715
101538.842
101538.976
101539.118
101539.268
101539.43
101539.605
101539.795
101540.004
101540.235
101540.492
101540.78
101541.104
101541.469
101541.881
101542.345
101542.867
101543.453
101544.109
101544.839
101545.651
101546.548
101547.521
101548.566
101549.584
101550.917
101552.634
101554.292
101555.984
101557.442
101558.674
101559.72
101560.765
101561.975
101563.19
101564.649
101566.367
101568.179
101569.905
101571.593
101573.338
101575.128
101576.891
101578.884
101581.031
101582.941
101584.81
101586.465
101588.061
101590.132
101592.487
101594.937
101596.963
101598.765
101536.282
101536.298
101536.32
101536.345
101536.374
101536.408
101536.446
101536.489
101536.538
101536.591
101536.649
101536.713
101536.785
101536.862
101536.94
101537.023
101537.114
101537.211
101537.313
101537.42
101537.532
101537.649
101537.772
101537.901
101538.036
101538.178
101538.328
101538.486
101538.655
101538.836
101539.031
101539.243
101539.475
101539.73
101540.013
101540.328
101540.68
101541.073
101541.513
101542.005
101542.554
101543.162
101543.835
101544.573
101545.38
101546.237
101547.157
101548.166
101549.592
101551.455
101553.318
101554.639
101555.439
101556.294
101557.223
101558.101
101559.14
101560.753
101562.885
101564.806
101566.485
101568.092
101569.754
101571.491
101573.245
101575.05
101576.892
101578.814
101580.858
101582.541
101584.31
101586.545
101588.307
101590.001
101592.01
101593.839
101595.785
101597.872
101599.85
101602.191
101534.981
101535.007
101535.04
101535.077
101535.119
101535.165
101535.217
101535.274
101535.337
101535.407
101535.481
101535.56
101535.646
101535.739
101535.837
101535.941
101536.05
101536.166
101536.287
101536.414
101536.548
101536.688
101536.836
101536.991
101537.155
101537.329
101537.515
101537.715
101537.93
101538.164
101538.42
101538.702
101539.013
101539.359
101539.744
101540.173
101540.651
101541.183
101541.773
101542.424
101543.14
101543.922
101544.77
101545.686
101546.676
101547.703
101549.075
101550.969
101552.278
101553.037
101553.767
101554.826
101556.429
101558.069
101559.744
101561.68
101563.518
101564.893
101566.142
101567.606
101569.218
101570.947
101572.74
101574.522
101576.36
101578.223
101580.042
101581.929
101583.977
101585.919
101587.411
101589.192
101591.269
101592.997
101595.38
101598.181
101599.966
101601.559
101603.576
101606.006
101533.131
101533.17
101533.217
101533.267
101533.323
101533.384
101533.452
101533.525
101533.603
101533.688
101533.779
101533.877
101533.98
101534.09
101534.207
101534.329
101534.458
101534.594
101534.737
101534.888
101535.047
101535.214
101535.392
101535.582
101535.784
101536.002
101536.238
101536.495
101536.777
101537.087
101537.43
101537.811
101538.235
101538.706
101539.232
101539.815
101540.461
101541.174
101541.956
101542.809
101543.732
101544.728
101545.777
101546.874
101548.019
101549.325
101550.636
101551.764
101553.131
101554.799
101556.494
101558.198
101559.952
101561.645
101562.971
101564.113
101565.375
101566.792
101568.126
101569.513
101571.369
101573.526
101575.617
101577.5
101579.319
101581.263
101583.223
101585.141
101587.268
101589.685
101591.982
101593.553
101595.134
101597.273
101599.293
101601.353
101603.799
101606.025
101607.256
101608.991
101530.699
101530.752
101530.815
101530.881
101530.952
101531.029
101531.112
101531.202
101531.297
101531.399
101531.507
101531.622
101531.743
101531.87
101532.005
101532.147
101532.296
101532.453
101532.619
101532.794
101532.98
101533.179
101533.391
101533.62
101533.868
101534.138
101534.433
101534.758
101535.117
101535.514
101535.955
101536.444
101536.986
101537.585
101538.246
101538.971
101539.764
101540.625
101541.556
101542.555
101543.624
101544.768
101545.959
101547.178
101548.784
101550.94
101552.784
101554.381
101555.652
101556.721
101557.896
101559.082
101560.21
101561.336
101562.842
101564.735
101566.592
101568.68
101571.002
101573.515
101575.474
101577.096
101578.799
101580.838
101583.281
101585.365
101587.278
101589.293
101591.134
101592.645
101594.167
101595.963
101598.114
101601.356
101603.674
101605.044
101606.658
101608.277
101609.854
101611.611
101527.677
101527.745
101527.825
101527.908
101527.996
101528.09
101528.189
101528.295
101528.408
101528.526
101528.652
101528.784
101528.924
101529.071
101529.226
101529.39
101529.563
101529.748
101529.944
101530.155
101530.381
101530.627
101530.893
101531.185
101531.505
101531.859
101532.251
101532.685
101533.168
101533.704
101534.297
101534.954
101535.677
101536.47
101537.333
101538.267
101539.272
101540.341
101541.466
101542.625
101543.829
101545.275
101547.054
101548.608
101550.051
101551.253
101552.099
101552.991
101554.522
101556.695
101558.791
101560.922
101563.151
101565.546
101567.733
101569.594
101571.32
101572.943
101574.593
101576.286
101578.206
101580.392
101582.585
101584.286
101585.843
101587.507
101589.19
101591.087
101593.186
101595.143
101596.988
101598.848
101600.782
101603.206
101605.863
101607.894
101609.673
101611.985
101613.326
101614.77
101524.137
101524.221
101524.319
101524.42
101524.526
101524.637
101524.754
101524.878
101525.008
101525.146
101525.29
101525.443
101525.604
101525.774
101525.955
101526.148
101526.354
101526.575
101526.814
101527.073
101527.356
101527.666
101528.008
101528.385
101528.803
101529.267
101529.782
101530.352
101530.984
101531.681
101532.447
101533.284
101534.195
101535.181
101536.24
101537.372
101538.578
101539.835
101541.16
101542.566
101544.315
101546.286
101547.946
101549.849
101551.624
101553.127
101555.073
101557.094
101558.845
101560.543
101562.283
101564.089
101566.058
101567.792
101569.387
101571.194
101572.955
101574.578
101576.184
101577.827
101579.505
101581.179
101582.999
101585.457
101588
101590.047
101592
101594.031
101596.05
101597.937
101599.565
101601.802
101604.842
101607.011
101609.129
101611.032
101612.028
101613.998
101616.949
101619.398
101520.1
101520.201
101520.317
101520.435
101520.557
101520.685
101520.819
101520.959
101521.107
101521.263
101521.428
101521.603
101521.789
101521.989
101522.203
101522.435
101522.686
101522.962
101523.264
101523.597
101523.966
101524.377
101524.834
101525.343
101525.911
101526.543
101527.244
101528.02
101528.874
101529.811
101530.831
101531.935
101533.122
101534.388
101535.727
101537.128
101538.577
101540.047
101541.958
101544.57
101546.265
101547.532
101549.084
101550.736
101552.378
101554.438
101556.429
101557.927
101559.475
101561.319
101563.191
101564.881
101566.476
101568.171
101569.95
101571.793
101573.801
101575.848
101577.856
101579.992
101582.304
101584.724
101587.059
101588.917
101590.683
101592.83
101594.794
101596.815
101599.206
101601.364
101603.426
101605.709
101608.114
101610.706
101613.224
101615.094
101616.701
101618.032
101619.889
101621.937
101527.561
101527.567
101527.572
101527.575
101527.577
101527.577
101527.576
101527.574
101527.57
101527.564
101527.557
101527.548
101527.537
101527.524
101527.509
101527.492
101527.473
101527.452
101527.429
101527.403
101527.375
101527.344
101527.31
101527.273
101527.233
101527.191
101527.144
101527.094
101527.041
101526.983
101526.922
101526.856
101526.785
101526.71
101526.629
101526.543
101526.452
101526.354
101526.25
101526.139
101526.022
101525.896
101525.763
101525.622
101525.471
101525.311
101525.142
101524.96
101524.764
101524.555
101524.331
101524.09
101523.832
101523.555
101523.257
101522.937
101522.591
101522.217
101521.811
101521.369
101520.888
101520.361
101519.783
101519.148
101518.447
101517.671
101516.81
101515.848
101514.759
101513.537
101512.31
101511.061
101509.533
101507.844
101506.064
101503.997
101501.603
101499.202
101496.226
101493.488
101527.802
101527.807
101527.811
101527.814
101527.815
101527.816
101527.815
101527.813
101527.809
101527.804
101527.798
101527.79
101527.781
101527.77
101527.757
101527.743
101527.727
101527.709
101527.689
101527.667
101527.642
101527.616
101527.587
101527.556
101527.522
101527.486
101527.446
101527.404
101527.358
101527.309
101527.257
101527.201
101527.141
101527.077
101527.008
101526.936
101526.858
101526.775
101526.687
101526.593
101526.494
101526.388
101526.276
101526.158
101526.032
101525.895
101525.746
101525.588
101525.424
101525.247
101525.057
101524.852
101524.632
101524.393
101524.136
101523.856
101523.554
101523.225
101522.867
101522.476
101522.05
101521.583
101521.07
101520.506
101519.886
101519.201
101518.442
101517.598
101516.658
101515.635
101514.549
101513.457
101512.284
101510.885
101509.208
101507.444
101505.638
101503.711
101501.766
101499.451
101528.23
101528.234
101528.237
101528.239
101528.241
101528.241
101528.241
101528.239
101528.237
101528.233
101528.228
101528.222
101528.215
101528.207
101528.198
101528.187
101528.175
101528.161
101528.146
101528.129
101528.111
101528.091
101528.069
101528.045
101528.019
101527.991
101527.961
101527.929
101527.894
101527.857
101527.817
101527.774
101527.728
101527.679
101527.627
101527.571
101527.512
101527.449
101527.382
101527.31
101527.236
101527.157
101527.072
101526.978
101526.878
101526.775
101526.664
101526.545
101526.417
101526.281
101526.135
101525.977
101525.807
101525.623
101525.423
101525.206
101524.969
101524.711
101524.43
101524.122
101523.785
101523.414
101523.005
101522.554
101522.054
101521.496
101520.872
101520.177
101519.416
101518.596
101517.718
101516.777
101515.766
101514.653
101513.432
101512.126
101510.642
101508.986
101507.743
101505.175
101528.813
101528.816
101528.818
101528.82
101528.822
101528.822
101528.822
101528.822
101528.82
101528.819
101528.816
101528.813
101528.809
101528.804
101528.798
101528.792
101528.784
101528.776
101528.767
101528.756
101528.745
101528.733
101528.719
101528.704
101528.688
101528.671
101528.652
101528.632
101528.61
101528.587
101528.562
101528.535
101528.507
101528.476
101528.444
101528.409
101528.373
101528.335
101528.294
101528.25
101528.201
101528.149
101528.096
101528.039
101527.979
101527.914
101527.845
101527.771
101527.691
101527.605
101527.513
101527.413
101527.304
101527.187
101527.059
101526.919
101526.766
101526.598
101526.412
101526.206
101525.977
101525.721
101525.435
101525.112
101524.749
101524.338
101523.876
101523.363
101522.799
101522.177
101521.477
101520.66
101519.709
101518.632
101517.472
101516.222
101514.681
101513.306
101511.52
101509.021
101529.501
101529.503
101529.505
101529.506
101529.508
101529.509
101529.509
101529.51
101529.51
101529.51
101529.51
101529.509
101529.509
101529.507
101529.506
101529.504
101529.502
101529.5
101529.497
101529.494
101529.49
101529.486
101529.481
101529.476
101529.47
101529.464
101529.458
101529.451
101529.443
101529.435
101529.426
101529.416
101529.406
101529.396
101529.386
101529.375
101529.362
101529.347
101529.332
101529.317
101529.301
101529.284
101529.265
101529.246
101529.225
101529.203
101529.179
101529.153
101529.124
101529.093
101529.058
101529.02
101528.978
101528.931
101528.878
101528.818
101528.752
101528.677
101528.593
101528.497
101528.388
101528.261
101528.113
101527.939
101527.731
101527.482
101527.184
101526.826
101526.393
101525.868
101525.233
101524.493
101523.674
101522.806
101521.716
101520.543
101519.408
101517.868
101515.628
101513.687
101530.25
101530.251
101530.252
101530.253
101530.254
101530.256
101530.257
101530.259
101530.261
101530.262
101530.265
101530.267
101530.269
101530.272
101530.275
101530.278
101530.281
101530.284
101530.288
101530.291
101530.295
101530.299
101530.304
101530.308
101530.313
101530.318
101530.324
101530.329
101530.336
101530.344
101530.352
101530.36
101530.368
101530.375
101530.383
101530.393
101530.404
101530.416
101530.428
101530.441
101530.454
101530.469
101530.485
101530.501
101530.519
101530.538
101530.557
101530.577
101530.598
101530.619
101530.64
101530.661
101530.682
101530.702
101530.721
101530.738
101530.753
101530.766
101530.774
101530.779
101530.776
101530.765
101530.74
101530.696
101530.625
101530.515
101530.354
101530.127
101529.819
101529.419
101528.925
101528.346
101527.695
101526.788
101525.879
101525.153
101523.885
101522.404
101521.391
101520.168
101531.006
101531.006
101531.006
101531.007
101531.008
101531.009
101531.012
101531.014
101531.017
101531.021
101531.025
101531.03
101531.035
101531.041
101531.048
101531.055
101531.063
101531.072
101531.081
101531.091
101531.102
101531.113
101531.126
101531.14
101531.155
101531.17
101531.187
101531.204
101531.222
101531.241
101531.262
101531.285
101531.31
101531.336
101531.363
101531.393
101531.424
101531.458
101531.493
101531.531
101531.572
101531.615
101531.66
101531.709
101531.76
101531.814
101531.872
101531.932
101531.996
101532.062
101532.132
101532.204
101532.28
101532.358
101532.439
101532.522
101532.608
101532.696
101532.786
101532.878
101532.97
101533.06
101533.144
101533.217
101533.271
101533.293
101533.269
101533.181
101533.013
101532.753
101532.399
101531.955
101531.412
101530.75
101530.009
101529.194
101528.283
101527.377
101526.494
101525.152
101531.727
101531.726
101531.726
101531.726
101531.727
101531.728
101531.731
101531.734
101531.738
101531.743
101531.749
101531.756
101531.764
101531.773
101531.783
101531.794
101531.806
101531.818
101531.832
101531.847
101531.863
101531.881
101531.9
101531.92
101531.941
101531.964
101531.989
101532.016
101532.045
101532.075
101532.108
101532.143
101532.18
101532.219
101532.261
101532.306
101532.353
101532.404
101532.458
101532.515
101532.575
101532.64
101532.708
101532.78
101532.857
101532.938
101533.023
101533.113
101533.207
101533.307
101533.411
101533.52
101533.635
101533.754
101533.879
101534.01
101534.146
101534.288
101534.437
101534.592
101534.754
101534.92
101535.087
101535.251
101535.404
101535.535
101535.627
101535.664
101535.626
101535.501
101535.278
101534.95
101534.495
101533.919
101533.256
101532.52
101531.74
101531.017
101530.327
101529.2
101532.376
101532.374
101532.373
101532.372
101532.373
101532.374
101532.376
101532.38
101532.384
101532.389
101532.395
101532.403
101532.411
101532.421
101532.432
101532.444
101532.458
101532.474
101532.49
101532.509
101532.529
101532.55
101532.573
101532.598
101532.625
101532.653
101532.684
101532.717
101532.752
101532.789
101532.829
101532.871
101532.916
101532.964
101533.015
101533.069
101533.127
101533.188
101533.253
101533.321
101533.394
101533.471
101533.552
101533.638
101533.729
101533.825
101533.926
101534.032
101534.143
101534.26
101534.382
101534.51
101534.643
101534.783
101534.928
101535.08
101535.237
101535.401
101535.572
101535.75
101535.935
101536.126
101536.319
101536.511
101536.706
101536.888
101537.042
101537.149
101537.195
101537.142
101536.95
101536.6
101536.114
101535.55
101534.939
101534.299
101533.666
101533.077
101532.493
101531.696
101532.922
101532.919
101532.917
101532.915
101532.915
101532.915
101532.917
101532.92
101532.923
101532.929
101532.935
101532.943
101532.952
101532.962
101532.974
101532.987
101533.001
101533.017
101533.035
101533.054
101533.075
101533.098
101533.123
101533.149
101533.178
101533.208
101533.241
101533.276
101533.313
101533.352
101533.395
101533.44
101533.487
101533.538
101533.592
101533.648
101533.709
101533.772
101533.84
101533.911
101533.987
101534.066
101534.15
101534.238
101534.332
101534.429
101534.532
101534.64
101534.753
101534.872
101534.995
101535.123
101535.257
101535.395
101535.54
101535.69
101535.846
101536.011
101536.189
101536.38
101536.585
101536.803
101537.034
101537.271
101537.49
101537.677
101537.815
101537.888
101537.867
101537.718
101537.44
101537.029
101536.541
101536.015
101535.459
101534.888
101534.327
101533.828
101533.383
101532.718
101533.349
101533.345
101533.341
101533.338
101533.336
101533.336
101533.336
101533.337
101533.34
101533.344
101533.349
101533.356
101533.364
101533.373
101533.383
101533.395
101533.409
101533.424
101533.44
101533.458
101533.478
101533.499
101533.522
101533.547
101533.574
101533.603
101533.633
101533.666
101533.701
101533.738
101533.778
101533.82
101533.864
101533.911
101533.96
101534.012
101534.067
101534.126
101534.187
101534.251
101534.318
101534.389
101534.462
101534.54
101534.62
101534.704
101534.791
101534.881
101534.975
101535.072
101535.174
101535.281
101535.395
101535.515
101535.641
101535.776
101535.92
101536.067
101536.214
101536.363
101536.515
101536.669
101536.828
101537.011
101537.197
101537.356
101537.47
101537.513
101537.407
101537.134
101536.727
101536.243
101535.729
101535.213
101534.714
101534.25
101533.858
101533.608
101533.47
101533.07
101533.657
101533.651
101533.646
101533.641
101533.638
101533.635
101533.634
101533.633
101533.634
101533.636
101533.639
101533.643
101533.648
101533.655
101533.662
101533.672
101533.682
101533.694
101533.707
101533.721
101533.737
101533.755
101533.774
101533.794
101533.816
101533.84
101533.865
101533.892
101533.92
101533.951
101533.983
101534.016
101534.052
101534.089
101534.128
101534.169
101534.212
101534.257
101534.303
101534.351
101534.401
101534.453
101534.506
101534.562
101534.621
101534.683
101534.747
101534.815
101534.887
101534.96
101535.031
101535.099
101535.165
101535.229
101535.289
101535.346
101535.404
101535.47
101535.544
101535.615
101535.681
101535.741
101535.79
101535.822
101535.839
101535.828
101535.783
101535.682
101535.473
101535.146
101534.709
101534.213
101533.705
101533.221
101532.788
101532.433
101532.136
101532.064
101532.183
101532.098
101533.85
101533.843
101533.835
101533.828
101533.822
101533.817
101533.813
101533.81
101533.808
101533.807
101533.806
101533.807
101533.809
101533.811
101533.815
101533.82
101533.826
101533.833
101533.841
101533.85
101533.86
101533.871
101533.884
101533.897
101533.911
101533.927
101533.943
101533.961
101533.979
101533.999
101534.019
101534.04
101534.062
101534.085
101534.108
101534.132
101534.158
101534.184
101534.212
101534.241
101534.271
101534.303
101534.335
101534.364
101534.39
101534.413
101534.434
101534.452
101534.467
101534.48
101534.494
101534.509
101534.52
101534.525
101534.522
101534.511
101534.49
101534.454
101534.409
101534.359
101534.304
101534.242
101534.168
101534.077
101533.964
101533.81
101533.609
101533.327
101532.96
101532.505
101531.99
101531.459
101530.9
101530.404
101530.025
101529.771
101529.69
101529.913
101530.356
101530.538
101533.943
101533.934
101533.924
101533.915
101533.906
101533.898
101533.891
101533.884
101533.879
101533.873
101533.869
101533.865
101533.862
101533.86
101533.859
101533.858
101533.858
101533.859
101533.861
101533.863
101533.865
101533.869
101533.873
101533.877
101533.882
101533.887
101533.893
101533.899
101533.906
101533.913
101533.921
101533.929
101533.937
101533.945
101533.953
101533.96
101533.965
101533.967
101533.968
101533.966
101533.961
101533.954
101533.944
101533.937
101533.929
101533.917
101533.9
101533.877
101533.847
101533.81