/*--------------------------------*- C++ -*----------------------------------*\
  =========                 |
  \\      /  F ield         | OpenFOAM: The Open Source CFD Toolbox
   \\    /   O peration     | Website:  https://openfoam.org
    \\  /    A nd           | Version:  8
     \\/     M anipulation  |
\*---------------------------------------------------------------------------*/
FoamFile
{
    version     2.0;
    format      ascii;
    class       volScalarField;
    location    "0.013";
    object      T;
}
// * * * * * * * * * * * * * * * * * * * * * * * * * * * * * * * * * * * * * //

dimensions      [0 0 0 1 0 0 0];

internalField   nonuniform List<scalar> 
42400
(
472.123699
470.351983
468.534276
466.669939
464.758424
462.799287
460.792213
458.737032
456.633752
454.482578
452.283949
450.038567
447.747433
445.411884
443.033629
440.614791
438.157945
435.666156
433.143016
430.592678
428.019883
425.429985
422.828963
420.223432
417.620627
415.028394
412.455147
409.909823
407.401812
404.940869
402.537014
400.20041
397.941231
395.769515
393.695018
391.72706
389.874368
388.144952
386.545992
385.083796
383.763712
382.590064
381.566072
380.693855
379.974419
379.407653
378.992293
378.726044
378.608387
378.627886
378.783819
379.068805
379.475406
379.994921
380.61458
381.318477
382.08767
382.889862
383.694984
384.485645
385.282407
385.776961
385.899814
385.658076
384.959869
383.968402
382.579897
380.678608
378.116893
374.656763
370.484607
365.949233
359.866184
352.879647
346.997792
340.935033
332.953087
325.507044
318.373861
313.856077
472.163537
470.472376
468.737355
466.957902
465.133537
463.263889
461.348714
459.387919
457.381586
455.329998
453.233669
451.093375
448.910187
446.685512
444.421124
442.119203
439.782378
437.413758
435.016969
432.596192
430.156182
427.702299
425.240518
422.777437
420.320272
417.876841
415.45553
413.06525
410.715372
408.415649
406.176119
404.006994
401.918533
399.920906
398.024064
396.237606
394.570681
393.031823
391.628813
390.368506
389.256666
388.297808
387.49503
386.849958
386.362635
386.031397
385.852607
385.820792
385.926988
386.164343
386.51956
386.976495
387.516015
388.112006
388.737051
389.372641
390.024483
390.450818
390.597199
390.445855
389.784122
388.884954
387.665854
386.049787
383.886117
381.065849
377.48937
373.127143
368.122722
362.302533
355.76057
349.294258
342.466014
334.873424
327.894813
321.725407
316.145119
310.664248
306.258891
302.24935
472.213756
470.624147
468.993375
467.320956
465.606505
463.849751
462.050556
460.208936
458.325085
456.3994
454.432511
452.42531
450.378986
448.295056
446.175405
444.022316
441.838512
439.627185
437.392035
435.137295
432.867762
430.588813
428.30642
426.027156
423.758187
421.507256
419.28265
417.093155
414.947997
412.856763
410.829317
408.875703
407.006042
405.230389
403.558579
402.000063
400.563735
399.257675
398.08893
397.063234
396.184831
395.45624
394.878
394.448265
394.162632
394.014596
393.995062
394.085256
394.274458
394.539126
394.855194
395.201592
395.572348
395.787038
395.782408
395.546033
394.866284
393.981739
392.826598
391.330977
389.396682
386.896462
383.780652
379.996272
375.527228
370.406657
364.629237
358.24605
351.53562
344.646879
337.499335
330.618493
324.323428
318.357204
312.946995
308.345456
304.850215
301.998484
300.328036
300.064638
472.271147
470.797591
469.28595
467.735846
466.147004
464.519271
462.852636
461.14725
459.403444
457.621764
455.802988
453.948164
452.058635
450.136073
448.182515
446.200391
444.192562
442.162346
440.11355
438.050496
435.97804
433.901589
431.827105
429.761105
427.710654
425.683337
423.687227
421.730844
419.823077
417.973103
416.190282
414.484037
412.863701
411.338317
409.91643
408.605837
407.413313
406.344339
405.402793
404.590606
403.907352
403.349972
402.912998
402.586813
402.35724
402.207747
402.119999
402.073314
402.051798
401.935115
401.666602
401.184303
400.403968
399.443081
398.25202
396.772503
394.934363
392.617197
389.770717
386.35172
382.332811
377.683977
372.430517
366.642453
360.399665
353.832055
347.032905
340.105614
333.280252
326.849297
320.844207
315.384737
310.706741
306.846064
303.961584
301.753928
300.286313
299.957008
299.880978
299.866732
472.332102
470.981804
469.596691
468.176489
466.721043
465.230326
463.704464
462.143749
460.548665
458.919915
457.258442
455.565457
453.842472
452.091324
450.314209
448.513706
446.692808
444.854944
443.004002
441.144347
439.280833
437.418805
435.564099
433.723021
431.902328
430.109181
428.351091
426.635842
424.971385
423.365713
421.826709
420.361953
418.978501
417.682641
416.479616
415.373297
414.365839
413.457296
412.645276
411.924967
411.288146
410.723594
410.218587
409.758377
409.287099
408.764639
408.146222
407.380643
406.410111
405.291858
403.978601
402.420688
400.559941
398.304997
395.604761
392.422009
388.728038
384.505797
379.754738
374.46469
368.680937
362.475421
355.953068
349.250852
342.508784
335.87243
329.486002
323.464558
317.945041
313.078829
308.965293
305.666097
303.184334
301.392407
300.243538
299.956979
299.889289
299.873272
299.866894
299.86812
472.392441
471.164151
469.904278
468.612653
467.28923
465.934103
464.547519
463.129901
461.681866
460.204251
458.698132
457.16485
455.606037
454.023636
452.419929
450.797553
449.159522
447.509239
445.850505
444.187525
442.524896
440.867598
439.220964
437.590636
435.982511
434.402658
432.85722
431.35228
429.893714
428.487003
427.137022
425.847784
424.622164
423.461602
422.365745
421.332115
420.355992
419.429801
418.543132
417.678467
416.809502
415.905887
414.933715
413.855231
412.674773
411.362861
409.88354
408.195908
406.248895
403.974968
401.335707
398.296392
394.828267
390.912193
386.539518
381.712167
376.447076
370.757568
364.697801
358.341844
351.789794
345.152883
338.576545
332.199978
326.174903
320.603028
315.603821
311.266804
307.656004
304.797601
302.674572
301.213135
300.278466
299.979145
299.90501
299.880874
299.872161
299.867317
299.861193
299.852725
472.447189
471.3296
470.183355
469.00837
467.804685
466.572477
465.312078
464.023989
462.708898
461.367699
460.001509
458.611689
457.199859
455.767913
454.318032
452.852695
451.37468
449.887061
448.393201
446.896728
445.401508
443.911594
442.431166
440.964452
439.515625
438.088677
436.687269
435.314558
433.972987
432.664058
431.388065
430.143796
428.928231
427.736339
426.560614
425.390819
424.211251
423.002975
421.745446
420.420454
419.00726
417.481334
415.813788
413.969572
411.902474
409.575242
406.953586
404.005349
400.702936
397.025034
392.957986
388.497112
383.647829
378.425995
372.857136
366.967838
360.809177
354.464794
348.033166
341.61151
335.312968
329.263142
323.596534
318.413491
313.826153
309.899081
306.689529
304.20064
302.380581
301.153385
300.394552
300.030206
299.936175
299.902828
299.88699
299.875263
299.864192
299.851658
299.837252
299.826671
472.490826
471.461464
470.405768
469.323701
468.215338
467.080882
465.920671
464.73519
463.525086
462.29118
461.034474
459.756162
458.457637
457.140494
455.806526
454.457718
453.096233
451.724383
450.344599
448.959383
447.571248
446.182637
444.79583
443.412827
442.035204
440.663954
439.299302
437.940495
436.585581
435.231173
433.872265
432.501952
431.111188
429.688623
428.220277
426.689445
425.07937
423.370157
421.537212
419.55194
417.387152
415.0146
412.405699
409.532328
406.368732
402.893258
399.089126
394.945692
390.459624
385.635753
380.488187
375.040356
369.324458
363.379725
357.247571
351.002559
344.734378
338.547218
332.549099
326.845734
321.537344
316.726756
312.502069
308.92676
306.037362
303.820454
302.2218
301.151213
300.499662
300.146157
299.993547
299.943312
299.913992
299.892165
299.873404
299.854053
299.83967
299.828717
299.825705
299.824635
472.517946
471.543406
470.543949
469.519528
468.470188
467.396068
466.29741
465.174561
464.027982
462.858247
461.666044
460.452172
459.217535
457.963126
456.690008
455.399289
454.092082
452.769457
451.432383
450.081646
448.717821
447.341293
445.95201
444.549343
443.131916
441.697408
440.242317
438.761639
437.248407
435.694131
434.089278
432.422444
430.680276
428.847378
426.906373
424.838103
422.621893
420.235847
417.657316
414.863501
411.832076
408.542457
404.977136
401.122234
396.968533
392.512441
387.756901
382.712217
377.396917
371.838149
366.072404
360.143849
354.09829
348.000539
341.9332
335.988063
330.262534
324.861306
319.881322
315.411376
311.521182
308.253321
305.624594
303.614451
302.166834
301.193508
300.587334
300.244034
300.063397
299.977996
299.930225
299.890276
299.862105
299.845082
299.83492
299.832048
299.8288
299.826866
299.825294
299.82358
472.524317
471.562625
470.576256
469.565074
468.529001
467.468015
466.38215
465.271494
464.136189
462.976418
461.792397
460.584362
459.352544
458.097145
456.818296
455.516032
454.190252
452.840663
451.466711
450.067489
448.641572
447.186736
445.699895
444.176875
442.612117
440.998094
439.327775
437.593166
435.785466
433.894359
431.907243
429.810073
427.587469
425.222873
422.698798
419.997156
417.099668
413.988288
410.646065
407.058271
403.212765
399.100817
394.717946
390.064763
385.147772
379.980122
374.582279
368.98291
363.219668
357.339554
351.397913
345.450661
339.577521
333.866802
328.408149
323.294499
318.610952
314.43326
310.821157
307.811485
305.405074
303.560606
302.214176
301.285859
300.684773
300.319718
300.108075
299.987108
299.908567
299.863647
299.840412
299.834344
299.831813
299.830164
299.831001
299.831306
299.827722
299.825266
299.822568
299.821153
472.510013
471.51938
470.503249
469.461384
468.393565
467.29958
466.179219
465.032269
463.858492
462.657624
461.429359
460.173321
458.889052
457.57597
456.232079
454.854883
453.442318
451.992182
450.501762
448.967762
447.386235
445.752554
444.061385
442.306692
440.481858
438.580239
436.592563
434.50825
432.315704
430.002335
427.554643
424.958373
422.198727
419.260647
416.129116
412.789692
409.229468
405.437308
401.404503
397.125482
392.598564
387.826759
382.81858
377.588852
372.159458
366.559968
360.828369
355.011936
349.167529
343.360723
337.65828
332.145379
326.910317
322.038977
317.608129
313.680136
310.29971
307.486213
305.23687
303.513502
302.249111
301.359438
300.760664
300.375648
300.137038
299.992047
299.904849
299.857109
299.848566
299.842873
299.837776
299.834648
299.831701
299.829293
299.829422
299.82959
299.82659
299.822448
299.820804
299.820172
472.475066
471.413753
470.325021
469.208491
468.063743
466.89031
465.687659
464.455182
463.191331
461.894698
460.563878
459.197202
457.792679
456.347944
454.861462
453.331503
451.755104
450.128506
448.447407
446.706897
444.901371
443.024524
441.069295
439.027797
436.891278
434.650171
432.294071
429.811791
427.19147
424.420713
421.486779
418.376807
415.078112
411.579013
407.868982
403.939177
399.783037
395.396951
390.780993
385.939717
380.882999
375.626907
370.194538
364.61675
358.93265
353.189927
347.445091
341.763302
336.217431
330.881949
325.836956
321.163031
316.930137
313.193087
309.98826
307.324288
305.183643
303.527146
302.295443
301.41617
300.813822
300.41593
300.162563
300.007893
299.917087
299.869741
299.853641
299.848598
299.844318
299.840718
299.835515
299.830335
299.825839
299.820876
299.821314
299.821898
299.821387
299.817259
299.813528
299.814439
472.420407
471.248527
470.046175
468.812727
467.547451
466.249482
464.917194
463.54911
462.144346
460.701455
459.218494
457.693221
456.123058
454.505058
452.835861
451.111653
449.328102
447.480289
445.562701
443.569182
441.492873
439.326221
437.06097
434.688164
432.198184
429.580802
426.825274
423.920457
420.854977
417.61741
414.19687
410.583216
406.767447
402.742199
398.502325
394.045552
389.373216
384.49107
379.41014
374.147607
368.727651
363.182203
357.551472
351.88409
346.236759
340.6736
335.264559
330.083267
325.204443
320.696927
316.622984
313.028117
309.942737
307.369601
305.295364
303.677315
302.45485
301.562817
300.935627
300.510893
300.233652
300.05966
299.95642
299.899242
299.871462
299.859025
299.850617
299.842849
299.836334
299.831162
299.825886
299.82059
299.815312
299.807888
299.806127
299.806002
299.807987
299.808371
299.804736
299.804653
472.350981
471.038685
469.69211
468.310401
466.892525
465.437123
463.942938
462.408331
460.831386
459.209886
457.541274
455.82262
454.050581
452.221364
450.33068
448.373721
446.345122
444.238916
442.048525
439.766748
437.385758
434.897118
432.291811
429.560301
426.692614
423.678459
420.507368
417.169031
413.653602
409.951967
406.056156
401.959835
397.658875
393.152012
388.441574
383.534286
378.442118
373.183135
367.782301
362.272161
356.693279
351.094325
345.53163
340.068025
334.771098
329.71071
324.955458
320.56846
316.603911
313.101237
310.082934
307.552913
305.49259
303.864159
302.618687
301.699013
301.041977
300.588494
300.286839
300.094068
299.972668
299.903147
299.868655
299.851759
299.842131
299.834415
299.827878
299.822621
299.818472
299.815066
299.811715
299.807671
299.803676
299.801301
299.797635
299.795069
299.794234
299.794309
299.795259
299.79572
472.270778
470.796289
469.283186
467.730401
466.136633
464.500307
462.819812
461.093088
459.317745
457.491026
455.609771
453.670386
451.668801
449.600444
447.460202
445.242401
442.940789
440.548529
438.058196
435.461801
432.75082
429.916257
426.948726
423.838564
420.576011
417.151535
413.556024
409.78112
405.819625
401.665989
397.316871
392.771788
388.033832
383.110447
378.014244
372.763805
367.384413
361.908649
356.376726
350.836467
345.342762
339.956399
334.742116
329.765922
325.091879
320.778426
316.874838
313.416224
310.421762
307.891065
305.810521
304.147778
302.85605
301.881261
301.168719
300.668063
300.330234
300.112086
299.977823
299.900056
299.865226
299.85182
299.842435
299.836338
299.831358
299.827253
299.822725
299.817668
299.812975
299.809015
299.805897
299.803894
299.803003
299.801984
299.800039
299.797498
299.794119
299.792147
299.792023
299.7884
472.182032
470.528078
468.830734
467.088718
465.300451
463.464185
461.577896
459.639115
457.644982
455.592213
453.477061
451.29529
449.04214
446.712309
444.299932
441.798579
439.201251
436.500406
433.687992
430.755508
427.69409
424.494625
421.147982
417.645216
413.977815
410.138033
406.119289
401.916643
397.527347
392.951472
388.192601
383.258575
378.162257
372.922283
367.56372
362.118581
356.626072
351.132491
345.69065
340.358719
335.198372
330.272223
325.640589
321.358154
317.470238
314.010078
310.997038
308.43316
306.304769
304.581142
303.220393
302.1783
301.405386
300.850697
300.466239
300.210529
300.048731
299.952118
299.898998
299.872625
299.858444
299.849399
299.841548
299.835133
299.830795
299.826685
299.822773
299.81824
299.813479
299.809489
299.806017
299.803647
299.802289
299.802094
299.801061
299.799758
299.796852
299.793415
299.79267
299.789387
472.086138
470.238258
468.341839
466.395415
464.397239
462.345233
460.236918
458.069407
455.839363
453.542974
451.175919
448.733343
446.209845
443.599465
440.89569
438.09147
435.179261
432.151078
428.998584
425.713215
422.286397
418.709717
414.975191
411.075586
407.004809
402.758366
398.333894
393.731766
388.955745
384.013697
378.918306
373.687775
368.346429
362.925167
357.461662
352.00021
346.591132
341.289658
336.154251
331.244324
326.617454
322.325894
318.413197
314.91187
311.840675
309.20302
306.989395
305.17543
303.72635
302.599887
301.747232
301.119809
300.673539
300.366942
300.163653
300.033659
299.95381
299.906003
299.8784
299.859913
299.847736
299.839398
299.83349
299.828846
299.825156
299.82201
299.81892
299.815897
299.812616
299.80711
299.802146
299.799171
299.797038
299.794833
299.793815
299.794797
299.796801
299.79687
299.797934
299.805605
471.984218
469.930229
467.822238
465.658576
463.437213
461.155726
458.811262
456.400507
453.919656
451.364384
448.729828
446.010579
443.200681
440.293651
437.282508
434.159835
430.917864
427.548597
424.043995
420.396157
416.597573
412.641437
408.522021
404.235108
399.778507
395.152613
390.361041
385.411288
380.315412
375.090682
369.76015
364.353074
358.905099
353.458132
348.059774
342.762276
337.620948
332.692069
328.030373
323.68628
319.703378
316.114687
312.940715
310.187866
307.85064
305.909754
304.336147
303.092282
302.134932
301.418859
300.898874
300.531808
300.280404
300.113472
300.005389
299.936774
299.894065
299.866523
299.850372
299.843548
299.839544
299.835294
299.829689
299.825659
299.822398
299.819476
299.816156
299.811971
299.807634
299.802358
299.798012
299.791905
299.788391
299.786682
299.786716
299.786701
299.790881
299.795352
299.799399
299.807683
471.87719
469.606751
467.276547
464.884674
462.428823
459.906242
457.313708
454.647497
451.903363
449.076526
446.161664
443.152933
440.043991
436.828049
433.497952
430.046297
426.465591
422.748429
418.887735
414.877055
410.710904
406.385184
401.897656
397.248474
392.44078
387.481321
382.381093
377.155955
371.827174
366.42184
360.973073
355.519953
350.107065
344.783618
339.602048
334.616128
329.878652
325.438822
321.339565
317.615369
314.28949
311.374912
308.870993
306.765835
305.035623
303.646837
302.559015
301.729251
301.114686
300.67354
300.367083
300.161046
300.027267
299.943847
299.894254
299.866408
299.852275
299.84751
299.844658
299.842591
299.839109
299.834416
299.828482
299.822913
299.817689
299.812975
299.808781
299.8052
299.803
299.801544
299.79886
299.794973
299.789574
299.787079
299.786272
299.784223
299.784546
299.788455
299.793443
299.798602
471.766056
469.270854
466.709894
464.081034
461.381685
458.608783
455.758761
452.827534
449.810489
446.702492
443.497909
440.190648
436.774226
433.241873
429.586673
425.801728
421.880383
417.816486
413.604722
409.24099
404.722845
400.049998
395.224863
390.253147
385.144446
379.912836
374.577403
369.16266
363.698796
358.221675
352.772525
347.397245
342.145287
337.068096
332.217083
327.641311
323.38507
319.485343
315.969708
312.855157
310.148103
307.844704
305.928147
304.369174
303.130615
302.170977
301.4466
300.914186
300.533795
300.271327
300.097762
299.988143
299.922303
299.885051
299.865376
299.856016
299.850964
299.847047
299.843303
299.839421
299.83493
299.829521
299.823179
299.816644
299.810444
299.806666
299.804917
299.803889
299.802202
299.800604
299.799581
299.797047
299.793349
299.790327
299.790027
299.788294
299.785083
299.783843
299.7871
299.79027
472.556745
471.660539
470.74105
469.797901
468.830709
467.839088
466.822641
465.780957
464.713613
463.620167
462.500156
461.353095
460.178474
458.975751
457.744351
456.483662
455.193027
453.871741
452.519043
451.134109
449.716048
448.263889
446.776573
445.252947
443.691748
442.091597
440.450981
438.768243
437.041559
435.268917
433.448094
431.576631
429.651792
427.670533
425.629469
423.524852
421.352518
419.107841
416.785692
414.380392
411.885682
409.294683
406.59989
403.793175
400.865834
397.808688
394.612265
391.267106
387.764244
384.095916
380.256666
376.244887
372.064943
367.729986
363.265437
358.712889
354.133923
349.613122
345.257648
341.192636
337.550406
334.45255
331.987766
330.191396
329.034142
328.425585
328.288432
328.382659
328.597642
328.83889
329.047851
329.190047
329.270358
329.302537
329.299081
329.280697
329.217836
329.126389
328.999123
328.820533
472.551354
471.644285
470.713726
469.759348
468.780824
467.77782
466.749997
465.697005
464.618485
463.51406
462.383342
461.225921
460.041369
458.829233
457.589035
456.320265
455.022379
453.694797
452.33689
450.947984
449.527346
448.074181
446.587625
445.066741
443.510502
441.917795
440.2874
438.617992
436.908122
435.156211
433.360538
431.519218
429.630188
427.691201
425.69977
423.65312
421.548144
419.381355
417.148861
414.846359
412.469052
410.011603
407.468084
404.83194
402.095954
399.252248
396.29232
393.207142
389.987367
386.623688
383.107429
379.431466
375.591604
371.588555
367.430626
363.137163
358.74264
354.300865
349.888099
345.604422
341.571037
337.921849
334.787195
332.270236
330.422327
329.226432
328.602737
328.470414
328.60937
328.906121
329.24157
329.555417
329.796892
329.950893
330.032204
330.0602
330.05014
330.007519
329.927551
329.833535
472.543399
471.620284
470.673346
469.702307
468.706896
467.686839
466.641861
465.57168
464.476006
463.354544
462.206985
461.03301
459.832286
458.604464
457.349179
456.066043
454.754643
453.41454
452.045261
450.646294
449.217086
447.757034
446.265479
444.741701
443.184914
441.594254
439.968778
438.307454
436.609153
434.872648
433.096598
431.279553
429.419941
427.516051
425.566024
423.567875
421.519431
419.41831
417.261834
415.046942
412.770131
410.42741
408.01442
405.526276
402.957508
400.302017
397.553035
394.703113
391.74415
388.667503
385.464211
382.125406
378.643016
375.010885
371.22646
367.293208
363.223829
359.044214
354.797824
350.549723
346.388632
342.425112
338.784558
335.593347
332.959975
330.952835
329.592426
328.840058
328.643817
328.790111
329.132514
329.575645
330.027919
330.433781
330.733684
330.901834
330.987875
331.028729
331.043194
331.048691
472.532516
471.587437
470.618049
469.624129
468.605464
467.561842
466.493055
465.398893
464.279149
463.13361
461.962063
460.764291
459.540074
458.289185
457.01139
455.706448
454.374104
453.014089
451.626113
450.209863
448.764996
447.291135
445.787859
444.2547
442.691133
441.096572
439.470357
437.811751
436.119931
434.393982
432.632894
430.835561
429.000781
427.127249
425.213573
423.258219
421.259541
419.215824
417.125191
414.98561
412.794872
410.550477
408.249394
405.888063
403.462318
400.96775
398.399377
395.751602
393.018192
390.192262
387.266321
384.232377
381.082211
377.807869
374.402491
370.86164
367.185238
363.380158
359.463793
355.46793
351.443179
347.461939
343.619318
340.028545
336.807917
334.054201
331.847753
330.240067
329.241177
328.835644
328.909734
329.223525
329.742656
330.331873
330.896171
331.385345
331.769212
332.011863
332.125796
332.207075
472.518241
471.544341
470.545468
469.521449
468.472125
467.397347
466.296971
465.170865
464.0189
462.840954
461.636916
460.406677
459.15014
457.867214
456.557815
455.221866
453.859292
452.470022
451.053982
449.611091
448.14126
446.64438
445.120321
443.568925
441.989995
440.38329
438.748515
437.085311
435.393249
433.671811
431.920387
430.13825
428.324553
426.478302
424.598358
422.68343
420.732085
418.742708
416.713601
414.643351
412.530531
410.373416
408.170127
405.918673
403.616759
401.261301
398.848544
396.374007
393.833236
391.221178
388.532169
385.759954
382.897747
379.938395
376.874697
373.700032
370.40928
367.000203
363.47592
359.847105
356.13616
352.380496
348.636206
344.978941
341.502553
338.295106
335.447619
333.049683
331.175517
329.874072
329.155043
329.071986
329.227163
329.621288
330.270174
331.025671
331.711215
332.25407
332.672543
332.978397
472.500154
471.489726
470.453463
469.391244
468.302964
467.188538
466.047894
464.880977
463.687746
462.46818
461.222275
459.950049
458.651537
457.326801
455.975923
454.599007
453.196179
451.767585
450.313387
448.83376
447.328887
445.798956
444.244146
442.664629
441.060555
439.432046
437.779182
436.101995
434.400453
432.674453
430.9238
429.148203
427.347259
425.520439
423.667087
421.786402
419.877444
417.93911
415.97012
413.968658
411.932664
409.860108
407.748867
405.5977
403.406112
401.172354
398.894644
396.570803
394.197695
391.771307
389.286705
386.739556
384.124957
381.437474
378.671307
375.820507
372.87924
369.842505
366.707416
363.474293
360.149509
356.747619
353.29433
349.828974
346.407883
343.100167
339.974272
337.108903
334.581328
332.465357
330.821521
329.676021
329.173329
329.223408
329.43844
329.866587
330.587525
331.471338
332.328049
332.993041
472.477833
471.422316
470.33988
469.230452
468.093983
466.930446
465.739842
464.522194
463.277554
462.006001
460.707649
459.382642
458.031162
456.653431
455.24971
453.8203
452.365545
450.885829
449.381573
447.853234
446.301297
444.726272
443.128688
441.509081
439.867984
438.205922
436.523394
434.820863
433.098739
431.357366
429.597003
427.817814
426.019847
424.203017
422.367096
420.511694
418.636254
416.740034
414.822113
412.88137
410.91651
408.926083
406.908518
404.861219
402.780735
400.664631
398.51038
396.319006
394.090616
391.823692
389.516215
387.165159
384.76643
382.314386
379.805126
377.234347
374.597372
371.889527
369.106573
366.245299
363.304837
360.287989
357.203299
354.067553
350.908665
347.766729
344.6923
341.733527
338.943982
336.387233
334.130889
332.235338
330.765807
329.734891
329.398121
329.394495
329.569941
329.989438
330.705817
331.662986
472.45091
471.340995
470.202829
469.036377
467.841635
466.618633
465.367432
464.088133
462.780873
461.445831
460.083232
458.693352
457.276519
455.83312
454.363602
452.868473
451.348309
449.803744
448.235481
446.644279
445.030954
443.396373
441.741445
440.06711
438.374333
436.664087
434.937343
433.19505
431.438118
429.6674
427.88367
426.087605
424.27976
422.46055
420.630222
418.788841
416.936271
415.072155
413.195918
411.306742
409.403588
407.485169
405.549979
403.596292
401.622239
399.625941
397.6056
395.556123
393.473403
391.354959
389.198109
387.011352
384.793158
382.542113
380.254739
377.927455
375.554673
373.132034
370.65652
368.125096
365.535162
362.885432
360.176901
357.414228
354.607464
351.773813
348.939096
346.139048
343.408816
340.790681
338.329018
336.068126
334.054241
332.325887
330.899365
329.924608
329.516607
329.548007
329.691102
330.12548
472.419209
471.24523
470.041402
468.807713
467.54419
466.250905
464.927969
463.575544
462.193842
460.78313
459.343739
457.876064
456.380577
454.857824
453.308435
451.73313
450.132714
448.508086
446.860237
445.190246
443.49928
441.788586
440.059484
438.313359
436.551644
434.775814
432.987363
431.187786
429.378559
427.561114
425.736815
423.906929
422.072602
420.234825
418.394408
416.551952
414.70782
412.862111
411.014645
409.164942
407.312234
405.455438
403.593193
401.723847
399.845501
397.956057
396.05326
394.13474
392.198254
390.241939
388.264505
386.254742
384.211408
382.132828
380.018208
377.883357
375.727384
373.54648
371.337096
369.095053
366.813619
364.491815
362.128916
359.72523
357.283116
354.808213
352.310591
349.805966
347.316747
344.869386
342.490417
340.211927
338.067132
336.089513
334.309876
332.760985
331.442887
330.408961
329.8341
329.923829
472.382866
471.135431
469.856279
468.545404
467.202847
465.828696
464.423097
462.986253
461.51843
460.019968
458.491283
456.932879
455.34535
453.729394
452.085813
450.415526
448.719568
446.999097
445.255397
443.489873
441.704053
439.899583
438.078219
436.241816
434.392318
432.531741
430.662152
428.785653
426.904349
425.020324
423.135606
421.252136
419.371733
417.496056
415.626562
413.764477
411.910753
410.066035
408.230627
406.404472
404.587133
402.77778
400.975206
399.177834
397.38373
395.590657
393.796135
391.997507
390.192025
388.37693
386.549508
384.707089
382.847856
380.971044
379.075704
377.146502
375.18479
373.190281
371.169562
369.144601
367.113304
365.070534
363.012355
360.934048
358.830943
356.705447
354.561205
352.404075
350.243071
348.091031
345.965321
343.885516
341.871267
339.9438
338.12519
336.437305
334.900852
333.533175
332.375157
331.322696
472.342419
471.013213
469.650181
468.253296
466.822586
465.358138
463.860103
462.3287
460.76423
459.167079
457.537727
455.876763
454.184887
452.462927
450.711842
448.932738
447.126866
445.295639
443.440625
441.563558
439.666334
437.751005
435.819777
433.875001
431.919155
429.95483
427.984711
426.011548
424.038128
422.067245
420.101658
418.144052
416.196994
414.262885
412.343915
410.442009
408.558782
406.695492
404.852999
403.031727
401.231638
399.452222
397.69247
395.950896
394.225554
392.514082
390.813762
389.121596
387.434403
385.748918
384.061918
382.370341
380.671426
378.962804
377.242487
375.508862
373.762135
372.004524
370.232548
368.429987
366.602094
364.750205
362.884566
361.038999
359.208605
357.386653
355.568704
353.750859
351.930921
350.115601
348.313004
346.533146
344.788225
343.093096
341.461671
339.907954
338.444116
337.080795
335.823651
334.624883
472.298861
470.881581
469.428169
467.938554
466.412725
464.850739
463.252727
461.618901
459.949565
458.245127
456.506107
454.733152
452.927045
451.088722
449.21928
447.31999
445.39231
443.437888
441.458575
439.456427
437.433706
435.392879
433.336617
431.267779
429.189405
427.104694
425.016983
422.929718
420.846417
418.770638
416.705929
414.655779
412.62356
410.612475
408.625495
406.665299
404.734214
402.834156
400.966582
399.132417
397.332019
395.565184
393.831091
392.128317
390.454856
388.808166
387.185229
385.582636
383.996694
382.423548
380.859321
379.300264
377.742905
376.184196
374.621645
373.053406
371.478407
369.896337
368.307288
366.712094
365.114358
363.520509
361.928553
360.316041
358.694146
357.067489
355.435681
353.855139
352.318141
350.814575
349.337382
347.876954
346.444422
345.049319
343.701781
342.411542
341.186185
340.026473
338.913484
337.762566
472.253672
470.745007
469.197785
467.611864
465.987173
464.323712
462.621565
460.880911
459.102033
457.285335
455.431352
453.540765
451.614421
449.653341
447.65874
445.632044
443.574897
441.489181
439.37702
437.240793
435.083133
432.906935
430.715347
428.511764
426.299815
424.083343
421.866375
419.653094
417.447796
415.254841
413.07861
410.923436
408.793548
406.692995
404.625575
402.594756
400.603598
398.654672
396.750025
394.89107
393.078543
391.312486
389.59221
387.916289
386.282588
384.688302
383.130032
381.603876
380.10555
378.630531
377.17421
375.732064
374.299828
372.873667
371.45033
370.027291
368.602834
367.176157
365.747375
364.317531
362.888585
361.463107
360.043576
358.632661
357.236695
355.864896
354.5299
353.191446
351.871226
350.581297
349.331269
348.13479
346.996965
345.921853
344.915731
343.986536
343.137716
342.354627
341.58172
340.675858
472.208875
470.609603
468.96934
467.287856
465.564995
463.800679
461.994927
460.14786
458.259721
456.330887
454.361888
452.353422
450.306377
448.221847
446.101152
443.945857
441.75779
439.539056
437.292053
435.019485
432.724361
430.410008
428.080061
425.738461
423.389438
421.037492
418.687365
416.344001
414.012508
411.698094
409.406011
407.141485
404.90963
402.71537
400.563339
398.457791
396.402506
394.400694
392.454932
390.567065
388.738145
386.968388
385.257147
383.602909
382.003321
380.455244
378.954836
377.497668
376.078864
374.693267
373.335624