/*--------------------------------*- C++ -*----------------------------------*\
  =========                 |
  \\      /  F ield         | OpenFOAM: The Open Source CFD Toolbox
   \\    /   O peration     | Website:  https://openfoam.org
    \\  /    A nd           | Version:  8
     \\/     M anipulation  |
\*---------------------------------------------------------------------------*/
FoamFile
{
    version     2.0;
    format      ascii;
    class       surfaceScalarField;
    location    "0.049";
    object      phi;
}
// * * * * * * * * * * * * * * * * * * * * * * * * * * * * * * * * * * * * * //

dimensions      [1 0 -1 0 0 0 0];

internalField   nonuniform List<scalar> 
84340
(
-6.61941458e-08
2.77595157e-07
-2.11172812e-07
-2.72497328e-07
8.80458442e-07
-6.73786066e-07
-6.28965629e-07
1.54844069e-06
-1.1915162e-06
-1.14373553e-06
2.27752301e-06
-1.76222174e-06
-1.82394176e-06
3.06253384e-06
-2.38172968e-06
-2.67614314e-06
3.89849986e-06
-3.0456387e-06
-3.70662105e-06
4.78166304e-06
-3.75046487e-06
-4.92156157e-06
5.70965304e-06
-4.49393083e-06
-6.32714995e-06
6.68128431e-06
-5.27485004e-06
-7.92959965e-06
7.69626165e-06
-6.09289807e-06
-9.73513352e-06
8.75490869e-06
-6.94838815e-06
-1.17499305e-05
9.8579379e-06
-7.84207619e-06
-1.39800469e-05
1.10062666e-05
-8.77500134e-06
-1.64313199e-05
1.22008759e-05
-9.74836342e-06
-1.91092467e-05
1.34426995e-05
-1.07634355e-05
-2.20188617e-05
1.47325589e-05
-1.18215018e-05
-2.51645802e-05
1.60711096e-05
-1.29238356e-05
-2.8550041e-05
1.74588139e-05
-1.40716757e-05
-3.217792e-05
1.88959273e-05
-1.52662391e-05
-3.60497295e-05
2.03824859e-05
-1.65087254e-05
-4.01655934e-05
2.19182998e-05
-1.78003316e-05
-4.45239996e-05
2.35029421e-05
-1.91422664e-05
-4.91215161e-05
2.51357253e-05
-2.05357601e-05
-5.39524884e-05
2.68156767e-05
-2.19820625e-05
-5.90086782e-05
2.85414843e-05
-2.34824421e-05
-6.42788736e-05
3.03114366e-05
-2.50381618e-05
-6.97484427e-05
3.21233307e-05
-2.66504341e-05
-7.53988363e-05
3.39743667e-05
-2.83203776e-05
-8.1207034e-05
3.58610165e-05
-3.0048929e-05
-8.71449597e-05
3.77788763e-05
-3.18367431e-05
-9.31788475e-05
3.97225088e-05
-3.36840636e-05
-9.92685354e-05
4.16851893e-05
-3.55905661e-05
-0.000105367124
4.36591536e-05
-3.75552117e-05
-0.000111421867
4.56366237e-05
-3.95760807e-05
-0.000117374036
4.76086293e-05
-4.1650173e-05
-0.000123146906
4.95533235e-05
-4.37736268e-05
-0.000128635408
5.14392481e-05
-4.59432945e-05
-0.000133730108
5.32596826e-05
-4.81569059e-05
-0.000138327189
5.5011255e-05
-5.04055233e-05
-0.0001423201
5.66497113e-05
-5.26475221e-05
-0.000145533999
5.80902227e-05
-5.48661727e-05
-0.000147690515
5.92257898e-05
-5.70581981e-05
-0.000148510575
6.00291798e-05
-5.91971007e-05
-0.000147741995
6.04330239e-05
-6.11885038e-05
-0.000145135667
6.03390456e-05
-6.29311425e-05
-0.000140330687
5.9623505e-05
-6.44131812e-05
-0.000132954924
5.81475477e-05
-6.55067632e-05
-0.000122595406
5.5776946e-05
-6.61186018e-05
-0.000108802442
5.23655833e-05
-6.61392781e-05
-9.10637447e-05
4.76827387e-05
-6.54007438e-05
-6.89582537e-05
4.16471154e-05
-6.37303685e-05
-4.19261393e-05
3.39407313e-05
-6.09490664e-05
-9.69608409e-06
2.46688785e-05
-5.68733578e-05
2.8783582e-05
1.27631426e-05
-5.12152419e-05
7.45168367e-05
-1.84920258e-06
-4.38548569e-05
0.00012845965
-1.96028171e-05
-3.43093443e-05
0.000191841187
-4.05632074e-05
-2.27848731e-05
0.000266068131
-6.62715555e-05
-7.91874674e-06
0.000352506209
-9.67875076e-05
1.03891935e-05
0.000452569178
-0.000132684861
3.2664905e-05
0.000568322204
-0.000174711039
5.9004952e-05
0.000700822154
-0.000223669692
9.12211689e-05
0.000851969712
-0.000280412127
0.000129321362
0.00102377154
-0.000345788877
0.000174049368
0.00121780837
-0.000420149514
0.000226181129
0.00143597255
-0.0005048175
0.000286725395
0.00168011905
-0.000600160991
0.000356085646
0.00194890495
-0.000703076549
0.000434359929
0.0022516066
-0.000832467269
0.000529833429
0.00260499169
-0.00097722549
0.000623907707
0.00296413213
-0.00104730932
0.000688235633
0.00327897659
-0.00119227843
0.000877498777
0.00370272131
-0.0015647577
0.00114107657
0.00432110041
-0.00175216229
0.00113384619
0.0048721912
-0.0017397387
0.0011887078
0.00520859943
-0.0020036704
0.00166731889
0.00557385038
-0.00243440857
0.002069208
0.00615225357
-0.00267631654
0.0020979585
0.00685401836
-0.00269505909
0.00199333188
-0.00279483934
0.00236722821
0.00728165213
-5.14316379e-08
3.29373541e-07
-2.13509043e-07
1.04303307e-06
-4.95267031e-07
1.8307749e-06
-9.03825612e-07
2.6867302e-06
-1.44507332e-06
3.60449795e-06
-2.12426754e-06
4.57847654e-06
-2.94624712e-06
5.60449187e-06
-3.91560573e-06
6.67993026e-06
-5.03677411e-06
7.80344465e-06
-6.31403571e-06
8.97459348e-06
-7.75149107e-06
1.01935183e-05
-9.35298661e-06
1.1460678e-05
-1.11220133e-05
1.27766352e-05
-1.30615802e-05
1.41418894e-05
-1.51740752e-05
1.5556754e-05
-1.74610908e-05
1.70212551e-05
-1.99232417e-05
1.85350719e-05
-2.25599571e-05
2.00974808e-05
-2.53692428e-05
2.17073154e-05
-2.83474258e-05
2.33629334e-05
-3.14888657e-05
2.50621788e-05
-3.47856313e-05
2.6802334e-05
-3.82271501e-05
2.85800725e-05
-4.1799815e-05
3.03913868e-05
-4.54865472e-05
3.22314961e-05
-4.92663295e-05
3.40947496e-05
-5.31136734e-05
3.59744779e-05
-5.69980561e-05
3.78628448e-05
-6.08833175e-05
3.97506908e-05
-6.47272109e-05
4.16275212e-05
-6.84820381e-05
4.34824528e-05
-7.208999e-05
4.52986616e-05
-7.54793138e-05
4.70544516e-05
-7.85714311e-05
4.87351358e-05
-8.12775028e-05
5.03215058e-05
-8.35110043e-05
5.17941739e-05
-8.51720414e-05
5.31082614e-05
-8.61073114e-05
5.42035344e-05
-8.60833666e-05
5.49965462e-05
-8.48621584e-05
5.54384354e-05
-8.22166372e-05
5.54554704e-05
-7.79334334e-05
5.49542449e-05
-7.17358287e-05
5.38441425e-05
-6.32961436e-05
5.20068489e-05
-5.2262207e-05
4.93196362e-05
-3.82132422e-05
4.55901204e-05
-2.0800072e-05
4.07511071e-05
4.13091072e-07
3.45816682e-05
2.56206129e-05
2.71772759e-05
5.56057932e-05
1.7718212e-05
9.11359182e-05
6.13885313e-06
0.000133038911
-7.93927298e-06
0.000182314384
-2.45815724e-05
0.00024011306
-4.50083108e-05
0.000307642515
-6.93492633e-05
0.000386108671
-9.803723e-05
0.000477306636
-0.00013172668
0.000582183916
-0.000171111383
0.000702364964
-0.000216927556
0.000839607791
-0.000269882881
0.000995653072
-0.000330707537
0.00117202095
-0.000399984534
0.00137008527
-0.000478418853
0.00159148846
-0.0005671333
0.00183770478
-0.000666309457
0.00211057608
-0.000777634664
0.00241390329
-0.000903435929
0.00274671048
-0.00103583291
0.00310110699
-0.00118681419
0.00350607619
-0.00138214564
0.00398435329
-0.00152553784
0.00440984256
-0.00161771951
0.00475118329
-0.00190605122
0.00525093921
-0.00225187437
0.00588054566
-0.00236930587
0.00633851167
-0.00246160091
0.00655643604
-0.00265229947
0.00672840131
-0.0028482374
0.00702565983
-0.00299228042
-0.00310149657
0.00733233666
-3.85295666e-08
3.68338292e-07
-1.6166405e-07
1.16679277e-06
-3.77123217e-07
2.04695921e-06
-6.90631004e-07
3.00105433e-06
-1.10662227e-06
4.02139046e-06
-1.6285831e-06
5.10142056e-06
-2.25947552e-06
6.23644964e-06
-3.00193106e-06
7.42353565e-06
-3.85823546e-06
8.66098744e-06
-4.83033122e-06
9.94802122e-06
-5.91976551e-06
1.12843842e-05
-7.12759789e-06
1.2670048e-05
-8.45427706e-06
1.41049654e-05
-9.89949053e-06
1.55888746e-05
-1.14619876e-05
1.71211518e-05
-1.3139385e-05
1.87006908e-05
-1.49279373e-05
2.03258093e-05
-1.68222936e-05
2.19941788e-05
-1.88152174e-05
2.37027481e-05
-2.08972808e-05
2.54476839e-05
-2.30565259e-05
2.72243018e-05
-2.52780929e-05
2.90269822e-05
-2.75438145e-05
3.08490935e-05
-2.98317468e-05
3.26828511e-05
-3.21156427e-05
3.45191744e-05
-3.43643947e-05
3.63475516e-05
-3.65414554e-05
3.81558757e-05
-3.86040306e-05
3.99300666e-05
-4.05006767e-05
4.16523252e-05
-4.21722564e-05
4.33044314e-05
-4.35528648e-05
4.48687302e-05
-4.45743628e-05
4.63262344e-05
-4.51640979e-05
4.76507254e-05
-4.52168256e-05
4.87948694e-05
-4.45991217e-05
4.97113108e-05
-4.31358072e-05
5.0338913e-05
-4.0633164e-05
5.06142758e-05
-3.68856334e-05
5.04653447e-05
-3.16849509e-05
4.98059548e-05
-2.47969746e-05
4.85613025e-05
-1.59524821e-05
4.66226379e-05
-4.85118462e-06
4.38654588e-05
8.85819694e-06
4.01482081e-05
2.55036653e-05
3.53757895e-05
4.54844591e-05
2.93542704e-05
6.89063965e-05
2.21847409e-05
9.6628373e-05
1.30466759e-05
0.000129292445
1.93608448e-06
0.000167701861
-1.12120976e-05
0.000212775387
-2.73336217e-05
0.000265560983
-4.6623434e-05
0.000327136424
-6.94896639e-05
0.000398980273
-9.63984206e-05
0.000481978024
-0.000127976994
0.000577478658
-0.000164818469
0.000687029762
-0.000207554268
0.000812208049
-0.000256868035
0.000954548011
-0.000313411623
0.00111566804
-0.000378004806
0.00129693939
-0.00045110804
0.00149972702
-0.00053344644
0.00172528464
-0.000625493794
0.00197456762
-0.000727655818
0.00224897532
-0.000841497138
0.00255034391
-0.000967636159
0.00287901575
-0.00110626615
0.0032353001
-0.00125968125
0.00362454525
-0.0014250398
0.00402670498
-0.00158893625
0.00443337401
-0.00178877693
0.00490610643
-0.00199823299
0.00542690833
-0.00213848633
0.00580476736
-0.00228387893
0.00605520463
-0.00250227894
0.00634491483
-0.00265897263
0.00666105568
-0.00277770028
0.006897057
-0.00288827272
0.00703659165
-0.00298774281
0.00714571613
-0.00310136988
-0.00321401232
0.00725825827
-3.08335141e-08
3.99606352e-07
-1.29701469e-07
1.26627986e-06
-3.02634541e-07
2.22060651e-06
-5.53600722e-07
3.25282203e-06
-8.85285455e-07
4.35395882e-06
-1.29933062e-06
5.51642953e-06
-1.79655942e-06
6.73472335e-06
-2.37710777e-06
8.00521299e-06
-3.0407997e-06
9.32589715e-06
-3.78689587e-06
1.06954297e-05
-4.61401506e-06
1.21129169e-05
-5.52002241e-06
1.35775774e-05
-6.50187455e-06
1.5088456e-05
-7.5554459e-06
1.66442092e-05
-8.67532421e-06
1.82429271e-05
-9.85457474e-06
1.98819814e-05
-1.10844876e-05
2.15579153e-05
-1.23542875e-05
2.32663352e-05
-1.36508228e-05
2.50018146e-05
-1.49581898e-05
2.67577681e-05
-1.62572685e-05
2.85262966e-05
-1.75252076e-05
3.02980488e-05
-1.87348892e-05
3.20621276e-05
-1.98544543e-05
3.38060073e-05
-2.08464072e-05
3.55149769e-05
-2.16684264e-05
3.71736982e-05
-2.22735731e-05
3.87654304e-05
-2.26107288e-05
4.02719143e-05
-2.26178083e-05
4.1664415e-05
-2.22160646e-05
4.29080506e-05
-2.13096736e-05
4.39680561e-05
-1.97813764e-05
4.48040472e-05
-1.74862881e-05
4.53621907e-05
-1.42733399e-05
4.55889127e-05
-9.96833759e-06
4.54137957e-05
-4.37375018e-06
4.47523581e-05
2.72334988e-06
4.35257808e-05
1.15520996e-05
4.16457889e-05
2.23622206e-05
3.90056559e-05
3.54739104e-05
3.54601034e-05
5.11887199e-05
3.09190248e-05
6.98779302e-05
2.5188177e-05
9.16650117e-05
1.83739086e-05
0.000117341601
9.71265008e-06
0.000147509872
-7.99937624e-07
0.000182855316
-1.31455406e-05
0.000224304176
-2.83857191e-05
0.000272739165
-4.64812726e-05
0.000329409254
-6.78632826e-05
0.000395127251
-9.30313621e-05
0.000471029188
-0.000122503613
0.000558377207
-0.000156814285
0.000658560319
-0.000196556233
0.00077299482
-0.00024238423
0.000903159245
-0.000294953673
0.00105049954
-0.000354863332
0.00121645783
-0.000422792781
0.00140230346
-0.000499221115
0.00160917789
-0.000584841674
0.0018382224
-0.000680115827
0.00209057094
-0.000785759992
0.00236696556
-0.000901855018
0.00266744169
-0.00102810007
0.0029905541
-0.00116457888
0.00333635595
-0.00131340848
0.00370376971
-0.00147365107
0.00408436468
-0.00164024797
0.00448285739
-0.00182350436
0.00489362709
-0.00199967854
0.00527020895
-0.00216533283
0.00559771092
-0.00232571016
0.00592379277
-0.00246454175
0.00620616648
-0.00256622082
0.00638199111
-0.00267807228
0.00651445128
-0.00279140489
0.00664793079
-0.00291114876
0.00677404471
-0.00301436413
0.00689942573
-0.00311310064
0.00700363579
-0.00320555236
-0.0033049023
0.00709454536
-2.8805064e-08
4.28967037e-07
-1.20063238e-07
1.35832721e-06
-2.77900733e-07
2.37935249e-06
-5.04299608e-07
3.48023829e-06
-7.99764168e-07
4.65054229e-06
-1.16378924e-06
5.88167183e-06
-1.59489669e-06
7.16714689e-06
-2.09067048e-06
8.50240425e-06
-2.64790346e-06
9.88465307e-06
-3.2627137e-06
1.13118739e-05
-3.93026868e-06
1.27822234e-05
-4.64463559e-06
1.42938205e-05
-5.39859793e-06
1.58444269e-05
-6.18343675e-06
1.74311971e-05
-6.98868057e-06
1.90504693e-05
-7.80183207e-06
2.06975895e-05
-8.60803321e-06
2.23667412e-05
-9.38966338e-06
2.40507682e-05
-1.01259068e-05
2.57410493e-05
-1.07924124e-05
2.74274646e-05
-1.13605961e-05
2.90978854e-05
-1.17981071e-05
3.07391936e-05
-1.20688256e-05
3.2336712e-05
-1.21312606e-05
3.38725532e-05
-1.19328836e-05
3.53209832e-05
-1.14124354e-05
3.66579137e-05
-1.04969682e-05
3.78549147e-05
-9.09765154e-06
3.88778748e-05
-7.11447427e-06
3.96868748e-05
-4.43775868e-06
4.02373332e-05
-9.3724619e-07
4.04739298e-05
3.54238922e-06
4.03312425e-05
9.1794327e-06
3.97324585e-05
1.61598162e-05
3.86163278e-05
2.46925527e-05
3.68893815e-05
3.50026428e-05
3.44511445e-05
4.73520992e-05
3.11858006e-05
6.20598423e-05
2.69481436e-05
7.9473171e-05
2.1603094e-05
9.97345662e-05
1.52102372e-05
0.000123563045
7.10267448e-06
0.000151486255
-2.72236107e-06
0.00018414956
-1.42757322e-05
0.000222371896
-2.84948903e-05
0.000266967672
-4.53798814e-05
0.000319121443
-6.52823872e-05
0.000379441226
-8.86873968e-05
0.00044903532
-0.000116056008
0.000529078945
-0.00014788617
0.000620808647
-0.000184738797
0.000725519853
-0.000227190988
0.000844562072
-0.00027583119
0.000979315527
-0.000331282876
0.0011311151
-0.000394155434
0.00130124764
-0.000465056064
0.00149080531
-0.000544388836
0.00170069448
-0.000632649086
0.00193158191
-0.000730076995
0.00218395194
-0.000837181917
0.00245787705
-0.000954012741
0.00275334449
-0.00108120078
0.00306913455
-0.00121761965
0.00340359317
-0.00136253444
0.0037506867
-0.00151164898
0.00410610195
-0.00166880101
0.00446648608
-0.00183401283
0.0048243996
-0.00199814048
0.00515000808
-0.0021490936
0.00543670195
-0.00228635369
0.00567587442
-0.0024044834
0.00585666772
-0.00250647794
0.00600372184
-0.00261157161
0.00614991591
-0.00271238801
0.00628264564
-0.00281077322
0.00639482061
-0.0029035513
0.00648620469
-0.00300250584
0.00657046959
-0.00309860944
0.00665189161
-0.00319449941
0.00674127087
-0.00329491123
-0.00339514949
0.00683153214
-3.13278307e-08
4.60787724e-07
-1.27810934e-07
1.45550778e-06
-2.91353701e-07
2.54369642e-06
-5.21651647e-07
3.71143291e-06
-8.16784705e-07
4.94666182e-06
-1.17353219e-06
6.2394936e-06
-1.58763311e-06
7.58241183e-06
-2.05381648e-06
8.96984539e-06
-2.56529589e-06
1.03974888e-05
-3.11432958e-06
1.18623686e-05
-3.69179746e-06
1.33612643e-05
-4.28700468e-06
1.48907206e-05
-4.8874363e-06
1.644668e-05
-5.47847109e-06
1.80241909e-05
-6.04303663e-06
1.96171411e-05
-6.56125526e-06
2.1218071e-05
-7.010129e-06
2.2818046e-05
-7.36306046e-06
2.4406311e-05
-7.58984706e-06
2.59706331e-05
-7.65471087e-06
2.7495321e-05
-7.51546897e-06
2.89618492e-05
-7.12310447e-06
3.03502631e-05
-6.41981161e-06
3.1637091e-05
-5.33946012e-06
3.27961219e-05
-3.80931109e-06
3.37950221e-05
-1.74267664e-06
3.45957467e-05
9.6334779e-07
3.51536614e-05
4.43039158e-06
3.54159336e-05
8.79468782e-06
3.53280266e-05
1.42062015e-05
3.4831624e-05
2.08340362e-05
3.38522804e-05
2.88671554e-05
3.23047093e-05
3.85106398e-05
3.00959844e-05
5.00189801e-05
2.71154379e-05
6.37306407e-05
2.31856223e-05
7.98394897e-05
1.83507049e-05
9.86679914e-05
1.23662784e-05
0.000120771935
4.85360583e-06
0.000146650258
-4.26542101e-06
0.000176872927
-1.50019144e-05
0.000212164627
-2.81777019e-05
0.000253256488
-4.38021661e-05
0.000301219876
-6.22262836e-05
0.000356612939
-8.38742804e-05
0.000420416891
-0.000109169265
0.000493718658
-0.000138568609
0.000577623133
-0.000172575238
0.000673312447
-0.000211727574
0.000782022208
-0.000256577106
0.000905003656
-0.000307700314
0.00104351428
-0.00036568055
0.00119877152
-0.000431066158
0.00137187179
-0.000504359494
0.00156362808
-0.000585886462
0.00177460027
-0.00067600249
0.00200502027
-0.000774784036
0.00225468592
-0.000882291225
0.00252295574
-0.000998324477
0.00280877937
-0.00112298436
0.00310973454
-0.00125494767
0.00342335449
-0.00139480141
0.00374510816
-0.00153935469
0.00407326099
-0.00169066931
0.00439957925
-0.00183794973
0.00470973031
-0.00197893607
0.00498392874
-0.00210819652
0.00521750424
-0.00223170097
0.00540191532
-0.00233348652
0.00554872804
-0.00243314807
0.00567525292
-0.00253099283
0.00579381953
-0.00262502602
0.00589974159
-0.00271747234
0.00599587809
-0.00280850414
0.00608449472
-0.00289936699
0.00617111028
-0.0029901475
0.00625030875
-0.00308168636
0.00633787804
-0.00318616041
0.00643098302
-0.0032875903
0.00652542662
-0.00338934383
-0.0034884308
0.00661871618
-3.56493419e-08
4.9705217e-07
-1.42550054e-07
1.56327771e-06
-3.20001126e-07
2.7221448e-06
-5.64940292e-07
3.95748654e-06
-8.72492194e-07
5.25543737e-06
-1.23623171e-06
6.60456209e-06
-1.648294e-06
7.9959089e-06
-2.09941357e-06
9.4225096e-06
-2.57873588e-06
1.08784701e-05
-3.07348709e-06
1.23588984e-05
-3.56903899e-06
1.38587212e-05
-4.04849444e-06
1.53722149e-05
-4.49236613e-06
1.68927323e-05
-4.87823013e-06
1.84123868e-05
-5.18026791e-06
1.99216719e-05
-5.36866005e-06
2.14091209e-05
-5.40893443e-06
2.28611526e-05
-5.2606857e-06
2.42610887e-05
-4.87730512e-06
2.55904792e-05
-4.20728599e-06
2.68287341e-05
-3.19118944e-06
2.79494061e-05
-1.75884666e-06
2.892181e-05
1.72590313e-07
2.9709803e-05
2.69933134e-06
3.02738033e-05
5.92732447e-06
3.05717352e-05
9.97659187e-06
3.05514877e-05
1.49828403e-05
3.01527435e-05
2.10982451e-05
2.93062007e-05
2.84983933e-05
2.79339124e-05
3.73876981e-05
2.59487381e-05
4.80115041e-05
2.32352968e-05
6.06508114e-05
1.96726609e-05
7.55096126e-05
1.52449425e-05
9.29090367e-05
9.72421076e-06
0.000113328602
2.77456143e-06
0.000137221635
-5.53333712e-06
0.000165124254
-1.55265989e-05
0.000197627526
-2.76391923e-05
0.000235398028
-4.20247552e-05
0.000279394357
-5.8986335e-05
0.000330130915
-7.89015626e-05
0.000388498659
-0.000102156371
0.000455456099
-0.000129169279
0.0005319998
-0.000160402536
0.000619194814
-0.000196347825
0.000718158735
-0.000237515091
0.000830039112
-0.000284437196
0.000955977689
-0.000337646722
0.00109707904
-0.000397658019
0.00125434231
-0.000464942078
0.0014285818
-0.000539897351
0.00162029112
-0.000622751386
0.00182960611
-0.000713649974
0.0020562896
-0.00081254641
0.00229968271
-0.000919373373
0.00255876967
-0.00103384994
0.00283170728
-0.00115520893
0.00311570314
-0.00128230136
0.00340733494
-0.00141459808
0.00370138449
-0.00154897977
0.00399454686
-0.001687947
0.00428008535
-0.0018248775
0.00454312897
-0.00195369862
0.00477473574
-0.00206954344
0.00496759517
-0.00217178259
0.0051222571
-0.00226284187
0.00524253642
-0.00235196395
0.00535348489
-0.00244441765
0.00545677362
-0.00253641934
0.00554725105
-0.00262145776
0.00562959537
-0.00270735619
0.00570784744
-0.0027957055
0.00578577942
-0.00288641779
0.00586237324
-0.00297594582
0.00593717647
-0.00306493842
0.00601562865
-0.00316012724
0.00610689698
-0.00327741751
0.00621642675
-0.00339710873
0.00632783561
-0.00350074369
-0.00359171663
0.00643112746
-3.90463108e-08
5.3660963e-07
-1.52749565e-07
1.67770233e-06
-3.37115104e-07
2.90733754e-06
-5.8559318e-07
4.20688952e-06
-8.89546882e-07
5.56040824e-06
-1.23844827e-06
6.95457091e-06
-1.61991248e-06
8.37857222e-06
-2.01962031e-06
9.82351329e-06
-2.42129676e-06
1.12815453e-05
-2.80583928e-06
1.27449485e-05
-3.15135798e-06
1.42058645e-05
-3.43284887e-06
1.56554556e-05
-3.62162222e-06
1.70833868e-05
-3.68465603e-06
1.84774457e-05
-3.58363405e-06
1.98228314e-05
-3.27538205e-06
2.11032106e-05
-2.71040041e-06
2.2298683e-05
-1.83187713e-06
2.33852665e-05
-5.73310692e-07
2.43348157e-05
1.14124022e-06
2.51172957e-05
3.39784049e-06
2.56961412e-05
6.29372095e-06
2.60295038e-05
9.9384976e-06
2.60688536e-05
1.44574936e-05
2.5758901e-05
1.99972991e-05
2.50363047e-05
2.67250181e-05
2.38284405e-05
3.48322178e-05
2.2050529e-05
4.45416824e-05
1.96020479e-05
5.6092329e-05
1.638893e-05
6.96741618e-05
1.23729644e-05
8.56499125e-05
7.26595167e-06
0.00010438845
9.40803867e-07
0.000126307399
-6.6669343e-06
0.000151885866
-1.58466487e-05
0.000181612194
-2.69436296e-05
0.000216201645
-4.01141312e-05
0.000256328923
-5.56446742e-05
0.000302569349
-7.38698361e-05
0.000355695584
-9.51406017e-05
0.000416558994
-0.000119838704
0.000486053477
-0.000148384299
0.000565134068
-0.000181224491
0.000654801514
-0.000218823557
0.000756077375
-0.000261664513
0.000869978533
-0.000310234377
0.000997486303
-0.000365007498
0.00113949162
-0.0004264264
0.00129673906
-0.000494877229
0.00146974942
-0.000570650554
0.00165872071
-0.000653894451
0.00186343204
-0.000744589269
0.00208323997
-0.000842540376
0.00231697415
-0.000947366132
0.00256296278
-0.00105851781
0.00281895155
-0.00117534574
0.00308222084
-0.00129710345
0.00334918383
-0.00142215677
0.00361553321
-0.00154863596
0.00387590692
-0.00167495742
0.0041243591
-0.00179741852
0.00434649373
-0.00191007004
0.00453583672
-0.00201420883
0.00468897439
-0.00210682159
0.00481475684
-0.00219531192
0.00492438699
-0.00228139984
0.00502519445
-0.0023636347
0.00511550175
-0.00244225798
0.00519571531
-0.00252461892
0.00527118881
-0.0026118775
0.00534548922
-0.00269574218
0.00541359657
-0.00277545041
0.00547859368
-0.0028606888
0.00554990992
-0.00295771902
0.00562990254
-0.00305592495
0.00571211001
-0.00314713678
0.00579532635
-0.00324333508
0.00588721459
-0.00336929677
0.00599674639
-0.00350663374
0.00612019505
-0.00362418703
-0.00372035695
0.00624884052
-3.82596675e-08
5.75508214e-07
-1.45946888e-07
1.78629057e-06
-3.14975528e-07
3.0773986e-06
-5.34444125e-07
4.42751088e-06
-7.90993107e-07
5.81822237e-06
-1.06890324e-06
7.23385489e-06
-1.35001526e-06
8.66116697e-06
-1.61355519e-06
1.00886481e-05
-1.83575898e-06
1.15054613e-05
-1.98936925e-06
1.29003957e-05
-2.04303891e-06
1.42615036e-05
-1.96112879e-06
1.55756536e-05
-1.70283534e-06
1.68273461e-05
-1.22155756e-06
1.79985769e-05
-4.63919338e-07
1.90677702e-05
6.31318017e-07
2.00107262e-05
2.13411426e-06
2.07988265e-05
4.12378428e-06
2.13987328e-05
6.68980061e-06
2.17721455e-05
9.93586708e-06
2.18748001e-05
1.39802813e-05
2.16555355e-05
1.89578352e-05
2.10560093e-05
2.50215832e-05
2.00094311e-05
3.23449685e-05
1.84401238e-05
4.11256544e-05
1.62605239e-05
5.15801165e-05
1.33792067e-05
6.38950677e-05
9.74115842e-06
7.84085176e-05
5.09449664e-06
9.54474616e-05
-6.43803383e-07
0.000115379283
-7.55222606e-06
0.000138615741
-1.59634005e-05
0.00016561314
-2.60490199e-05
0.000196988868
-3.80345858e-05
0.000233326431
-5.21756007e-05
0.000275155937
-6.87639578e-05
0.000323168718
-8.81171319e-05
0.000378115312
-0.000110580846
0.000440789439
-0.000136532839
0.000512037006
-0.00016637633
0.000592742911
-0.000200532059
0.000683809359
-0.000239437488
0.000786134241
-0.00028353538
0.000900585012
-0.000333259605
0.00102795497
-0.000389018987
0.00116891378
-0.000451176967
0.00132394993
-0.000520026663
0.00149330189
-0.00059576054
0.00167688473
-0.000678441273
0.00187415481
-0.00076790115
0.0020841304
-0.000863850813
0.00230533425
-0.000965774838
0.00253580678
-0.00107299547
0.00277299646
-0.00118453921
0.00301359618
-0.00129910158
0.00325375739
-0.00141549159
0.00348950605
-0.00153283712
0.00371739981
-0.00165003606
0.00393003813
-0.0017612608
0.00411762323
-0.00186253043
0.00427701108
-0.00195679469
0.0044060399
-0.00203908563
0.00451076152
-0.00211891368
0.00460385701
-0.00219990252
0.00468802163
-0.002279465
0.00476486382
-0.00235822941
0.00483626899
-0.00243502693
0.00490774356
-0.00251372152
0.00497411861
-0.00259098162
0.00503567905
-0.00267342547
0.00510026631
-0.00276031653
0.00516946253
-0.00284463384
0.00523689466
-0.00292811
0.00530852444
-0.00302933747
0.00539277622
-0.00314016676
0.0054876238
-0.00324197612
0.00558014171
-0.00333584625
0.00566316389
-0.00345231387
0.00574593973
-0.0035894058
0.00584448965
-0.00372273446
-0.00384036849
0.00596450309
-3.17824786e-08
6.07800937e-07
-1.15681699e-07
1.87090904e-06
-2.38533908e-07
3.20107514e-06
-3.83931058e-07
4.57382957e-06
-5.32491854e-07
5.96779673e-06
-6.61807246e-07
7.36427499e-06
-7.4619914e-07
8.74675669e-06
-7.56387997e-07
1.01001315e-05
-6.58957171e-07
1.14094276e-05
-4.15994349e-07
1.26589411e-05
1.57816222e-08
1.38313553e-05
6.85852163e-07
1.49073379e-05
1.6505119e-06
1.58645784e-05
2.97390662e-06
1.66772218e-05
4.72856005e-06
1.73153135e-05
6.99778644e-06
1.77438647e-05
9.87620864e-06
1.7922951e-05
1.34714677e-05
1.78062149e-05
1.79057215e-05
1.73408395e-05
2.33173972e-05
1.64662923e-05
2.98627157e-05
1.51136191e-05
3.77196724e-05
1.32027019e-05
4.70868475e-05
1.06461726e-05
5.8144945e-05
7.3862315e-06
7.11920618e-05
3.21788053e-06
8.6519953e-05
-1.94393415e-06
0.000104452249
-8.18603745e-06
0.000125353912
-1.58016888e-05
0.000149641771
-2.49258097e-05
0.0001778569
-3.57611027e-05
0.000210449188
-4.85490167e-05
0.000247959107
-6.35518224e-05
0.000290985394
-8.105329e-05
0.000340181684
-0.00010136381
0.000396247749
-0.00012482141
0.000459927555
-0.000151787777
0.000531998488
-0.000182642082
0.000613254689
-0.000217778797
0.00070448831
-0.000257599162
0.000806466888
-0.000302499288
0.000919897811
-0.000352856507
0.00104538738
-0.00040901247
0.00118339354
-0.000471252737
0.00133417131
-0.000539783154
0.00149771086
-0.000614702347
0.0016736666
-0.000695967535
0.00186126946
-0.000783347774
0.00205926202
-0.00087641806
0.00226591732
-0.000974541336
0.00247902961
-0.0010769486
0.00269592689
-0.00118265825
0.0029134066
-0.00129046177
0.00312780255
-0.00139892223
0.00333568079
-0.00150696711
0.00353246391
-0.00161226235
0.00371242397
-0.00171278577
0.00386891607
-0.00180651789
0.00400076729
-0.0018931016
0.004109209
-0.00197095953
0.00420047423
-0.00204804737
0.00428404794
-0.00212264878
0.00436005639
-0.00219491089
0.00442679674
-0.00226663209
0.00448912594
-0.00234178382
0.00454573295
-0.00241482663
0.00460009033
-0.00248937308
0.0046556385
-0.00256925508
0.00471465062
-0.00264998105
0.00477335659
-0.00273212136
0.00483728394
-0.00282423215
0.00490815519
-0.00291549477
0.00498286473
-0.00300281108
0.00505501535
-0.00310148012
0.00513212335
-0.00321726803
0.00522475169
-0.00333459941
0.00532541619
-0.00343650725
0.00541289869
-0.00353979451
0.00548270194
-0.00365920848
0.00554344163
-0.00378347421
-0.00391075726
0.00561383123
-1.89223919e-08
6.27358749e-07
-5.90419847e-08
1.91192188e-06
-1.006179e-07
3.24367279e-06
-1.20145359e-07
4.59449674e-06
-9.04679949e-08
5.93936972e-06
1.94212458e-08
7.25574425e-06
2.44787269e-07
8.52285801e-06
6.25721517e-07
9.7207762e-06
1.20763881e-06
1.08292062e-05
2.04198754e-06
1.18264118e-05
3.18701609e-06
1.26882774e-05
4.7089674e-06
1.33874768e-05
6.68298489e-06
1.38927982e-05
9.19474643e-06
1.41678537e-05
1.23412094e-05
1.41714131e-05
1.62323623e-05
1.38554546e-05
2.0992591e-05
1.31656557e-05
2.67622368e-05
1.20397056e-05
3.37006872e-05
1.04057399e-05
4.19876699e-05
8.18289287e-06
5.17936152e-05
5.31150837e-06
6.33769479e-05
1.62344236e-06
7.69950368e-05
-2.96759476e-06
9.29364467e-05
-8.55054721e-06
0.00011152787
-1.53685768e-05
0.000133137433
-2.35481906e-05
0.000158229074
-3.32720104e-05
0.000187187072
-4.47536307e-05
0.000220493311
-5.82255803e-05
0.000258682238
-7.39431199e-05
0.000302325569
-9.21849683e-05
0.00035203419
-0.000113252553
0.000408458133
-0.000137468809
0.000472277043
-0.000165173754
0.000544186934
-0.000196721786
0.000624884535
-0.000232475292
0.000715048055
-0.000272794938
0.000815308856
-0.000318028335
0.000926217594
-0.000368496039
0.00104820532
-0.00042447454
0.00118153848
-0.000486176582
0.00132626866
-0.00055372894
0.00148217858
-0.000627148354
0.00164872631
-0.000706315905
0.00182498714
-0.000790947452
0.00200957725
-0.000880541325
0.0022006414
-0.000974395812
0.00239587088
-0.00107163202
0.00259259658
-0.00117125215
0.00278776213
-0.00127209975
0.00297800844
-0.00137289056
0.00315984019
-0.00147227983
0.00333014464
-0.00156921357
0.00348402731
-0.00166083723
0.00361733392
-0.0017455578
0.00372867127
-0.00182411202
0.00381869038
-0.00189652345
0.00389502501
-0.00196942332
0.00396531064
-0.00204123459
0.00402889464
-0.00211161965
0.00408747086
-0.00218121228
0.0041431197
-0.00225054784
0.00419594144
-0.00231944192
0.00424574671
-0.00239157484
0.00429707715
-0.00246614459
0.0043495412
-0.00254182629
0.00440364899
-0.00262335176
0.00446162312
-0.00270794437
0.00452477554
-0.00279526361
0.00459121456
-0.00289066179
0.00466616855
-0.00299044057
0.00474913629
-0.00308577176
0.00482850962
-0.00318084801
0.00489892655
-0.00328768106
0.00497162359
-0.00340729443
0.00505923184
-0.00352411511
0.00514613292
-0.00362669662
0.00522274103
-0.00373581885
0.00529363445
-0.00385437047
-0.00397161573
0.00535449129
8.10636766e-10
6.2703634e-07
2.63220487e-08
1.88709621e-06
1.04445625e-07
3.16633372e-06
2.67571325e-07
4.43224759e-06
5.5256952e-07
5.655336e-06
1.00113725e-06
6.80822814e-06
1.66031065e-06
7.86482554e-06
2.58321907e-06
8.79910248e-06
3.8299106e-06
9.58384939e-06
5.46828367e-06
1.01894808e-05
7.57503878e-06
1.05830791e-05
1.02373479e-05
1.07268479e-05
1.35535827e-05
1.05783789e-05
1.76349592e-05
1.00884388e-05
2.2606939e-05
9.20155135e-06
2.86111102e-05
7.85356883e-06
3.58075814e-05
5.97165186e-06
4.43550447e-05
3.49490741e-06
5.44760003e-05
2.87644332e-07
6.6396871e-05
-3.73491238e-06
8.03723805e-05
-8.66069085e-06
9.6689047e-05
-1.46896494e-05
0.000115666188
-2.19408889e-05
0.000137699712
-3.05799343e-05
0.000163131045
-4.07954644e-05
0.000192381195
-5.27935657e-05
0.000225915147
-6.6800838e-05
0.000264231872
-8.3064859e-05
0.000307865619
-0.000101853432
0.000357382904
-0.000123454087
0.000413375362
-0.000148170683
0.000476450577
-0.000176320588
0.000547219516
-0.000208230122
0.000626280561
-0.00024422671
0.000714197042
-0.000284629714
0.000811469725
-0.000329738942
0.000918504952
-0.000379820656
0.00103557779
-0.000435091177
0.00116279026
-0.000495698032
0.00130002628
-0.00056169959
0.00144690443
-0.000633043304
0.0016027318
-0.000709544398
0.00176646276
-0.000790866896
0.00193666597
-0.000876506068
0.00211149257
-0.000965760713
0.00228869931
-0.00105773493
0.00246572247
-0.00115140629
0.00263975591
-0.00124565314
0.00280775382
-0.00133923813
0.00296672603
-0.00143106014
0.00311372933
-0.0015198824
0.00324654383
-0.00160508367
0.00336125416
-0.00168391304
0.00345769282
-0.0017572651
0.003539787
-0.00182764292