/*--------------------------------*- C++ -*----------------------------------*\
  =========                 |
  \\      /  F ield         | OpenFOAM: The Open Source CFD Toolbox
   \\    /   O peration     | Website:  https://openfoam.org
    \\  /    A nd           | Version:  8
     \\/     M anipulation  |
\*---------------------------------------------------------------------------*/
FoamFile
{
    version     2.0;
    format      ascii;
    class       volVectorField;
    location    "0.049";
    object      U;
}
// * * * * * * * * * * * * * * * * * * * * * * * * * * * * * * * * * * * * * //

dimensions      [0 1 -1 0 0 0 0];

internalField   nonuniform List<vector> 
42400
(
(-0.015090604 0.0144322753 -1.06634669e-26)
(-0.0469313468 0.0438233213 3.5415129e-26)
(-0.0808330989 0.0738519363 3.92953277e-26)
(-0.116425449 0.104076813 0)
(-0.153250237 0.134053683 0)
(-0.190903805 0.163375739 5.85667423e-28)
(-0.229080033 0.191728243 0)
(-0.267566345 0.218891747 -6.61349476e-28)
(-0.30622413 0.244722444 0)
(-0.344967471 0.269130495 -7.44935837e-28)
(-0.383744957 0.292062433 -7.89918244e-28)
(-0.422525612 0.313488072 8.37171911e-28)
(-0.46128862 0.333391247 -6.47434199e-26)
(-0.50001619 0.351763679 -6.8460894e-26)
(-0.538688979 0.368601366 9.93713945e-28)
(-0.577283463 0.383902894 0)
(-0.615770728 0.397669123 0)
(-0.654116169 0.409903769 0)
(-0.692279718 0.420614477 0)
(-0.730216315 0.429814126 0)
(-0.767876379 0.437522129 0)
(-0.805206148 0.443765598 2.92556127e-27)
(-0.842147777 0.448580288 -1.25316758e-25)
(-0.878639113 0.452011265 -2.76243446e-25)
(-0.914613126 0.454113287 -1.52460632e-25)
(-0.949996946 0.454950889 3.6303744e-27)
(-0.984710494 0.454598222 3.83097923e-27)
(-1.01866472 0.453138657 -8.08560724e-27)
(-1.05175948 0.450664204 0)
(-1.08388099 0.44727469 0)
(-1.11489884 0.443076626 2.64916849e-25)
(-1.14466205 0.438181651 2.90948331e-25)
(-1.17299692 0.432706033 -1.06128788e-26)
(-1.19971099 0.426769017 -3.50915769e-25)
(-1.22459294 0.420484942 -3.7291279e-25)
(-1.24737768 0.413964173 0)
(-1.26784885 0.407406419 0)
(-1.28588639 0.401136838 0)
(-1.30069903 0.3962017 0)
(-1.31196822 0.390716591 -4.2365981e-25)
(-1.31761355 0.385674913 -5.34167089e-25)
(-1.31880305 0.378863196 -7.65887198e-25)
(-1.31297863 0.375151474 -1.87508047e-24)
(-1.29975658 0.372532668 3.64937074e-26)
(-1.27679717 0.370575994 8.45176482e-25)
(-1.24302952 0.368080111 9.29233062e-25)
(-1.19619991 0.366105472 -4.87308567e-26)
(-1.13486729 0.364918804 -9.48016232e-25)
(-1.05731415 0.364774094 -5.85147735e-26)
(-0.961135398 0.365533701 -1.1086552e-24)
(-0.843977684 0.367056188 -3.6241257e-33)
(-0.703621752 0.369216398 2.36581588e-24)
(-0.53857147 0.371678783 1.42525891e-24)
(-0.344053156 0.37515142 -1.77795739e-25)
(-0.12093624 0.379735349 0)
(0.144108231 0.388466051 0)
(0.435775378 0.399610113 0)
(0.790641458 0.409350915 2.67193751e-25)
(1.19889686 0.417398791 2.93834794e-25)
(1.6647317 0.42696818 0)
(2.19592109 0.439062779 -1.89993071e-24)
(2.79904931 0.453147483 -2.24178929e-24)
(3.47692695 0.468756584 1.54934091e-24)
(4.2331459 0.486072571 1.09189239e-24)
(5.06768478 0.506002927 0)
(5.98418932 0.528141118 0)
(6.97715889 0.562171089 -8.89254875e-25)
(8.02858212 0.604074344 -1.81213263e-24)
(9.2398174 0.586136505 1.39654011e-24)
(10.4571935 0.711903138 0)
(11.2723211 1.22801434 0)
(12.8911838 0.908597869 1.19139038e-24)
(15.2037431 -0.355640093 1.17225923e-24)
(15.9095368 0.703292535 0)
(16.4106367 2.43577194 1.83560759e-24)
(18.6241594 1.15443236 1.34026681e-23)
(20.9821383 -0.661333079 2.9518497e-23)
(21.7839386 -0.601866897 -3.28215007e-24)
(21.8825915 1.20705572 -2.72387646e-23)
(22.5511369 1.8328373 -6.48394518e-23)
(-0.0193532884 0.0171427242 0)
(-0.0597254552 0.0520973543 2.83660772e-26)
(-0.102139687 0.0878346631 3.23321417e-26)
(-0.146063174 0.123811056 0)
(-0.190947625 0.159529992 0)
(-0.236325329 0.194560595 3.89901059e-26)
(-0.281849756 0.22857928 4.08481155e-26)
(-0.327283567 0.261365032 -7.80431498e-28)
(-0.372472356 0.292775305 0)
(-0.417318569 0.322721818 -8.80759126e-28)
(-0.461760166 0.351151562 -9.35317469e-28)
(-0.505754618 0.378033048 -5.52002471e-26)
(-0.549267464 0.403346809 -1.18335158e-25)
(-0.592264534 0.427079297 -6.23736703e-26)
(-0.634707052 0.449219415 6.76507188e-26)
(-0.676548872 0.46975703 6.83974024e-26)
(-0.71773524 0.488682883 0)
(-0.758202515 0.505989387 -2.88641874e-27)
(-0.797878435 0.521671944 0)
(-0.836682586 0.535730482 0)
(-0.87452685 0.548170987 0)
(-0.911315649 0.559006906 -1.07059763e-25)
(-0.946945865 0.56826031 -2.36618591e-25)
(-0.981306377 0.575962758 -1.30972592e-25)
(-1.01427715 0.582155833 0)
(-1.04572786 0.586891354 9.23576476e-27)
(-1.07551608 0.590231268 4.85572052e-27)
(-1.1034849 0.592247298 -1.03225117e-26)
(-1.1294606 0.593020674 -2.04864281e-25)
(-1.1532518 0.59264228 -2.24627544e-25)
(-1.17465091 0.591211413 1.27255792e-26)
(-1.19341499 0.588830641 1.35802063e-26)
(-1.20927893 0.585639498 -3.25088021e-25)
(-1.22203078 0.581813432 -3.29020046e-25)
(-1.23152942 0.577482466 3.51881481e-25)
(-1.23670607 0.573226449 3.27567092e-25)
(-1.23741086 0.567891633 0)
(-1.23272742 0.562541717 -1.99552493e-26)
(-1.22322346 0.5560488 0)
(-1.2062261 0.551242758 -4.44966461e-26)
(-1.18141307 0.546262255 -7.44617164e-25)
(-1.14576036 0.541696869 -6.54908073e-25)
(-1.09963063 0.535939006 -5.43310445e-26)
(-1.04088421 0.530458858 5.98502585e-26)
(-0.968183624 0.525514258 -1.31556159e-25)
(-0.879693947 0.521070925 6.96430658e-26)
(-0.773045613 0.516918368 -7.58806578e-26)
(-0.646292144 0.512981484 -8.34045468e-25)
(-0.498227322 0.508954115 -1.00484494e-24)
(-0.324915004 0.505588601 0)
(-0.127801688 0.503640079 1.05126509e-25)
(0.102664971 0.505911602 -2.18810023e-25)
(0.356285765 0.511157192 -8.60694806e-25)
(0.663887673 0.514960464 -1.43059668e-24)
(1.01942835 0.517590094 -2.96771037e-25)
(1.42516844 0.521779555 -1.91878655e-24)
(1.88898451 0.52887397 -1.88230766e-24)
(2.41733077 0.5386114 3.84145596e-25)
(3.01371331 0.550843401 4.25147535e-25)
(3.68226581 0.565712308 -1.03627885e-24)
(4.4262536 0.583728014 -5.41627457e-25)
(5.24784371 0.605296761 -5.69045963e-25)
(6.1480616 0.630329156 6.23204384e-25)
(7.12894963 0.659854276 0)
(8.18085268 0.698709211 -1.42964986e-24)
(9.30958201 0.741688741 -7.19746984e-24)
(10.5127471 0.793540625 -2.69309118e-24)
(11.7271232 0.89062924 0)
(13.1102517 0.891623572 3.48367583e-26)
(14.6330478 0.775179639 1.52114556e-24)
(15.5556325 1.36687825 -5.74966192e-25)
(16.5073316 2.02390807 7.04587658e-24)
(18.8013001 0.905602964 -1.14755814e-23)
(20.5228187 -0.133098117 -6.53972015e-24)
(21.0633952 1.23258939 7.54467114e-26)
(21.6325208 2.12110681 2.86416047e-23)
(22.6531021 1.48523658 2.80487148e-23)
(23.1096709 0.508551204 -3.90135496e-24)
(23.1486358 0.66853961 -2.36009968e-23)
(23.1109844 1.01977347 -1.42962441e-23)
(-0.0229090037 0.0187638547 3.28652851e-27)
(-0.070504344 0.0571522763 -3.37398541e-28)
(-0.120200174 0.0964959955 3.5447199e-28)
(-0.171304098 0.13616836 -3.80475913e-28)
(-0.223145377 0.175615245 0)
(-0.275196057 0.214389759 -3.13116936e-26)
(-0.32706071 0.252162666 -8.43021513e-34)
(-0.378470751 0.288712108 3.60071259e-26)
(-0.429250103 0.323896752 3.84358473e-26)
(-0.479283561 0.357629604 8.1901762e-26)
(-0.528492192 0.389857796 4.242338e-26)
(-0.576815314 0.420548246 -1.21377925e-27)
(-0.624197825 0.449677984 -1.2890693e-27)
(-0.670581714 0.477228062 5.24725086e-26)
(-0.715900773 0.503180194 5.59037635e-26)
(-0.760077665 0.527515422 -4.65633959e-27)
(-0.803022599 0.550214167 -6.04352261e-26)
(-0.84463305 0.571257194 -1.36571348e-25)
(-0.884794008 0.590627073 -7.33535265e-26)
(-0.923378424 0.608309853 -4.00438397e-27)
(-0.9602476 0.624296754 4.26356864e-27)
(-0.995251368 0.638585726 4.54173089e-27)
(-1.02822795 0.651182814 0)
(-1.05900343 0.662103312 -1.0256945e-26)
(-1.08739065 0.671372777 1.18780065e-25)
(-1.113188 0.679027774 -7.96033254e-29)
(-1.13617726 0.685115611 -1.41925795e-25)
(-1.15611962 0.689694438 -1.55216135e-25)
(-1.17275095 0.692840764 -1.69952758e-25)
(-1.18578392 0.694656263 1.7269612e-25)
(-1.19503619 0.695203637 1.61930529e-26)
(-1.19982827 0.694850017 -3.72291751e-25)
(-1.20006118 0.692995543 -2.40836062e-25)
(-1.19513893 0.69029138 0)
(-1.18454751 0.686954887 0)
(-1.16841403 0.682723704 2.2317697e-26)
(-1.14487187 0.678685051 0)
(-1.1125809 0.673880881 -5.08307726e-26)
(-1.0692161 0.668530709 -4.22626691e-25)
(-1.01502469 0.661908875 -1.21080615e-25)
(-0.948177496 0.655006086 3.87867026e-25)
(-0.867421111 0.648032784 0)
(-0.771089703 0.64107094 0)
(-0.657120195 0.634042819 -5.81258426e-25)
(-0.523748846 0.626747133 -7.13090091e-25)
(-0.36737664 0.619307382 -9.87377183e-26)
(-0.191109908 0.612161161 0)
(0.0131395143 0.608662417 0)
(0.236561246 0.608789608 -7.68190475e-25)
(0.505275578 0.6082396 -8.71332485e-25)
(0.815817815 0.606698872 1.40394504e-25)
(1.17249037 0.606295729 0)
(1.57991208 0.608613362 2.47959586e-25)
(2.04471116 0.614040684 6.04362753e-25)
(2.57065164 0.622530979 7.76654903e-25)
(3.16217099 0.634390807 1.57137516e-25)
(3.82378834 0.650147496 2.8412359e-25)
(4.55884318 0.670198862 6.0370558e-32)
(5.37007186 0.695023649 -8.11726912e-32)
(6.25922836 0.725821729 -2.02025776e-24)
(7.22645842 0.763808868 -1.75154637e-24)
(8.26655915 0.811271165 2.44980149e-24)
(9.37114915 0.868167971 3.85224503e-24)
(10.5423297 0.930086979 0)
(11.765882 0.996897216 6.42787249e-24)
(13.0440992 1.07120365 1.2379252e-23)
(14.378031 1.12415627 7.00899736e-24)
(15.6851786 1.22648593 0)
(16.9598267 1.38977907 -4.31317358e-26)
(18.4429051 1.25428253 1.06815514e-23)
(19.7481598 1.21977169 7.30163463e-24)
(20.4287261 1.97893526 0)
(21.4906673 2.25071496 0)
(22.7726831 1.42469178 1.81916849e-24)
(23.1895371 1.12121484 -1.92580015e-24)
(23.2809615 1.41461065 -3.58108845e-24)
(23.251025 1.72292939 8.40653583e-24)
(23.1308266 1.83466682 0)
(23.1152469 1.53776129 -2.38137637e-24)
(23.1072625 1.35526847 2.43145899e-23)
(-0.0258856723 0.0195669457 -2.57798156e-28)
(-0.0796233939 0.0597226494 -4.04016207e-28)
(-0.135581164 0.100958936 1.02922417e-26)
(-0.192893754 0.14257966 -1.19594716e-26)
(-0.250788361 0.183997229 -1.19702454e-26)
(-0.308631467 0.224737582 0)
(-0.365983181 0.264469889 -2.72677473e-26)
(-0.42254703 0.302980106 -2.77716319e-26)
(-0.478116637 0.340131265 -3.06647972e-26)
(-0.532553257 0.375838905 -3.24124799e-26)
(-0.585755065 0.410051862 -3.69066461e-26)
(-0.637636812 0.44273744 -3.51702136e-34)
(-0.688115882 0.473871471 -1.54778564e-27)
(-0.737103027 0.503432209 -2.10101962e-33)
(-0.784496647 0.531397071 1.74781914e-27)
(-0.830179629 0.557741413 -4.7716852e-26)
(-0.874017948 0.582438715 5.03363784e-26)
(-0.91586036 0.605461658 4.18098555e-27)
(-0.955538686 0.626783713 -5.19665136e-26)
(-0.99286824 0.646380985 -4.74786688e-27)
(-1.02764802 0.664234277 1.01648079e-26)
(-1.05966077 0.680331442 6.29008559e-26)
(-1.08867291 0.694669607 6.75374654e-26)
(-1.11443368 0.707256642 -6.16430527e-27)
(-1.13666707 0.71810894 0)
(-1.15507542 0.72724866 -7.04186589e-27)
(-1.16934764 0.73470175 0)
(-1.17913654 0.740522321 -1.06724808e-25)
(-1.18402045 0.744658334 -2.04777167e-25)
(-1.18359951 0.747202061 -1.22085564e-25)
(-1.17744296 0.748466326 1.10188782e-25)
(-1.16546194 0.748516584 1.59440616e-25)
(-1.14691775 0.747952183 -4.53594304e-26)
(-1.12021676 0.746313999 -2.43889392e-26)
(-1.08424204 0.743362861 2.43145777e-25)
(-1.0371883 0.73909132 2.65233054e-25)
(-0.978264872 0.733544052 0)
(-0.906686694 0.727158525 -2.76874472e-25)
(-0.821086217 0.720315926 -2.69004623e-25)
(-0.719924606 0.713127339 -7.61948109e-26)
(-0.601238004 0.705561842 -8.31103961e-26)
(-0.462721318 0.697508558 0)
(-0.302455968 0.689026818 0)
(-0.121110464 0.681001271 0)
(0.0879575585 0.6764757 -1.07529958e-25)
(0.313402556 0.674916537 -6.46940786e-25)
(0.5903217 0.672175205 -5.59664764e-25)
(0.90521363 0.668659684 0)
(1.26524365 0.667558997 0)
(1.67584604 0.669581113 -3.94233771e-25)
(2.14112849 0.674808779 -2.35459391e-25)
(2.6655695 0.683631006 -3.85552392e-25)
(3.25379178 0.69655507 -3.2432364e-25)
(3.91020815 0.71390132 4.36726816e-25)
(4.63818661 0.736652369 4.847144e-25)
(5.44088344 0.766133849 -6.88668544e-25)
(6.32027088 0.803412903 -7.81023788e-25)
(7.27557222 0.849064332 -1.88214646e-24)
(8.30431104 0.903163987 0)
(9.39788467 0.967228647 -6.30860492e-25)
(10.5503941 1.04137304 -3.54364181e-24)
(11.752846 1.12661893 -7.85750895e-24)
(12.9909692 1.22243973 6.06712546e-25)
(14.2628978 1.32288386 6.07000293e-25)
(15.5477824 1.40949429 -7.77205694e-24)
(16.8380172 1.51571121 7.31207191e-24)
(18.0939214 1.59429326 8.28861548e-24)
(19.3578953 1.65029597 -1.18589867e-24)
(20.4296758 1.78298661 -4.77857333e-24)
(21.483556 1.88392841 -1.31408689e-23)
(22.4404386 1.75948465 1.01562832e-25)
(23.0736771 1.7358337 -2.01297703e-23)
(23.1759224 2.0728349 -7.07869173e-24)
(23.2183115 2.13187275 0)
(23.2100935 2.02734149 -6.53115529e-24)
(23.2066595 1.88479839 -3.13997157e-23)
(23.2145188 1.80640276 2.65644136e-24)
(23.1984409 1.78251393 1.08451167e-23)
(23.1559028 1.82919411 1.33235871e-23)
(23.133054 1.76674552 1.93946226e-23)
(-0.0286473607 0.0199397776 2.13492584e-27)
(-0.0880857121 0.0608927743 0)
(-0.149850499 0.102937337 0)
(-0.212903773 0.145324323 2.91974277e-30)
(-0.276351702 0.187445501 0)
(-0.3394963 0.228826359 0)
(-0.401820981 0.26912844 0)
(-0.462966699 0.308136994 2.58953882e-27)
(-0.52273133 0.345732258 0)
(-0.58094274 0.381842035 -1.45792221e-27)
(-0.637470532 0.416420537 -2.70027983e-26)
(-0.692198574 0.449439277 -2.04835608e-33)
(-0.745009443 0.480877397 2.25546214e-26)
(-0.795774522 0.51071546 0)
(-0.844347868 0.538932268 1.96043292e-27)
(-0.890562785 0.565503811 -4.17943373e-27)
(-0.934230217 0.590403666 0)
(-0.975138216 0.613604468 -2.38752125e-26)
(-1.01305224 0.635080058 -5.0613508e-27)
(-1.04771528 0.654807134 4.18851201e-26)
(-1.07883978 0.672763873 2.9335408e-26)
(-1.10610651 0.688930034 -6.11836707e-27)
(-1.12917328 0.70328646 0)
(-1.14770666 0.715771924 3.79138077e-26)
(-1.16125198 0.726458327 3.9195491e-26)
(-1.16950386 0.735400247 2.90851653e-26)
(-1.17210254 0.742766023 3.64977868e-26)
(-1.16871406 0.748702133 -4.18738247e-26)
(-1.15851717 0.753251094 -4.28099086e-26)
(-1.14048525 0.756256664 0)
(-1.11367793 0.757653501 6.63635776e-26)
(-1.07693272 0.757347397 6.83621902e-26)
(-1.02862391 0.755448298 -2.61994085e-26)
(-0.9687494 0.752350689 3.36407824e-26)
(-0.89585083 0.748334355 7.53712556e-26)
(-0.808566653 0.743489658 6.58817365e-26)
(-0.705350479 0.737897925 -3.53582251e-26)
(-0.584298819 0.731682732 1.19391268e-25)
(-0.44347146 0.724922563 1.45306857e-25)
(-0.280072409 0.717485409 -1.64033763e-25)
(-0.0948966749 0.710111287 -1.46324108e-25)
(0.118547434 0.705821443 -1.81153267e-25)
(0.34911919 0.704388685 0)
(0.630184422 0.701536622 1.16852582e-25)
(0.949926033 0.698323842 1.37681028e-25)
(1.3130081 0.698130289 1.33380763e-25)
(1.72561859 0.701386299 -2.81571742e-32)
(2.19119437 0.708018503 3.13341312e-26)
(2.71424993 0.718613794 0)
(3.29950747 0.733753807 1.81043275e-25)
(3.95132175 0.754384891 3.88155527e-25)
(4.67309476 0.781814381 -1.09379178e-25)
(5.46764046 0.817043758 9.02266291e-25)
(6.33638473 0.860811181 5.82981138e-25)
(7.27894102 0.913658795 -5.96350027e-25)
(8.29227997 0.975997955 -8.99314565e-25)
(9.37177155 1.04805255 -4.45309272e-24)
(10.5062374 1.13148175 -3.82729135e-24)
(11.6886144 1.22563583 -3.86186064e-24)
(12.9081404 1.32797005 -5.1625448e-24)
(14.1577574 1.43675168 0)
(15.4160705 1.55237892 6.00253813e-25)
(16.6607174 1.67789742 -5.02248864e-24)
(17.8668824 1.81841995 -6.49777802e-24)
(19.0311167 1.91993524 -3.4607795e-26)
(20.1664527 2.01591938 0)
(21.146465 2.08573273 1.06819607e-23)
(22.129281 2.12471152 1.32672467e-23)
(22.8429968 2.1185483 1.40923843e-24)
(23.1713172 2.19256236 -1.28871231e-24)
(23.2152472 2.22678688 -3.09668926e-26)
(23.2025673 2.24736678 -2.34777992e-24)
(23.1897212 2.21119839 -9.68645145e-24)
(23.1710025 2.18444098 -1.82183283e-23)
(23.1668548 2.22274112 -9.70065862e-25)
(23.1844432 2.08127787 0)
(23.1814677 2.06524972 -7.70955542e-24)
(23.1703281 1.99675916 -1.3331675e-23)
(23.1771821 1.941299 0)
(23.1693251 1.89288397 -1.42732323e-23)
(-0.0315281216 0.0201514296 -4.98602953e-27)
(-0.0968010906 0.0614395839 -8.74868792e-27)
(-0.164410553 0.103695251 -8.35543327e-27)
(-0.233147653 0.146134632 5.45123373e-28)
(-0.301998344 0.188142087 8.81444859e-27)
(-0.370179489 0.229250664 1.22405332e-27)
(-0.437128172 0.269137106 -1.00939104e-26)
(-0.502447181 0.307595264 -7.12972805e-27)
(-0.565860363 0.344510307 -1.45370791e-27)
(-0.627190842 0.379823408 -3.07695116e-27)
(-0.686268903 0.413503868 4.92502137e-27)
(-0.742939002 0.445532805 1.71494209e-26)
(-0.79703949 0.475898265 9.4572481e-27)
(-0.848391462 0.504589503 5.23503637e-27)
(-0.896792061 0.531593943 -2.08142899e-27)
(-0.942010816 0.556896398 -6.22629472e-27)
(-0.983787246 0.580479874 0)
(-1.02182242 0.602325827 0)
(-1.05577895 0.622412159 6.01203908e-27)
(-1.08532553 0.640666215 5.02453865e-27)
(-1.11000132 0.657156486 7.31721903e-27)
(-1.12948871 0.671877574 1.32250429e-26)
(-1.14341347 0.684933813 -2.13281083e-33)
(-1.15128344 0.696426914 -2.50161723e-26)
(-1.15230127 0.706114525 4.50933047e-26)
(-1.14570608 0.71406556 7.61151639e-26)
(-1.13065783 0.720231596 4.84904412e-26)
(-1.10609467 0.724568562 9.86359595e-27)
(-1.07118315 0.727266398 -1.06118e-26)
(-1.02526781 0.728618237 2.27902794e-26)
(-0.96717701 0.728736142 0)
(-0.895622617 0.727707921 1.89653398e-26)
(-0.809215451 0.725628419 2.82544256e-26)
(-0.706337817 0.722608576 -4.45707146e-26)
(-0.584984095 0.718868205 0)
(-0.443299157 0.714545477 2.62466297e-26)
(-0.279735824 0.709515959 -6.71419031e-26)
(-0.0912518054 0.704246147 0)
(0.125355187 0.701544793 0)
(0.359935585 0.701530341 1.43209994e-26)
(0.644114784 0.700615958 6.10107954e-26)
(0.965834511 0.699738806 -2.124355e-25)
(1.33078726 0.701940119 0)
(1.74407817 0.707717915 1.45241608e-25)
(2.20898344 0.717095703 1.96769555e-25)
(2.73000955 0.730907778 2.08823061e-25)
(3.3117858 0.750006308 -1.5452375e-25)
(3.95825697 0.775342498 -3.95229518e-28)
(4.67247019 0.808025392 0)
(5.45691912 0.848920383 -1.33197974e-25)
(6.312909 0.898746625 4.13924655e-25)
(7.24022456 0.958184484 6.50452029e-25)
(8.23686222 1.02786965 4.79445017e-25)
(9.29821078 1.10823411 -6.45713487e-25)
(10.4174607 1.19929424 -3.58956065e-24)
(11.5814379 1.30255402 6.88729271e-32)
(12.7797535 1.41732493 2.05944923e-24)
(13.9987594 1.54015188 0)
(15.229068 1.66999801 0)
(16.4475127 1.80098278 5.33710538e-25)
(17.649623 1.93164142 5.36650998e-25)
(18.797333 2.05417499 0)
(19.8868189 2.17541636 8.05792857e-24)
(20.8558803 2.31033741 6.55858303e-24)
(21.7298732 2.41166439 -7.47608861e-24)
(22.4899095 2.4593126 -3.05699052e-23)
(23.0610915 2.46949341 -1.40977976e-23)
(23.1952529 2.51071655 -8.76601193e-24)
(23.2267435 2.52955352 -4.82716024e-24)
(23.237144 2.47577689 -1.42892059e-24)
(23.1939091 2.49735547 1.06669827e-23)
(23.1815151 2.43133382 1.08556127e-23)
(23.173202 2.40194624 -1.07681683e-23)
(23.1691367 2.36043301 -8.43074645e-24)
(23.1696905 2.32616333 -1.22920184e-23)
(23.1663976 2.31358899 -8.10787624e-24)
(23.1817023 2.24739685 -1.56188699e-23)
(23.1850113 2.23315392 1.41175489e-31)
(23.2008844 2.20982299 2.24317268e-23)
(23.179183 2.15799066 2.34969232e-23)
(-0.0347694214 0.0203410684 2.67737427e-27)
(-0.106403275 0.0617806866 -4.77444676e-28)
(-0.180201691 0.103937132 9.44677613e-27)
(-0.254788409 0.14601156 8.37502282e-34)
(-0.329030732 0.187396598 -7.74194829e-27)
(-0.402062739 0.227642071 -5.89192484e-27)
(-0.473260071 0.266445382 -1.26584484e-26)
(-0.542186143 0.30361754 -3.99945767e-27)
(-0.60850121 0.339058658 -3.92260611e-27)
(-0.671997709 0.372723945 -2.29003517e-27)
(-0.73245898 0.404600642 -5.6783721e-28)
(-0.789677943 0.434685318 3.07056687e-27)
(-0.84343456 0.462981023 3.55896798e-27)
(-0.893483188 0.489492753 4.12313536e-27)
(-0.939540459 0.514225123 -2.05249267e-27)
(-0.981283966 0.537181721 -2.18810184e-27)
(-1.0183797 0.558321908 2.41568234e-26)
(-1.05039344 0.577710916 3.09192813e-26)
(-1.07694493 0.595389129 5.34186242e-27)
(-1.09749855 0.611331569 5.66229099e-27)
(-1.11146227 0.625467913 7.3103724e-26)
(-1.11812801 0.63783338 8.04909206e-26)
(-1.11670763 0.648377045 0)
(-1.10642209 0.657174428 -7.47769374e-27)
(-1.08663925 0.66443886 0)
(-1.05640882 0.670210438 0)
(-1.0146583 0.674556478 -9.19526357e-27)
(-0.960208334 0.677550667 -9.72941823e-26)
(-0.891769659 0.679290616 -1.35280443e-25)
(-0.807905396 0.679914424 1.55822384e-25)
(-0.706931478 0.679589994 1.40647098e-25)
(-0.586894116 0.678582867 -2.64611591e-26)
(-0.446121383 0.676998231 2.86547256e-26)
(-0.282901453 0.674577539 0)
(-0.0914169385 0.672335142 -3.16827288e-26)
(0.120340121 0.672600842 0)
(0.361665367 0.674673308 0)
(0.645395029 0.676509937 -4.04792707e-26)
(0.967574407 0.678960522 0)
(1.33229878 0.684541552 0)
(1.7442384 0.693933822 2.03013143e-25)
(2.20672768 0.707320899 1.06029433e-25)
(2.7239204 0.725543741 0)
(3.30003945 0.749406259 0)
(3.93868798 0.779815392 0)
(4.64270167 0.817805087 -1.46001532e-25)
(5.41444214 0.864251332 -1.57903748e-25)
(6.25527584 0.919994902 7.45550915e-25)
(7.16518869 0.985844262 7.23415772e-25)
(8.14244241 1.06249316 9.03853559e-25)
(9.18320645 1.15042571 1.12138213e-24)
(10.2810001 1.24981738 1.60740533e-24)
(11.4268275 1.36026987 1.95099127e-24)
(12.6066188 1.48231151 0)
(13.8077977 1.6143643 0)
(15.0160004 1.75367879 -1.97729251e-24)
(16.215998 1.9003136 -4.86637259e-24)
(17.3854249 2.04736956 -2.93045616e-24)
(18.5164551 2.19586168 -3.09823096e-24)
(19.5688168 2.33212283 -2.29774623e-24)
(20.5586496 2.46199098 7.17391171e-24)
(21.4317879 2.55904802 1.43659406e-23)
(22.2455812 2.63457079 6.307601e-25)
(22.8266797 2.69586447 -1.47320993e-23)
(23.1515219 2.7599581 5.28872755e-25)
(23.2010199 2.82421764 -1.10388512e-24)
(23.2107418 2.81378839 5.82551596e-24)
(23.2037031 2.78991142 -1.08879238e-31)
(23.1915026 2.73331719 -1.24669249e-23)
(23.1717011 2.75419036 -8.01798448e-25)
(23.1842496 2.66608155 7.0221773e-24)
(23.1723539 2.63817117 8.45795727e-24)
(23.1686425 2.60529052 0)
(23.1664352 2.58225669 9.55739004e-25)
(23.1670059 2.54818215 0)
(23.1724184 2.50550648 9.82933647e-24)
(23.2467394 2.43443989 2.62259519e-23)
(23.314514 2.40454624 1.29332243e-23)
(23.3653481 2.43937119 1.25450624e-23)
(23.3359733 2.43992371 2.83122126e-23)
(-0.0384161789 0.0204899128 2.75898429e-27)
(-0.116955309 0.0618915936 8.79214229e-27)
(-0.197228973 0.103668237 4.4660257e-28)
(-0.277694527 0.145025472 -7.31620859e-27)
(-0.357100907 0.185378272 -6.04425872e-27)
(-0.434497796 0.224303569 -4.10421931e-27)
(-0.509196159 0.261525832 1.11944462e-27)
(-0.580702689 0.296883974 2.37457635e-27)
(-0.648644282 0.330296316 2.32797893e-28)
(-0.712718071 0.361738652 -2.37092277e-27)
(-0.772666187 0.391212334 0)
(-0.82820525 0.418739302 3.04920997e-27)
(-0.879032977 0.444344104 -1.62175895e-27)
(-0.924825636 0.468024181 0)
(-0.965166371 0.489877635 0)
(-0.999655222 0.509857597 0)
(-1.02775712 0.528062501 0)
(-1.04888598 0.544425659 2.25665894e-27)
(-1.06235382 0.558953889 0)
(-1.06755509 0.5718278 -4.15239264e-26)
(-1.06371571 0.58305498 -4.71031173e-26)
(-1.04995207 0.59268037 1.23411636e-25)
(-1.02526728 0.600776678 1.29748324e-25)
(-0.98861097 0.607413433 -1.49885314e-25)
(-0.938799945 0.612703015 -1.49335398e-25)
(-0.874523047 0.616785909 -1.70615459e-25)
(-0.794309365 0.619824005 -1.93620272e-25)
(-0.696472001 0.622016939 -1.79256979e-25)
(-0.579215028 0.623610296 -4.00639711e-25)
(-0.440928679 0.624608134 -2.11167614e-25)
(-0.278889862 0.624932346 0)
(-0.0901783664 0.625864028 2.40114129e-26)
(0.120745937 0.629118342 2.55912255e-26)
(0.362378159 0.633813585 0)
(0.644658565 0.638620728 -3.09334432e-26)
(0.964821666 0.644746643 0)
(1.32689374 0.654205399 0)
(1.73494064 0.66756813 2.94137037e-25)
(2.1922838 0.685183711 4.13316074e-26)
(2.70274154 0.7078648 -3.75026446e-25)
(3.27019221 0.736423151 3.59293479e-25)
(3.89801005 0.771764589 4.5191779e-25)
(4.5889431 0.814923263 -5.62768607e-26)
(5.34525731 0.866824846 0)
(6.16829756 0.92832915 8.07004063e-25)
(7.05815021 1.00022957 6.51936815e-25)
(8.01334576 1.08319292 0)
(9.0305525 1.17768088 0)
(10.1042549 1.28387679 -1.1554582e-24)
(11.2264552 1.40157562 -1.39205529e-24)
(12.3864757 1.53005441 1.88851761e-24)
(13.5693499 1.66907406 2.36043812e-24)
(14.7594253 1.81703667 -2.1269821e-24)
(15.94145 1.97068524 6.01923069e-32)
(17.0997822 2.12650209 2.822009e-24)
(18.2168212 2.27986495 1.5001899e-26)
(19.2723477 2.43239417 0)
(20.2412401 2.5755599 4.60608062e-25)
(21.1227068 2.71304095 -2.88739973e-24)
(21.8682184 2.81826584 6.0209827e-25)
(22.5371009 2.90296192 5.94243106e-24)
(23.0094197 2.95968341 0)
(23.1828607 2.9915728 5.22499803e-25)
(23.2206186 2.99692169 0)
(23.2186137 3.02978042 3.234871e-25)
(23.1965163 2.99229508 -4.22560025e-25)
(23.1533574 3.02655751 -8.9673287e-25)
(23.1536866 2.979883 -1.0673816e-23)
(23.1687679 2.93125619 -8.03201834e-24)
(23.1674579 2.88193471 -1.42574082e-24)
(23.144652 2.89795318 -8.53228431e-24)
(23.162014 2.83862284 -1.15100214e-23)
(23.202342 2.78049494 -1.13453622e-23)
(23.2269707 2.74995505 -1.35579811e-23)
(23.2208447 2.74998758 -1.11755765e-23)
(23.2449279 2.7311957 -9.52877235e-24)
(23.3915455 2.6209517 1.16922833e-23)
(23.5719602 2.5710549 1.63103373e-23)
(23.595066 2.60297686 -1.68393726e-24)
(23.5359243 2.71976354 2.94660142e-24)
(-0.0422688529 0.020456012 2.51904032e-27)
(-0.127800859 0.0613924863 -7.49445886e-27)
(-0.21431459 0.102319162 3.30010277e-28)
(-0.300104589 0.142467226 3.42997724e-34)
(-0.383803207 0.181287123 -3.08903043e-27)
(-0.464373305 0.218393118 3.97068608e-28)
(-0.541054853 0.253545297 1.72218907e-27)
(-0.613289367 0.286617728 -6.83636751e-34)
(-0.680649954 0.317551476 -1.52737946e-26)
(-0.742738914 0.346343533 -1.06528922e-26)
(-0.799191595 0.373036282 -1.1034172e-27)
(-0.849657731 0.397647147 -1.87330188e-26)
(-0.893711645 0.42024065 -2.65757345e-26)
(-0.930868796 0.440897877 -3.09691385e-26)
(-0.960582281 0.459580713 -3.61501252e-26)
(-0.982260386 0.476446101 4.16159482e-26)
(-0.995231591 0.491530163 4.81248451e-26)
(-0.998719326 0.504906628 1.84579727e-27)
(-0.99185169 0.516639634 0)
(-0.973666366 0.526818972 -7.15506474e-26)
(-0.943075158 0.535558545 -7.75239686e-26)
(-0.898921166 0.542983456 4.89818434e-27)
(-0.839894301 0.54925055 9.44798417e-26)
(-0.764547621 0.554537537 9.7710593e-26)
(-0.67126593 0.559050984 1.24582771e-26)
(-0.558275333 0.56298454 0)
(-0.423699073 0.566315649 -7.25439699e-27)
(-0.265165996 0.56929657 1.94204811e-28)
(-0.0809245367 0.573449686 -3.33223109e-25)
(0.125757311 0.579383372 -2.99966757e-25)
(0.367824343 0.586366974 2.94647033e-25)
(0.645009059 0.594074865 3.8621123e-25)
(0.960330961 0.603825185 4.57803807e-26)
(1.31705252 0.616929009 -4.37787636e-25)
(1.7184581 0.633969399 1.93892428e-32)
(2.16780246 0.65544657 4.42236351e-25)
(2.66868708 0.682180892 -4.41819849e-25)
(3.2246783 0.715021689 -5.08993605e-25)
(3.83894665 0.754879153 7.53658379e-26)
(4.51412588 0.80275274 -4.05333392e-26)
(5.25237251 0.85956164 -4.47986287e-26)
(6.05502034 0.926156987 -7.51293318e-25)
(6.92227092 1.00331853 -1.75798546e-24)
(7.85292581 1.09169913 -9.76521376e-25)
(8.84410437 1.19174803 -1.00032995e-24)
(9.89098016 1.30363708 -1.30670082e-24)
(10.9865512 1.4271816 0)
(12.1214675 1.56176599 1.92504465e-24)
(13.2836361 1.70629635 2.23289485e-24)
(14.4578824 1.85937693 2.51677855e-24)
(15.6267556 2.0194481 5.21333316e-24)
(16.7736336 2.18320255 5.43154651e-24)
(17.8803711 2.34761564 5.82509158e-24)
(18.9278627 2.50908164 6.19256906e-24)
(19.8997349 2.66221599 3.2656841e-24)
(20.7844408 2.79938632 -6.26409641e-25)
(21.5669019 2.92112978 0)
(22.2317778 3.02099798 -3.78233242e-24)
(22.756299 3.10204916 -5.51510042e-24)
(23.1105877 3.16573998 0)
(23.1814652 3.2120397 -4.27973069e-24)
(23.1910121 3.22740074 -2.5816504e-24)
(23.1929883 3.20985777 0)
(23.1927391 3.19739786 -3.52929684e-25)
(23.1831704 3.16119702 0)
(23.1360398 3.15307132 -1.15283298e-23)
(23.11554 3.13579722 -1.60803553e-24)
(23.1148947 3.13986881 6.63259048e-24)
(23.1516774 3.07053424 -1.12678487e-24)
(23.1614074 3.04055109 -8.18033718e-25)
(23.1559565 3.03139868 -1.17655911e-23)
(23.148236 3.02654252 -7.69067699e-24)
(23.2248779 2.959908 -1.05422483e-24)
(23.3136606 2.9136571 -1.061188e-24)
(23.3359509 2.92874116 -5.77183204e-26)
(23.3607236 2.97084639 -1.1320677e-24)
(23.4995578 2.88411705 1.2019803e-23)
(23.7138819 2.75746059 2.60972653e-23)
(23.850293 2.70765761 1.45425825e-23)
(23.8369611 2.72947705 -1.63014123e-24)
(-0.0459040795 0.0200365175 0)
(-0.137660759 0.0597321247 1.53616577e-28)
(-0.229297283 0.0990442366 -1.66224086e-28)
(-0.318945235 0.137249789 1.40437701e-27)
(-0.405117771 0.173846099 -1.91524954e-28)
(-0.486682936 0.208493392 -2.06327142e-28)
(-0.562793092 0.241000786 -8.75397588e-27)
(-0.632812525 0.271269027 0)
(-0.69620217 0.299285713 -5.3327716e-28)
(-0.752472222 0.325077093 -2.22524473e-26)
(-0.801136923 0.348677201 -2.76520017e-26)
(-0.841686404 0.370193094 3.24684684e-26)
(-0.873558657 0.389693864 -7.36504442e-28)
(-0.896111739 0.407273313 -9.17705406e-26)
(-0.908617945 0.423028991 -1.05605274e-25)
(-0.91025213 0.437073148 -6.14094222e-26)
(-0.900097627 0.449498337 1.05118498e-27)
(-0.87709602 0.460462571 -7.70297967e-26)
(-0.840126828 0.470095861 -8.74751543e-26)
(-0.787910445 0.478569543 -1.44306702e-27)
(-0.719029212 0.486067061 1.51318179e-27)
(-0.63189205 0.492792272 6.78673254e-27)
(-0.524777668 0.498965078 -1.22813242e-25)
(-0.395967654 0.504710871 -2.71676905e-25)
(-0.243422705 0.510413315 -1.61608086e-25)
(-0.0652059212 0.517329033 4.71988508e-27)
(0.136417911 0.525623461 -1.68645434e-25)
(0.373680488 0.534876993 -5.98066624e-27)
(0.645013701 0.545269119 6.46442163e-27)
(0.953180458 0.558303232 -2.2447739e-25)
(1.30169843 0.574747377 0)
(1.69375298 0.595071238 -4.63729128e-25)
(2.13246822 0.619982768 1.85475877e-26)
(2.62115001 0.65030225 5.15462772e-25)
(3.16307774 0.686882786 5.51511636e-25)
(3.7612281 0.730627401 5.93776195e-25)
(4.41813162 0.782500926 2.68264101e-26)
(5.13586018 0.843415432 0)
(5.91576395 0.91421758 6.38033621e-26)