/*--------------------------------*- C++ -*----------------------------------*\
  =========                 |
  \\      /  F ield         | OpenFOAM: The Open Source CFD Toolbox
   \\    /   O peration     | Website:  https://openfoam.org
    \\  /    A nd           | Version:  8
     \\/     M anipulation  |
\*---------------------------------------------------------------------------*/
FoamFile
{
    version     2.0;
    format      ascii;
    class       volScalarField;
    location    "0.012";
    object      p;
}
// * * * * * * * * * * * * * * * * * * * * * * * * * * * * * * * * * * * * * //

dimensions      [1 -1 -2 0 0 0 0];

internalField   nonuniform List<scalar> 
42400
(
101249.737
101249.728
101249.717
101249.705
101249.693
101249.679
101249.665
101249.65
101249.633
101249.616
101249.598
101249.578
101249.558
101249.536
101249.514
101249.49
101249.465
101249.439
101249.412
101249.383
101249.353
101249.321
101249.288
101249.253
101249.216
101249.177
101249.137
101249.095
101249.051
101249.004
101248.956
101248.906
101248.854
101248.799
101248.741
101248.687
101248.64
101248.592
101248.531
101248.454
101248.375
101248.303
101248.24
101248.177
101248.113
101248.05
101247.988
101247.925
101247.86
101247.805
101247.761
101247.727
101247.674
101247.603
101247.553
101247.516
101247.476
101247.433
101247.391
101247.346
101247.292
101247.235
101247.178
101247.126
101247.067
101246.986
101246.886
101246.731
101246.537
101246.589
101246.384
101245.712
101246.212
101246.523
101245.597
101246.324
101247.121
101246.741
101252.683
101256.799
101249.464
101249.457
101249.449
101249.441
101249.431
101249.421
101249.41
101249.398
101249.385
101249.371
101249.356
101249.341
101249.325
101249.308
101249.289
101249.27
101249.25
101249.229
101249.207
101249.184
101249.16
101249.134
101249.107
101249.079
101249.049
101249.018
101248.985
101248.951
101248.915
101248.877
101248.837
101248.795
101248.755
101248.719
101248.683
101248.636
101248.575
101248.511
101248.453
101248.403
101248.351
101248.299
101248.246
101248.193
101248.139
101248.081
101248.035
101248.004
101247.958
101247.893
101247.842
101247.806
101247.778
101247.749
101247.724
101247.703
101247.686
101247.674
101247.671
101247.687
101247.725
101247.78
101247.848
101247.93
101248.033
101248.16
101248.336
101248.551
101248.674
101249.156
101249.744
101250.007
101250.514
101251.34
101252.067
101254.434
101258.503
101261.118
101262.714
101265.414
101249.294
101249.29
101249.284
101249.278
101249.271
101249.263
101249.255
101249.246
101249.236
101249.226
101249.214
101249.203
101249.19
101249.177
101249.163
101249.149
101249.133
101249.117
101249.101
101249.083
101249.065
101249.045
101249.025
101249.004
101248.981
101248.957
101248.932
101248.906
101248.879
101248.853
101248.827
101248.801
101248.768
101248.726
101248.681
101248.639
101248.603
101248.565
101248.525
101248.484
101248.443
101248.4
101248.353
101248.315
101248.291
101248.251
101248.194
101248.152
101248.124
101248.095
101248.068
101248.047
101248.03
101248.019
101248.018
101248.034
101248.074
101248.138
101248.223
101248.337
101248.488
101248.679
101248.924
101249.228
101249.602
101250.034
101250.539
101251.175
101251.708
101252.474
101253.248
101254.218
101256.532
101260.17
101263.346
101264.896
101266.204
101268.182
101271.066
101273.958
101249.229
101249.226
101249.222
101249.217
101249.212
101249.206
101249.2
101249.192
101249.185
101249.177
101249.169
101249.16
101249.151
101249.142
101249.132
101249.122
101249.111
101249.1
101249.089
101249.078
101249.066
101249.053
101249.04
101249.025
101249.01
101248.994
101248.979
101248.963
101248.946
101248.924
101248.901
101248.876
101248.852
101248.83
101248.807
101248.782
101248.756
101248.729
101248.7
101248.665
101248.639
101248.626
101248.596
101248.549
101248.518
101248.497
101248.473
101248.451
101248.431
101248.415
101248.405
101248.407
101248.427
101248.467
101248.527
101248.61
101248.726
101248.886
101249.098
101249.364
101249.697
101250.1
101250.596
101251.186
101251.902
101252.73
101253.667
101254.789
101255.803
101257.145
101260.787
101263.19
101263.874
101264.942
101267.19
101269.608
101271.34
101273.263
101276.083
101278.228
101249.251
101249.248
101249.244
101249.24
101249.236
101249.231
101249.226
101249.22
101249.214
101249.208
101249.202
101249.196
101249.19
101249.184
101249.178
101249.172
101249.166
101249.16
101249.155
101249.148
101249.14
101249.133
101249.126
101249.12
101249.114
101249.109
101249.102
101249.094
101249.086
101249.078
101249.07
101249.061
101249.05
101249.038
101249.026
101249.011
101248.992
101248.98
101248.979
101248.963
101248.93
101248.912
101248.902
101248.888
101248.873
101248.861
101248.852
101248.849
101248.858
101248.88
101248.915
101248.967
101249.041
101249.146
101249.291
101249.486
101249.737
101250.049
101250.436
101250.909
101251.483
101252.155
101252.944
101253.869
101254.94
101256.167
101257.426
101259.49
101262.591
101263.966
101264.381
101265.994
101268.504
101270.211
101271.89
101273.826
101275.984
101278.507
101281.179
101283.47
101249.335
101249.331
101249.327
101249.323
101249.319
101249.314
101249.31
101249.305
101249.301
101249.297
101249.292
101249.288
101249.285
101249.282
101249.28
101249.278
101249.276
101249.274
101249.273
101249.274
101249.277
101249.279
101249.282
101249.285
101249.287
101249.29
101249.292
101249.295
101249.297
101249.299
101249.3
101249.301
101249.301
101249.297
101249.299
101249.312
101249.31
101249.295
101249.292
101249.296
101249.295
101249.294
101249.295
101249.3
101249.311
101249.33
101249.357
101249.395
101249.448
101249.522
101249.623
101249.758
101249.933
101250.158
101250.441
101250.787
101251.207
101251.713
101252.315
101253.021
101253.86
101254.83
101255.889
101256.982
101258.207
101260.582
101263.177
101264.139
101264.935
101267.164
101268.888
101270.353
101272.636
101274.682
101276.597
101278.817
101281.293
101283.664
101286.148
101288.77
101249.448
101249.444
101249.439
101249.435
101249.43
101249.426
101249.422
101249.419
101249.416
101249.414
101249.412
101249.411
101249.409
101249.409
101249.411
101249.413
101249.418
101249.423
101249.429
101249.435
101249.443
101249.451
101249.46
101249.47
101249.481
101249.492
101249.504
101249.516
101249.529
101249.541
101249.55
101249.565
101249.59
101249.603
101249.604
101249.616
101249.635
101249.65
101249.665
101249.683
101249.703
101249.728
101249.76
101249.798
101249.848
101249.912
101249.995
101250.102
101250.239
101250.412
101250.627
101250.895
101251.221
101251.613
101252.079
101252.628
101253.259
101253.984
101254.793
101255.681
101256.576
101257.544
101259.243
101261.993
101264.457
101265.28
101265.872
101267.685
101269.778
101271.675
101273.293
101275.523
101277.885
101279.923
101281.955
101284.785
101287.103
101289.111
101291.674
101295.04
101249.544
101249.54
101249.535
101249.53
101249.527
101249.523
101249.521
101249.519
101249.518
101249.518
101249.519
101249.522
101249.526
101249.532
101249.538
101249.545
101249.554
101249.564
101249.576
101249.589
101249.603
101249.619
101249.636
101249.655
101249.674
101249.695
101249.716
101249.735
101249.759
101249.793
101249.817
101249.833
101249.858
101249.89
101249.919
101249.949
101249.981
101250.016
101250.055
101250.1
101250.152
101250.215
101250.291
101250.384
101250.498
101250.64
101250.814
101251.029
101251.291
101251.608
101251.99
101252.444
101252.978
101253.602
101254.318
101255.132
101256.018
101257.002
101258.01
101259.359
101261.526
101264.131
101265.432
101265.95
101266.751
101268.509
101271.002
101273.358
101275.204
101277.333
101279.92
101282.012
101283.708
101285.522
101287.728
101289.78
101291.928
101294.521
101297.196
101299.476
101249.586
101249.582
101249.578
101249.575
101249.572
101249.571
101249.571
101249.571
101249.574
101249.578
101249.583
101249.59
101249.598
101249.608
101249.62
101249.633
101249.649
101249.666
101249.685
101249.706
101249.728
101249.753
101249.779
101249.806
101249.833
101249.864
101249.904
101249.94
101249.967
101250
101250.042
101250.083
101250.124
101250.168
101250.216
101250.267
101250.324
101250.388
101250.461
101250.545
101250.644
101250.763
101250.904
101251.076
101251.282
101251.532
101251.833
101252.195
101252.626
101253.135
101253.734
101254.436
101255.246
101256.166
101257.201
101258.352
101259.602
101261.037
101263.06
101264.87
101266.126
101267.264
101268.759
101270.878
101272.95
101274.782
101276.543
101278.161
101279.996
101282.173
101284.01
101285.736
101287.799
101289.915
101291.772
101293.73
101296.239
101298.658
101300.84
101302.823
101249.531
101249.528
101249.526
101249.526
101249.526
101249.528
101249.532
101249.537
101249.544
101249.552
101249.563
101249.575
101249.59
101249.606
101249.625
101249.647
101249.67
101249.696
101249.724
101249.754
101249.786
101249.819
101249.856
101249.902
101249.946
101249.982
101250.024
101250.074
101250.125
101250.176
101250.231
101250.288
101250.35
101250.417
101250.49
101250.571
101250.661
101250.765
101250.884
101251.023
101251.187
101251.381
101251.611
101251.884
101252.21
101252.596
101253.052
101253.588
101254.214
101254.944
101255.786
101256.75
101257.847
101259.074
101260.449
101261.921
101263.539
101265.191
101266.474
101267.958
101269.797
101271.522
101273.181
101274.564
101276.018
101277.878
101279.865
101281.506
101282.943
101284.692
101286.961
101289.13
101290.942
101292.818
101295.452
101297.586
101299.418
101301.932
101305.016
101308.018
101249.334
101249.335
101249.336
101249.34
101249.345
101249.352
101249.36
101249.371
101249.384
101249.399
101249.417
101249.438
101249.461
101249.487
101249.515
101249.546
101249.58
101249.617
101249.655
101249.698
101249.748
101249.796
101249.841
101249.893
101249.951
101250.011
101250.072
101250.137
101250.205
101250.277
101250.354
101250.437
101250.527
101250.625
101250.735
101250.858
101250.998
101251.158
101251.344
101251.559
101251.81
101252.104
101252.448
101252.848
101253.314
101253.854
101254.473
101255.179
101255.978
101256.877
101257.862
101258.947
101260.108
101261.428
101263.001
101264.605
101266.099
101267.699
101269.425
101270.992
101272.512
101274.274
101276.036
101277.725
101279.354
101280.784
101282.247
101283.818
101285.599
101287.93
101290.724
101293.614
101295.993
101298.45
101300.248
101302.303
101305.7
101308.505
101310.125
101311.54
101248.946
101248.952
101248.959
101248.968
101248.979
101248.992
101249.009
101249.027
101249.049
101249.073
101249.101
101249.132
101249.166
101249.203
101249.243
101249.286
101249.334
101249.388
101249.442
101249.495
101249.555
101249.621
101249.689
101249.76
101249.834
101249.913
101249.996
101250.083
101250.177
101250.278
101250.387
101250.506
101250.637
101250.783
101250.948
101251.135
101251.348
101251.593
101251.874
101252.199
101252.574
101253.005
101253.498
101254.06
101254.694
101255.405
101256.194
101257.064
101257.992
101258.985
101259.989
101261.146
101262.781
101264.598
101266.123
101267.621
101269.367
101271.188
101273.05
101274.92
101276.683
101278.354
101280.084
101282.01
101283.98
101285.909
101287.983
101290.266
101292.627
101294.662
101296.288
101297.627
101299.792
101302.509
101304.961
101307.388
101308.966
101311.202
101313.852
101315.938
101248.309
101248.32
101248.334
101248.351
101248.37
101248.393
101248.418
101248.447
101248.48
101248.516
101248.555
101248.598
101248.645
101248.696
101248.754
101248.813
101248.873
101248.94
101249.012
101249.087
101249.166
101249.249
101249.337
101249.429
101249.527
101249.63
101249.741
101249.859
101249.988
101250.127
101250.281
101250.451
101250.642
101250.857
101251.101
101251.379
101251.698
101252.064
101252.483
101252.964
101253.512
101254.134
101254.837
101255.625
101256.505
101257.485
101258.571
101259.764
101261.057
101262.575
101264.402
101265.981
101267.301
101268.72
101270.282
101271.966
101273.703
101275.347
101276.986
101278.661
101280.291
101281.946
101283.79
101285.78
101287.627
101289.582
101291.786
101293.996
101295.917
101297.385
101299.038
101301.854
101304.077
101306.032
101308.696
101310.437
101312.295
101315.19
101317.041
101318.914
101247.355
101247.375
101247.399
101247.425
101247.455
101247.488
101247.525
101247.566
101247.611
101247.66
101247.714
101247.773
101247.836
101247.901
101247.972
101248.049
101248.129
101248.214
101248.303
101248.397
101248.496
101248.601
101248.712
101248.829
101248.953
101249.087
101249.23
101249.386
101249.557
101249.745
101249.955
101250.19
101250.454
101250.754
101251.095
101251.484
101251.927
101252.432
101253.005
101253.652
101254.38
101255.194
101256.097
101257.091
101258.18
101259.366
101260.647
101261.994
101263.444
101264.838
101266.282
101268.173
101269.929
101271.173
101272.431
101273.944
101275.708
101277.659
101279.403
101281.021
101282.799
101284.728
101286.655
101288.507
101290.357
101292.316
101294.197
101296.16
101298.75
101301.308
101303.831
101306.055
101308.477
101310.629
101312.329
101314.662
101317.408
101319.302
101321.347
101323.712
101246.022
101246.051
101246.087
101246.125
101246.167
101246.213
101246.264
101246.319
101246.379
101246.443
101246.512
101246.586
101246.666
101246.75
101246.839
101246.932
101247.031
101247.135
101247.245
101247.361
101247.482
101247.611
101247.748
101247.894
101248.05
101248.219
101248.403
101248.605
101248.828
101249.077
101249.354
101249.667
101250.02
101250.419
101250.871
101251.382
101251.959
101252.607
101253.332
101254.138
101255.03
101256.009
101257.076
101258.229
101259.465
101260.784
101262.185
101263.682
101265.233
101266.895
101268.536
101270.055
101271.558
101273.041
101274.335
101275.346
101276.928
101279.158
101281.377
101283.717
101286.058
101288.294
101290.525
101292.874
101295.147
101297.458
101300.06
101302.719
101304.543
101305.819
101307.219
101309.129
101311.437
101314.062
101316.881
101318.707
101320.475
101323.538
101326.771
101329.113
101244.256
101244.297
101244.347
101244.399
101244.456
101244.517
101244.583
101244.654
101244.731
101244.812
101244.899
101244.991
101245.089
101245.192
101245.301
101245.416
101245.537
101245.665
101245.799
101245.941
101246.092
101246.254
101246.426
101246.613
101246.815
101247.036
101247.28
101247.549
101247.849
101248.185
101248.562
101248.985
101249.461
101249.995
101250.594
101251.262
101252.004
101252.824
101253.726
101254.709
101255.777
101256.929
101258.16
101259.449
101260.765
101262.054
101263.357
101264.937
101266.88
101268.877
101270.965
101273.037
101275.085
101277.299
101279.729
101282.532
101284.797
101286.399
101288.083
101289.472
101290.878
101292.467
101294.309
101296.269
101297.995
101299.749
101301.884
101304.207
101306.034
101308.021
101310.65
101313.056
101314.766
101316.427
101318.81
101322.201
101324.679
101326.998
101329.396
101331.539
101242.02
101242.075
101242.141
101242.21
101242.283
101242.361
101242.445
101242.535
101242.63
101242.731
101242.839
101242.952
101243.072
101243.199
101243.333
101243.474
101243.624
101243.782
101243.952
101244.132
101244.327
101244.537
101244.765
101245.015
101245.289
101245.592
101245.929
101246.304
101246.723
101247.191
101247.714
101248.297
101248.944
101249.661
101250.449
101251.311
101252.247
101253.254
101254.329
101255.458
101256.633
101257.855
101259.393
101261.438
101263.704
101266.13
101268.692
101270.872
101272.396
101273.816
101275.493
101277.194
101278.917
101280.754
101282.69
101284.31
101285.687
101287.112
101288.469
101290.232
101292.874
101295.374
101297.639
101299.251
101300.85
101302.979
101304.896
101306.876
101309.175
101311.687
101314.193
101316.005
101317.615
101319.303
101321.328
101323.798
101326.325
101328.279
101330.573
101333.201
101239.28
101239.351
101239.434
101239.521
101239.611
101239.708
101239.81
101239.919
101240.034
101240.156
101240.285
101240.421
101240.565
101240.718
101240.88
101241.053
101241.238
101241.436
101241.65
101241.882
101242.135
101242.412
101242.717
101243.056
101243.432
101243.851
101244.32
101244.844
101245.429
101246.082
101246.809
101247.614
101248.503
101249.478
101250.541
101251.693
101252.934
101254.259
101255.662
101257.12
101258.802
101260.961
101263.175
101264.936
101266.428
101267.944
101269.514
101271.071
101272.806
101274.942
101277.135
101279.018
101280.938
101282.548
101283.803
101285.311
101287.36
101289.885
101292.705
101295.131
101296.49
101297.533
101299.082
101301.515
101304.596
101307.539
101309.254
101310.43
101312.142
101314.159
101316.312
101318.445
101320.69
101322.804
101325.124
101327.609
101330.002
101331.833
101332.808
101334.77
101236.038
101236.125
101236.226
101236.329
101236.436
101236.549
101236.669
101236.795
101236.928
101237.068
101237.217
101237.374
101237.542
101237.72
101237.911
101238.116
101238.339
101238.58
101238.845
101239.136
101239.457
101239.814
101240.212
101240.656
101241.153
101241.71
101242.333
101243.028
101243.803
101244.662
101245.61
101246.652
101247.791
101249.026
101250.36
101251.792
101253.319
101254.94
101256.648
101258.462
101260.278
101262.266
101264.047
101265.563
101267.084
101268.581
101270.112
101271.6
101273.134
101274.987
101277.334
101279.892
101281.758
101283.708
101286.749
101289.672
101292.534
101294.525
101295.9
101297.207
101299.27
101302.243
101304.103
101305.772
101307.274
101308.412
101310.458
101313.644
101316.292
101318.238
101319.971
101322.276
101325.346
101327.211
101328.409
101330.728
101333.736
101335.976
101337.664
101339.543
101232.348
101232.45
101232.568
101232.686
101232.808
101232.935
101233.069
101233.208
101233.355
101233.511
101233.675
101233.85
101234.037
101234.237
101234.455
101234.692
101234.951
101235.236
101235.553
101235.905
101236.298
101236.738
101237.231
101237.784
101238.404
101239.097
101239.869
101240.725
101241.671
101242.709
101243.843
101245.072
101246.397
101247.814
101249.319
101250.911
101252.581
101254.323
101256.122
101257.99
101259.98
101261.621
101263.162
101265.036
101267.113
101269.237
101271.322
101273.362
101275.527
101278.385
101280.688
101282.542
101285.034
101287.262
101289.348
101291.406
101293.245
101295.232
101297.717
101300.082
101302.037
101303.754
101305.897
101308.132
101310.227
101312.984
101314.972
101316.543
101318.456
101321.41
101325.06
101326.739
101328.057
101330.463
101333.286
101335.377
101337.235
101339.387
101341.774
101342.454
101300.866
101300.869
101300.874
101300.88
101300.889
101300.899
101300.911
101300.925
101300.941
101300.959
101300.979
101301.001
101301.025
101301.052
101301.081
101301.112
101301.146
101301.182
101301.221
101301.263
101301.307
101301.355
101301.405
101301.459
101301.516
101301.577
101301.641
101301.709
101301.781
101301.858
101301.939
101302.024
101302.115
101302.21
101302.311
101302.418
101302.53
101302.649
101302.775
101302.907
101303.048
101303.198
101303.357
101303.523
101303.699
101303.885
101304.081
101304.289
101304.507
101304.737
101304.98
101305.234
101305.501
101305.78
101306.07
101306.37
101306.678
101306.996
101307.322
101307.656
101307.992
101308.326
101308.655
101308.972
101309.269
101309.536
101309.757
101309.913
101310.049
101310.028
101309.62
101308.798
101308.233
101307.704
101306.743
101305.477
101304.125
101303.48
101303.542
101302.479
101297.427
101297.43
101297.434
101297.439
101297.447
101297.456
101297.466
101297.479
101297.493
101297.509
101297.527
101297.546
101297.568
101297.592
101297.618
101297.646
101297.676
101297.709
101297.744
101297.781
101297.821
101297.864
101297.91
101297.959
101298.011
101298.066
101298.124
101298.186
101298.252
101298.322
101298.396
101298.475
101298.558
101298.646
101298.74
101298.839
101298.943
101299.055
101299.174
101299.3
101299.433
101299.575
101299.725
101299.884
101300.053
101300.231
101300.421
101300.621
101300.834
101301.058
101301.295
101301.545
101301.808
101302.084
101302.371
101302.67
101302.976
101303.289
101303.608
101303.931
101304.253
101304.568
101304.867
101305.135
101305.352
101305.52
101305.648
101305.608
101305.174
101304.597
101304.192
101303.688
101302.831
101301.939
101301.06
101300.36
101299.806
101299.248
101298.272
101296.088
101293.765
101293.767
101293.77
101293.775
101293.781
101293.788
101293.797
101293.807
101293.819
101293.832
101293.847
101293.864
101293.882
101293.902
101293.923
101293.947
101293.972
101293.999
101294.029
101294.06
101294.094
101294.13
101294.168
101294.209
101294.253
101294.299
101294.349
101294.401
101294.457
101294.517
101294.58
101294.646
101294.718
101294.793
101294.873
101294.959
101295.051
101295.148
101295.251
101295.361
101295.478
101295.603
101295.736
101295.877
101296.027
101296.187
101296.357
101296.537
101296.729
101296.932
101297.147
101297.375
101297.615
101297.865
101298.126
101298.395
101298.668
101298.942
101299.211
101299.472
101299.72
101299.951
101300.156
101300.329
101300.431
101300.359
101300.009
101299.608
101299.248
101298.77
101297.986
101297.192
101296.389
101295.348
101293.897
101292.258
101290.624
101288.83
101286.873
101285.101
101289.924
101289.925
101289.928
101289.931
101289.936
101289.941
101289.948
101289.956
101289.964
101289.974
101289.985
101289.998
101290.011
101290.026
101290.042
101290.059
101290.078
101290.098
101290.12
101290.143
101290.168
101290.195
101290.224
101290.254
101290.287
101290.321
101290.358
101290.397
101290.439
101290.484
101290.531
101290.581
101290.635
101290.693
101290.754
101290.819
101290.89
101290.965
101291.044
101291.13
101291.221
101291.318
101291.422
101291.533
101291.652
101291.779
101291.913
101292.056
101292.207
101292.369
101292.541
101292.724
101292.918
101293.124
101293.34
101293.56
101293.783
101294.001
101294.207
101294.386
101294.522
101294.593
101294.565
101294.394
101294.088
101293.701
101293.225
101292.561
101291.741
101290.836
101289.851
101288.668
101287.42
101286.159
101284.709
101282.877
101280.835
101278.829
101277
101274.684
101285.948
101285.949
101285.951
101285.953
101285.956
101285.96
101285.964
101285.968
101285.973
101285.979
101285.986
101285.993
101286.001
101286.009
101286.019
101286.029
101286.039
101286.051
101286.063
101286.076
101286.091
101286.106
101286.122
101286.139
101286.157
101286.177
101286.198
101286.22
101286.244
101286.269
101286.296
101286.325
101286.357
101286.39
101286.426
101286.465
101286.507
101286.551
101286.599
101286.651
101286.707
101286.767
101286.831
101286.9
101286.975
101287.055
101287.142
101287.234
101287.33
101287.432
101287.54
101287.652
101287.765
101287.877
101287.992
101288.104
101288.208
101288.298
101288.364
101288.393
101288.366
101288.261
101288.055
101287.716
101287.203
101286.48
101285.608
101284.629
101283.548
101282.321
101280.999
101279.567
101277.936
101276.016
101273.793
101271.269
101268.621
101266.066
101263.419
101259.349
101281.908
101281.909
101281.91
101281.912
101281.913
101281.914
101281.915
101281.916
101281.918
101281.919
101281.92
101281.922
101281.923
101281.925
101281.926
101281.928
101281.929
101281.931
101281.932
101281.934
101281.935
101281.937
101281.939
101281.941
101281.942
101281.945
101281.947
101281.949
101281.951
101281.953
101281.957
101281.96
101281.965
101281.969
101281.975
101281.981
101281.988
101281.995
101282.004
101282.014
101282.026
101282.038
101282.052
101282.067
101282.084
101282.101
101282.116
101282.136
101282.157
101282.174
101282.191
101282.206
101282.217
101282.221
101282.211
101282.186
101282.138
101282.064
101281.955
101281.797
101281.576
101281.27
101280.856
101280.311
101279.62
101278.775
101277.735
101276.532
101275.155
101273.581
101271.713
101269.515
101267.006
101264.182
101260.966
101257.236
101253.092
101248.448
101243.628
101238.431
101277.874
101277.874
101277.875
101277.875
101277.874
101277.873
101277.871
101277.869
101277.866
101277.862
101277.858
101277.853
101277.848
101277.842
101277.835
101277.827
101277.819
101277.809
101277.799
101277.788
101277.776
101277.763
101277.749
101277.734
101277.718
101277.7
101277.681
101277.662
101277.641
101277.619
101277.596
101277.571
101277.545
101277.518
101277.49
101277.46
101277.428
101277.395
101277.36
101277.324
101277.286
101277.245
101277.203
101277.157
101277.105
101277.051
101276.995
101276.935
101276.872
101276.801
101276.721
101276.632
101276.533
101276.421
101276.292
101276.143
101275.964
101275.747
101275.484
101275.161
101274.76
101274.257
101273.62
101272.815
101271.816
101270.615
101269.213
101267.595
101265.743
101263.582
101261.007
101257.928
101254.434
101250.538
101245.889
101240.442
101234.548
101228.71
101222.234
101214.942
101273.931
101273.932
101273.932
101273.93
101273.928
101273.924
101273.919
101273.913
101273.906
101273.897
101273.887
101273.876
101273.864
101273.85
101273.834
101273.817
101273.798
101273.778
101273.756
101273.732
101273.706
101273.678
101273.648
101273.616
101273.581
101273.544
101273.505
101273.464
101273.419
101273.372
101273.322
101273.269
101273.213
101273.154
101273.091
101273.024
101272.953
101272.879
101272.8
101272.716
101272.628
101272.534
101272.432
101272.323
101272.209
101272.087
101271.96
101271.821
101271.674
101271.514
101271.341
101271.152
101270.943
101270.711
101270.452
101270.161
101269.83
101269.449
101269
101268.465
101267.822
101267.043
101266.1
101264.964
101263.607
101262.009
101260.161
101258.034
101255.579
101252.713
101249.382
101245.56
101241.463
101236.692
101230.74
101224.519
101218.073
101208.212
101195.446
101186.05
101270.158
101270.159
101270.158
101270.156
101270.151
101270.145
101270.137
101270.128
101270.116
101270.103
101270.087
101270.07
101270.051
101270.029
101270.005
101269.979
101269.951
101269.92
101269.886
101269.849
101269.81
101269.768
101269.723
101269.675
101269.623
101269.568
101269.509
101269.447
101269.38
101269.309
101269.234
101269.154
101269.069
101268.979
101268.883
101268.782
101268.675
101268.561
101268.441
101268.313
101268.177
101268.029
101267.874
101267.71
101267.538
101267.354
101267.158
101266.948
101266.721
101266.478
101266.215
101265.93
101265.619
101265.277
101264.899
101264.478
101264.005
101263.465
101262.841
101262.113
101261.261
101260.259
101259.078
101257.686
101256.046
101254.122
101251.861
101249.233
101246.164
101242.583
101238.58
101234.771
101230.347
101224.78
101218.145
101208.467
101195.237
101183.6
101173.876
101166.583
101266.637
101266.637
101266.635
101266.631
101266.625
101266.616
101266.606
101266.593
101266.577
101266.56
101266.539
101266.516
101266.491
101266.462
101266.431
101266.397
101266.36
101266.32
101266.276
101266.229
101266.178
101266.124
101266.065
101266.003
101265.936
101265.865
101265.789
101265.708
101265.621
101265.53
101265.432
101265.329
101265.219
101265.103
101264.979
101264.848
101264.709
101264.562
101264.405
101264.236
101264.059
101263.871
101263.672
101263.463
101263.241
101263.003
101262.749
101262.478
101262.187
101261.874
101261.537
101261.171
101260.773
101260.338
101259.859
101259.329
101258.733
101258.056
101257.283
101256.393
101255.362
101254.159
101252.749
101251.092
101249.14
101246.882
101244.525
101242.034
101239.242
101236.241
101232.967
101228.021
101221
101213.125
101204.874
101196.213
101187.328
101178.813
101170.774
101164.693
101263.43
101263.429
101263.426
101263.421
101263.413
101263.402
101263.389
101263.373
101263.354
101263.332
101263.308
101263.28
101263.249
101263.215
101263.178
101263.138
101263.093
101263.045
101262.993
101262.938
101262.878
101262.813
101262.744
101262.67
101262.591
101262.507
101262.417
101262.322
101262.221
101262.113
101261.998
101261.877
101261.748
101261.612
101261.467
101261.313
101261.15
101260.976
101260.792
101260.598
101260.393
101260.177
101259.948
101259.705
101259.447
101259.172
101258.88
101258.568
101258.234
101257.877
101257.494
101257.08
101256.632
101256.146
101255.614
101255.023
101254.36
101253.615
101252.784
101251.859
101250.831
101249.691
101248.431
101247.042
101245.52
101243.729
101241.339
101238.279
101234.747
101230.596
101225.629
101220.404
101215.124
101209.281
101202.835
101195.843
101188.417
101181.407
101175.512
101169.699
101260.587
101260.585
101260.581
101260.574
101260.564
101260.552
101260.536
101260.517
101260.495
101260.471
101260.443
101260.411
101260.377
101260.338
101260.297
101260.251
101260.202
101260.148
101260.091
101260.029
101259.962
101259.89
101259.814
101259.733
101259.646
101259.553
101259.455
101259.35
101259.239
101259.121
101258.996
101258.863
101258.721
101258.572
101258.414
101258.247
101258.069
101257.88
101257.683
101257.476
101257.256
101257.024
101256.778
101256.519
101256.243
101255.952
101255.644
101255.316
101254.969
101254.6
101254.208
101253.791
101253.346
101252.868
101252.344
101251.763
101251.145
101250.487
101249.737
101248.858
101247.845
101246.666
101245.291
101243.726
101241.944
101239.988
101237.797
101235.289
101232.449
101229.211
101225.532
101221.312
101216.704
101211.801
101206.349
101200.793
101195.496
101189.699
101183.64
101178.014
101258.14
101258.137
101258.131
101258.122
101258.11
101258.095
101258.077
101258.056
101258.032
101258.005
101257.975
101257.941
101257.903
101257.862
101257.818
101257.769
101257.717
101257.66
101257.599
101257.534
101257.463
101257.388
101257.309
101257.224
101257.133
101257.037
101256.935
101256.826
101256.71
101256.586
101256.456
101256.319
101256.174
101256.02
101255.856
101255.685
101255.505
101255.315
101255.116
101254.905
101254.683
101254.449
101254.202
101253.942
101253.668
101253.379
101253.074
101252.752
101252.411
101252.052
101251.671
101251.268
101250.82
101250.342
101249.841
101249.298
101248.714
101248.077
101247.373
101246.599
101245.742
101244.784
101243.714
101242.513
101241.159
101239.618
101237.869
101235.874
101233.588
101231.007
101228.126
101224.938
101221.291
101217.483
101213.363
101208.006
101202.437
101197.151
101191.769
101187.178
101256.088
101256.082
101256.074
101256.063
101256.049
101256.033
101256.013
101255.991
101255.965
101255.936
101255.904
101255.869
101255.83
101255.788
101255.742
101255.693
101255.64
101255.583
101255.521
101255.456
101255.386
101255.31
101255.23
101255.145
101255.055
101254.958
101254.855
101254.746
101254.633
101254.513
101254.386
101254.252
101254.11
101253.96
101253.802
101253.637
101253.463
101253.279
101253.087
101252.884
101252.671
101252.448
101252.213
101251.967
101251.709
101251.439
101251.155
101250.858
101250.546
101250.219
101249.877