/*--------------------------------*- C++ -*----------------------------------*\
  =========                 |
  \\      /  F ield         | OpenFOAM: The Open Source CFD Toolbox
   \\    /   O peration     | Website:  https://openfoam.org
    \\  /    A nd           | Version:  8
     \\/     M anipulation  |
\*---------------------------------------------------------------------------*/
FoamFile
{
    version     2.0;
    format      ascii;
    class       volScalarField;
    location    "0.012";
    object      p_rgh;
}
// * * * * * * * * * * * * * * * * * * * * * * * * * * * * * * * * * * * * * //

dimensions      [1 -1 -2 0 0 0 0];

internalField   nonuniform List<scalar> 
42400
(
101249.921
101249.912
101249.901
101249.89
101249.877
101249.864
101249.849
101249.834
101249.818
101249.8
101249.781
101249.762
101249.741
101249.72
101249.697
101249.673
101249.648
101249.621
101249.593
101249.564
101249.533
101249.501
101249.467
101249.432
101249.395
101249.356
101249.315
101249.272
101249.227
101249.18
101249.131
101249.08
101249.027
101248.971
101248.912
101248.857
101248.809
101248.76
101248.698
101248.619
101248.538
101248.465
101248.401
101248.336
101248.271
101248.206
101248.142
101248.077
101248.01
101247.954
101247.908
101247.872
101247.817
101247.744
101247.693
101247.654
101247.612
101247.567
101247.523
101247.477
101247.423
101247.364
101247.307
101247.254
101247.196
101247.117
101247.017
101246.863
101246.697
101246.737
101246.471
101245.915
101246.445
101246.488
101245.654
101246.281
101246.78
101247.411
101253.268
101257.628
101249.641
101249.635
101249.627
101249.618
101249.608
101249.598
101249.587
101249.575
101249.562
101249.548
101249.533
101249.517
101249.501
101249.483
101249.465
101249.446
101249.425
101249.404
101249.382
101249.358
101249.333
101249.307
101249.28
101249.251
101249.221
101249.189
101249.156
101249.121
101249.084
101249.046
101249.005
101248.962
101248.922
101248.885
101248.848
101248.8
101248.738
101248.673
101248.615
101248.563
101248.51
101248.457
101248.402
101248.348
101248.293
101248.234
101248.187
101248.154
101248.107
101248.041
101247.989
101247.951
101247.922
101247.892
101247.865
101247.844
101247.825
101247.812
101247.808
101247.823
101247.861
101247.914
101247.982
101248.064
101248.166
101248.295
101248.472
101248.676
101248.823
101249.322
101249.831
101250.098
101250.675
101251.423
101252.061
101254.814
101259.059
101261.557
101263.103
101265.53
101249.465
101249.461
101249.455
101249.449
101249.442
101249.434
101249.425
101249.416
101249.406
101249.396
101249.384
101249.372
101249.36
101249.346
101249.332
101249.317
101249.302
101249.285
101249.268
101249.25
101249.232
101249.212
101249.191
101249.169
101249.146
101249.122
101249.097
101249.07
101249.042
101249.015
101248.989
101248.962
101248.928
101248.886
101248.84
101248.798
101248.76
101248.721
101248.681
101248.639
101248.597
101248.553
101248.505
101248.466
101248.442
101248.4
101248.342
101248.3
101248.27
101248.241
101248.214
101248.191
101248.174
101248.162
101248.16
101248.176
101248.215
101248.278
101248.363
101248.477
101248.627
101248.818
101249.064
101249.368
101249.741
101250.175
101250.686
101251.32
101251.878
101252.694
101253.449
101254.343
101256.757
101260.565
101263.656
101264.916
101266.027
101268.198
101271.046
101273.834
101249.394
101249.391
101249.387
101249.382
101249.377
101249.371
101249.364
101249.357
101249.349
101249.341
101249.333
101249.324
101249.314
101249.305
101249.295
101249.284
101249.274
101249.263
101249.251
101249.239
101249.227
101249.214
101249.2
101249.185
101249.169
101249.153
101249.137
101249.121
101249.103
101249.081
101249.057
101249.032
101249.007
101248.984
101248.96
101248.935
101248.908
101248.881
101248.851
101248.816
101248.788
101248.775
101248.744
101248.696
101248.664
101248.642
101248.618
101248.595
101248.575
101248.558
101248.548
101248.549
101248.569
101248.609
101248.669
101248.752
101248.867
101249.027
101249.24
101249.505
101249.838
101250.242
101250.738
101251.327
101252.04
101252.857
101253.785
101254.872
101255.88
101257.324
101261.008
101263.401
101264.045
101265.006
101267.196
101269.543
101271.322
101273.225
101275.934
101278.227
101249.411
101249.407
101249.404
101249.399
101249.395
101249.39
101249.385
101249.379
101249.373
101249.366
101249.36
101249.354
101249.348
101249.341
101249.335
101249.329
101249.323
101249.317
101249.311
101249.304
101249.296
101249.288
101249.28
101249.274
101249.268
101249.262
101249.255
101249.246
101249.238
101249.23
101249.221
101249.211
101249.2
101249.187
101249.174
101249.159
101249.139
101249.126
101249.125
101249.108
101249.075
101249.056
101249.045
101249.031
101249.015
101249.002
101248.992
101248.989
101248.997
101249.019
101249.053
101249.105
101249.178
101249.284
101249.429
101249.624
101249.876
101250.188
101250.576
101251.049
101251.623
101252.295
101253.088
101254.017
101255.093
101256.316
101257.591
101259.682
101262.735
101264.024
101264.417
101266.109
101268.506
101270.193
101271.995
101273.913
101276.029
101278.498
101281.194
101283.561
101249.489
101249.485
101249.481
101249.477
101249.473
101249.468
101249.463
101249.459
101249.454
101249.45
101249.445
101249.441
101249.437
101249.434
101249.432
101249.43
101249.427
101249.425
101249.424
101249.425
101249.427
101249.429
101249.432
101249.434
101249.436
101249.438
101249.44
101249.442
101249.444
101249.445
101249.446
101249.447
101249.446
101249.441
101249.442
101249.454
101249.452
101249.436
101249.432
101249.435
101249.434
101249.432
101249.432
101249.437
101249.447
101249.464
101249.491
101249.528
101249.58
101249.653
101249.754
101249.888
101250.063
101250.289
101250.572
101250.919
101251.341
101251.849
101252.453
101253.16
101253.999
101254.962
101256.026
101257.151
101258.41
101260.774
101263.315
101264.282
101265.085
101267.213
101268.955
101270.493
101272.651
101274.636
101276.544
101278.785
101281.271
101283.657
101286.155
101288.632
101249.598
101249.594
101249.589
101249.584
101249.58
101249.576
101249.572
101249.569
101249.566
101249.563
101249.561
101249.56
101249.558
101249.558
101249.559
101249.561
101249.565
101249.57
101249.576
101249.582
101249.589
101249.597
101249.606
101249.615
101249.625
101249.636
101249.647
101249.659
101249.671
101249.682
101249.691
101249.705
101249.73
101249.742
101249.742
101249.754
101249.772
101249.786
101249.8
101249.817
101249.837
101249.861
101249.891
101249.929
101249.977
101250.04
101250.121
101250.227
101250.363
101250.534
101250.748
101251.013
101251.339
101251.73
101252.196
101252.746
101253.382
101254.114
101254.932
101255.837
101256.771
101257.743
101259.339
101262.055
101264.489
101265.329
101266.015
101267.852
101269.874
101271.723
101273.388
101275.528
101277.814
101279.841
101281.989
101284.726
101286.986
101289.151
101291.836
101295.2
101249.69
101249.686
101249.681
101249.676
101249.672
101249.669
101249.666
101249.664
101249.663
101249.663
101249.664
101249.666
101249.671
101249.676
101249.682
101249.689
101249.698
101249.707
101249.719
101249.732
101249.746
101249.761
101249.778
101249.796
101249.815
101249.835
101249.856
101249.874
101249.898
101249.931
101249.956
101249.97
101249.994
101250.025
101250.054
101250.083
101250.114
101250.149
101250.187
101250.231
101250.282
101250.344
101250.418
101250.51
101250.623
101250.763
101250.936
101251.148
101251.407
101251.721
101252.099
101252.549
101253.077
101253.696
101254.405
101255.211
101256.092
101257.076
101258.082
101259.379
101261.441
101264.029
101265.562
101266.167
101266.949
101268.686
101271.048
101273.306
101275.208
101277.35
101279.858
101281.953
101283.706
101285.66
101287.86
101289.892
101292.071
101294.611
101297.099
101299.268
101249.729
101249.725
101249.721
101249.717
101249.715
101249.713
101249.713
101249.713
101249.716
101249.72
101249.725
101249.732
101249.74
101249.749
101249.761
101249.774
101249.789
101249.806
101249.825
101249.845
101249.867
101249.892
101249.917
101249.944
101249.971
101250.001
101250.041
101250.077
101250.104
101250.136
101250.177
101250.217
101250.258
101250.302
101250.349
101250.4
101250.456
101250.519
101250.591
101250.675
101250.773
101250.89
101251.031
101251.201
101251.407
101251.655
101251.954
101252.313
101252.741
101253.246
101253.84
101254.534
101255.334
101256.241
101257.258
101258.383
101259.598
101261.013
101263.027
101264.974
101266.332
101267.463
101268.896
101270.922
101272.959
101274.72
101276.457
101278.145
101279.997
101282.162
101284.037
101285.86
101288.03
101290.049
101291.886
101293.999
101296.42
101298.604
101300.76
101302.82
101249.67
101249.667
101249.665
101249.665
101249.665
101249.667
101249.671
101249.676
101249.682
101249.691
101249.701
101249.713
101249.728
101249.744
101249.763
101249.784
101249.807
101249.833
101249.861
101249.891
101249.923
101249.955
101249.992
101250.037
101250.081
101250.117
101250.158
101250.208
101250.258
101250.31
101250.363
101250.421
101250.482
101250.548
101250.621
101250.701
101250.791
101250.894
101251.013
101251.152
101251.315
101251.508
101251.738
101252.011
101252.336
101252.722
101253.177
101253.712
101254.336
101255.064
101255.905
101256.866
101257.957
101259.176
101260.544
101262.004
101263.632
101265.262
101266.548
101268.017
101269.813
101271.471
101273.056
101274.489
101276.04
101278.045
101280.05
101281.693
101283.242
101285.082
101287.254
101289.371
101291.176
101293.064
101295.546
101297.564
101299.45
101302.038
101305.07
101307.92
101249.47
101249.471
101249.472
101249.476
101249.481
101249.487
101249.496
101249.507
101249.519
101249.535
101249.552
101249.573
101249.596
101249.621
101249.649
101249.68
101249.714
101249.751
101249.789
101249.831
101249.881
101249.93
101249.975
101250.026
101250.084
101250.143
101250.204
101250.268
101250.336
101250.408
101250.484
101250.566
101250.656
101250.754
101250.863
101250.986
101251.125
101251.285
101251.47
101251.684
101251.935
101252.228
101252.571
101252.972
101253.438
101253.977
101254.597
101255.306
101256.108
101257.013
101258.009
101259.113
101260.302
101261.624
101263.138
101264.718
101266.233
101267.859
101269.553
101271.055
101272.58
101274.356
101276.117
101277.813
101279.45
101280.901
101282.381
101283.917
101285.734
101288.132
101290.876
101293.532
101295.674
101298.098
101300.197
101302.431
101305.693
101308.328
101309.951
101311.486
101249.079
101249.084
101249.091
101249.1
101249.111
101249.124
101249.14
101249.159
101249.18
101249.205
101249.233
101249.263
101249.297
101249.334
101249.374
101249.417
101249.464
101249.518
101249.572
101249.625
101249.685
101249.751
101249.819
101249.889
101249.963
101250.042
101250.124
101250.212
101250.305
101250.405
101250.514
101250.632
101250.763
101250.908
101251.072
101251.258
101251.47
101251.713
101251.993
101252.317
101252.689
101253.118
101253.609
101254.168
101254.801
101255.509
101256.296
101257.161
101258.086
101259.074
101260.069
101261.23
101262.865
101264.697
101266.295
101267.815
101269.504
101271.266
101273.041
101274.815
101276.538
101278.226
101279.973
101281.895
101283.85
101285.786
101287.859
101290.196
101292.55
101294.399
101295.964
101297.581
101300.087
101302.782
101305.073
101307.242
101308.899
101311.283
101313.828
101315.872
101248.437
101248.448
101248.462
101248.479
101248.498
101248.521
101248.546
101248.575
101248.608
101248.643
101248.683
101248.726
101248.773
101248.824
101248.881
101248.94
101249
101249.067
101249.139
101249.214
101249.293
101249.376
101249.463
101249.556
101249.653
101249.757
101249.867
101249.985
101250.113
101250.253
101250.406
101250.576
101250.766
101250.98
101251.223
101251.501
101251.818
101252.182
101252.599
101253.076
101253.621
101254.239
101254.937
101255.719
101256.591
101257.562
101258.635
101259.812
101261.081
101262.572
101264.456
101266.151
101267.5
101268.874
101270.379
101271.983
101273.61
101275.225
101276.894
101278.622
101280.324
101282.075
101283.954
101285.925
101287.762
101289.687
101291.832
101293.929
101295.712
101297.329
101299.323
101301.984
101304.042
101305.95
101308.4
101310.206
101312.288
101314.999
101316.836
101318.832
101247.479
101247.499
101247.522
101247.549
101247.578
101247.612
101247.649
101247.69
101247.734
101247.784
101247.837
101247.897
101247.959
101248.024
101248.096
101248.172
101248.252
101248.337
101248.427
101248.521
101248.62
101248.725
101248.836
101248.953
101249.078
101249.211
101249.355
101249.511
101249.682
101249.871
101250.081
101250.316
101250.581
101250.882
101251.224
101251.614
101252.058
101252.563
101253.137
101253.786
101254.516
101255.331
101256.235
101257.231
101258.324
101259.515
101260.802
101262.16
101263.626
101265.018
101266.419
101268.196
101269.858
101271.146
101272.539
101274.236
101276.118
101278.016
101279.689
101281.299
101283.039
101284.921
101286.81
101288.618
101290.414
101292.341
101294.222
101296.12
101298.603
101301.209
101303.655
101305.942
101308.374
101310.381
101312.157
101314.502
101317.011
101318.996
101321.044
101323.194
101246.141
101246.17
101246.206
101246.244
101246.286
101246.332
101246.383
101246.438
101246.498
101246.562
101246.631
101246.705
101246.784
101246.868
101246.957
101247.051
101247.15
101247.254
101247.364
101247.479
101247.601
101247.73
101247.867
101248.013
101248.17
101248.339
101248.524
101248.726
101248.949
101249.198
101249.477
101249.79
101250.145
101250.545
101250.999
101251.512
101252.09
101252.741
101253.468
101254.277
101255.172
101256.155
101257.225
101258.381
101259.62
101260.94
101262.34
101263.831
101265.384
101267.075
101268.689
101270.176
101271.696
101273.221
101274.595
101275.715
101277.239
101279.26
101281.4
101283.667
101285.944
101288.178
101290.411
101292.692
101294.888
101297.175
101299.768
101302.458
101304.431
101305.779
101307.331
101309.337
101311.46
101313.851
101316.454
101318.306
101320.326
101323.251
101326.073
101328.287
101244.369
101244.411
101244.46
101244.513
101244.569
101244.63
101244.696
101244.767
101244.844
101244.925
101245.012
101245.104
101245.201
101245.304
101245.413
101245.527
101245.648
101245.775
101245.909
101246.051
101246.201
101246.362
101246.534
101246.72
101246.921
101247.142
101247.384
101247.653
101247.952
101248.287
101248.662
101249.085
101249.559
101250.092
101250.689
101251.356
101252.097
101252.916
101253.817
101254.8
101255.868
101257.022
101258.255
101259.556
101260.897
101262.232
101263.58
101265.115
101266.899
101268.767
101270.718
101272.709
101274.772
101276.943
101279.321
101282.068
101284.324
101285.98
101287.699
101289.268
101290.877
101292.551
101294.391
101296.435
101298.242
101299.988
101302.083
101304.344
101306.103
101308.092
101310.664
101312.917
101314.627
101316.536
101319.106
101322.217
101324.536
101326.91
101329.392
101331.612
101242.129
101242.185
101242.251
101242.319
101242.392
101242.47
101242.554
101242.643
101242.738
101242.839
101242.946
101243.059
101243.178
101243.304
101243.437
101243.578
101243.727
101243.884
101244.052
101244.232
101244.425
101244.633
101244.86
101245.108
101245.38
101245.681
101246.015
101246.388
101246.804
101247.269
101247.788
101248.367
101249.011
101249.724
101250.509
101251.368
101252.3
101253.304
101254.376
101255.501
101256.677
101257.898
101259.359
101261.267
101263.445
101265.773
101268.215
101270.4
101272.174
101273.847
101275.675
101277.396
101279.05
101280.804
101282.636
101284.268
101285.734
101287.32
101288.895
101290.761
101293.209
101295.44
101297.481
101299.061
101300.753
101302.943
101304.959
101307.019
101309.27
101311.767
101314.215
101316.021
101317.654
101319.434
101321.494
101324.136
101326.654
101328.663
101331.009
101333.528
101239.392
101239.463
101239.546
101239.632
101239.722
101239.819
101239.921
101240.029
101240.144
101240.265
101240.394
101240.53
101240.673
101240.825
101240.987
101241.159
101241.342
101241.539
101241.752
101241.982
101242.233
101242.508
101242.812
101243.148
101243.521
101243.937
101244.402
101244.922
101245.503
101246.15
101246.871
101247.669
101248.55
101249.516
101250.569
101251.71
101252.938
101254.25
101255.637
101257.08
101258.744
101260.899
101263.198
101265.101
101266.683
101268.223
101269.796
101271.374
101273.112
101275.211
101277.269
101279.062
101280.906
101282.508
101283.868
101285.394
101287.406
101289.863
101292.43
101294.604
101296.04
101297.417
101299.333
101301.803
101304.734
101307.387
101309.048
101310.405
101312.234
101314.343
101316.504
101318.627
101320.93
101323.048
101325.295
101327.689
101329.967
101331.663
101332.901
101335.016
101236.159
101236.245
101236.347
101236.45
101236.557
101236.67
101236.79
101236.916
101237.048
101237.189
101237.337
101237.494
101237.661
101237.84
101238.03
101238.236
101238.458
101238.699
101238.963
101239.253
101239.574
101239.93
101240.327
101240.771
101241.267
101241.823
101242.445
101243.139
101243.911
101244.769
101245.715
101246.755
101247.891
101249.124
101250.454
101251.881
101253.402
101255.014
101256.709
101258.502
101260.292
101262.207
101264.022
101265.587
101267.113
101268.655
101270.229
101271.772
101273.381
101275.262
101277.485
101279.903
101281.907
101284.015
101286.848
101289.641
101292.41
101294.359
101295.803
101297.27
101299.405
101302.095
101303.915
101305.646
101307.291
101308.837
101311.096
101313.842
101316.179
101318.062
101319.988
101322.413
101325.24
101327.054
101328.527
101330.911
101333.675
101335.801
101337.552
101339.512
101232.478
101232.58
101232.698
101232.817
101232.939
101233.066
101233.2
101233.34
101233.487
101233.642
101233.807
101233.982
101234.169
101234.371
101234.589
101234.826
101235.086
101235.372
101235.689
101236.042
101236.436
101236.877
101237.371
101237.926
101238.546
101239.24
101240.014
101240.872
101241.819
101242.86
101243.996
101245.228
101246.556
101247.977
101249.488
101251.086
101252.765
101254.515
101256.331
101258.234
101260.27
101261.956
101263.476
101265.277
101267.306
101269.378
101271.412
101273.42
101275.658
101278.358
101280.653
101282.746
101285.197
101287.361
101289.431
101291.539
101293.494
101295.595
101298.057
101300.301
101302.211
101303.961
101306.114
101308.36
101310.421
101312.908
101314.806
101316.629
101318.87
101321.774
101324.891
101326.537
101328.124
101330.553
101333.098
101335.082
101337.055
101339.319
101341.462
101342.227
101300.636
101300.639
101300.644
101300.651
101300.659
101300.67
101300.682
101300.696
101300.712
101300.73
101300.75
101300.773
101300.797
101300.824
101300.853
101300.884
101300.918
101300.955
101300.994
101301.036
101301.08
101301.128
101301.179
101301.233
101301.29
101301.351
101301.415
101301.483
101301.556
101301.632
101301.713
101301.799
101301.889
101301.985
101302.086
101302.193
101302.305
101302.424
101302.55
101302.682
101302.822
101302.971
101303.13
101303.296
101303.471
101303.656
101303.851
101304.058
101304.275
101304.504
101304.745
101304.997
101305.262
101305.539
101305.826
101306.123
101306.429
101306.744
101307.068
101307.398
101307.731
101308.062
101308.387
101308.699
101308.991
101309.254
101309.472
101309.628
101309.749
101309.749
101309.417
101308.65
101307.998
101307.454
101306.605
101305.402
101304.03
101303.156
101302.962
101301.988
101297.267
101297.27
101297.274
101297.279
101297.287
101297.296
101297.307
101297.319
101297.334
101297.35
101297.368
101297.388
101297.41
101297.434
101297.46
101297.488
101297.519
101297.552
101297.587
101297.625
101297.666
101297.709
101297.755
101297.805
101297.857
101297.913
101297.972
101298.034
101298.101
101298.171
101298.246
101298.325
101298.409
101298.498
101298.592
101298.692
101298.797
101298.909
101299.029
101299.156
101299.29
101299.432
101299.582
101299.742
101299.911
101300.091
101300.281
101300.482
101300.694
101300.919
101301.156
101301.406
101301.669
101301.944
101302.231
101302.529
101302.835
101303.148
101303.467
101303.791
101304.115
101304.431
101304.732
101305.005
101305.232
101305.407
101305.532
101305.522
101305.187
101304.64
101304.194
101303.678
101302.826
101301.925
101301.081
101300.362
101299.766
101299.266
101298.492
101296.413
101293.673
101293.675
101293.678
101293.683
101293.689
101293.697
101293.706
101293.716
101293.728
101293.742
101293.757
101293.774
101293.792
101293.813
101293.835
101293.859
101293.885
101293.912
101293.942
101293.975
101294.009
101294.046
101294.085
101294.127
101294.171
101294.219
101294.269
101294.323
101294.379
101294.44
101294.504
101294.572
101294.645
101294.722
101294.803
101294.891
101294.984
101295.082
101295.187
101295.299
101295.418
101295.545
101295.679
101295.822
101295.975
101296.136
101296.308
101296.491
101296.685
101296.891
101297.108
101297.338
101297.58
101297.834
101298.098
101298.37
101298.647
101298.926
101299.2
101299.467
101299.722
101299.96
101300.17
101300.344
101300.45
101300.414
101300.142
101299.743
101299.338
101298.852
101298.124
101297.397
101296.666
101295.691
101294.297
101292.689
101291.109
101289.469
101287.649
101285.769
101289.897
101289.899
101289.902
101289.905
101289.91
101289.916
101289.923
101289.931
101289.94
101289.95
101289.961
101289.974
101289.988
101290.004
101290.02
101290.038
101290.058
101290.079
101290.101
101290.126
101290.152
101290.179
101290.209
101290.241
101290.274
101290.31
101290.349
101290.389
101290.433
101290.479
101290.528
101290.58
101290.636
101290.696
101290.759
101290.827
101290.9
101290.977
101291.06
101291.148
101291.242
101291.343
101291.45
101291.565
101291.687
101291.817
101291.956
101292.103
101292.26
101292.426
101292.603
101292.79
101292.989
101293.198
101293.418
101293.643
101293.871
101294.097
101294.311
101294.5
101294.65
101294.742
101294.748
101294.624
101294.361
101293.978
101293.498
101292.869
101292.085
101291.211
101290.233
101289.066
101287.834
101286.592
101285.206
101283.49
101281.52
101279.516
101277.659
101275.422
101285.983
101285.984
101285.986
101285.988
101285.991
101285.995
101286
101286.004
101286.01
101286.016
101286.023
101286.031
101286.04
101286.049
101286.059
101286.07
101286.081
101286.094
101286.107
101286.122
101286.137
101286.154
101286.171
101286.19
101286.21
101286.231
101286.254
101286.278
101286.304
101286.332
101286.361
101286.392
101286.426
101286.463
101286.502
101286.543
101286.588
101286.636
101286.688
101286.744
101286.804
101286.868
101286.937
101287.011
101287.091
101287.177
101287.27
101287.368
101287.471
101287.581
101287.697
101287.819
101287.944
101288.07
101288.198
101288.324
101288.444
101288.551
101288.637
101288.688
101288.684
101288.602
101288.417
101288.105
101287.63
101286.956
101286.11
101285.143
101284.077
101282.886
101281.601
101280.185
101278.581
101276.72
101274.564
101272.11
101269.515
101267.001
101264.453
101260.658
101281.998
101281.999
101282.001
101282.002
101282.003
101282.005
101282.006
101282.008
101282.01
101282.011
101282.013
101282.015
101282.017
101282.02
101282.022
101282.025
101282.027
101282.03
101282.033
101282.036
101282.039
101282.042
101282.045
101282.049
101282.052
101282.057
101282.061
101282.065
101282.07
101282.075
101282.081
101282.088
101282.095
101282.103
101282.112
101282.122
101282.133
101282.145
101282.158
101282.173
101282.189
101282.207
101282.227
101282.248
101282.272
101282.296
101282.32
101282.348
101282.378
101282.405
101282.432
101282.458
101282.481
101282.498
101282.504
101282.498
101282.47
101282.417
101282.331
101282.199
101282.004
101281.727
101281.34
101280.818
101280.145
101279.315
101278.302
101277.125
101275.781
101274.239
101272.433
101270.319
101267.884
101265.148
101262.055
101258.513
101254.602
101250.217
101245.604
101240.507
101278.011
101278.012
101278.013
101278.013
101278.012
101278.011
101278.01
101278.008
101278.005
101278.002
101277.999
101277.995
101277.99
101277.984
101277.978
101277.972
101277.964
101277.956
101277.947
101277.938
101277.927
101277.916
101277.904
101277.89
101277.876
101277.861
101277.844
101277.827
101277.809
101277.79
101277.77
101277.748
101277.726
101277.702
101277.678
101277.652
101277.624
101277.596
101277.566
101277.535
101277.502
101277.467
101277.431
101277.392
101277.349
101277.302
101277.253
101277.201
101277.147
101277.087
101277.017
101276.939
101276.851
101276.75
101276.634
101276.497
101276.332
101276.131
101275.885
101275.582
101275.203
101274.727
101274.123
101273.357
101272.401
101271.243
101269.881
101268.309
101266.506
101264.411
101261.93
101258.981
101255.622
101251.869
101247.442
101242.264
101236.533
101230.823
101224.594
101217.536
101274.107
101274.108
101274.108
101274.107
101274.105
101274.101
101274.097
101274.091
101274.084
101274.076
101274.067
101274.056
101274.044
101274.031
101274.016
101274
101273.983
101273.964
101273.943
101273.921
101273.896
101273.87
101273.841
101273.811
101273.778
101273.744
101273.707
101273.668
101273.626
101273.582
101273.535
101273.485
101273.432
101273.376
101273.317
101273.255
101273.188
101273.118
101273.044
101272.965
101272.882
101272.794
101272.699
101272.597
101272.488
101272.374
101272.253
101272.123
101271.984
101271.833
101271.669
101271.491
101271.293
101271.074
101270.829
101270.551
101270.236
101269.871
101269.442
101268.931
101268.316
101267.571
101266.666
101265.574
101264.267
101262.722
101260.931
101258.87
101256.491
101253.717
101250.484
101246.775
101242.811
101238.218
101232.56
101226.438
101220.074
101211.017
101198.906
101189.271
101270.365
101270.366
101270.365
101270.362
101270.358
101270.352
101270.345
101270.335
101270.324
101270.311
101270.296
101270.28
101270.261
101270.24
101270.217
101270.192
101270.165
101270.135
101270.102
101270.067
101270.029
101269.988
101269.945
101269.899
101269.849
101269.796
101269.739
101269.679
101269.615
101269.546
101269.474
101269.397
101269.315
101269.228
101269.136
101269.038
101268.935
101268.826
101268.709
101268.586
101268.455
101268.314
101268.163
101268.005
101267.838
101267.661
101267.471
101267.268
101267.05
101266.815
101266.561
101266.285
101265.984
101265.654
101265.288
101264.88
101264.422
101263.9
101263.296
101262.592
101261.766
101260.795
101259.648
101258.295
101256.701
101254.829
101252.632
101250.077
101247.091
101243.607
101239.714
101235.95
101231.563
101226.077
101219.671
101210.53
101197.891
101186.019
101176.13
101168.955
101266.865
101266.865
101266.863
101266.859
101266.853
101266.845
101266.834
101266.822
101266.807
101266.789
101266.769
101266.747
101266.722
101266.694
101266.664
101266.63
101266.594
101266.555
101266.512
101266.466
101266.417
101266.364
101266.307
101266.246
101266.181
101266.111
101266.037
101265.958
101265.874
101265.785
101265.689
101265.589
101265.481
101265.368
101265.247
101265.119
101264.984
101264.84
101264.687
101264.523
101264.349
101264.165
101263.97
101263.766
101263.548
101263.316
101263.068
101262.803
101262.518
101262.212
101261.882
101261.525
101261.136
101260.71
101260.241
101259.722
101259.139
101258.478
101257.721
101256.85
101255.841
101254.664
101253.285
101251.663
101249.751
101247.526
101245.181
101242.709
101239.953
101236.984
101233.714
101228.849
101222.026
101214.43
101206.165
101197.411
101188.678
101180.296
101172.379
101166.364
101263.672
101263.671
101263.668
101263.663
101263.655
101263.644
101263.631
101263.615
101263.597
101263.575
101263.551
101263.524
101263.493
101263.46
101263.423
101263.383
101263.34
101263.293
101263.242
101263.187
101263.128
101263.064
101262.996
101262.923
101262.846
101262.763
101262.675
101262.581
101262.482
101262.376
101262.263
101262.144
101262.017
101261.883
101261.74
101261.589
101261.428
101261.257
101261.076
101260.884
101260.682
101260.468
101260.243
101260.003
101259.749
101259.478
101259.19
101258.882
101258.553
101258.201
101257.822
101257.414
101256.972
101256.491
101255.967
101255.385
101254.733
101254
101253.177
101252.254
101251.227
101250.085
101248.821
101247.428
101245.902
101244.157
101241.863
101238.858
101235.332
101231.193
101226.268
101221.074
101215.814
101209.984
101203.559
101196.623
101189.275
101182.321
101176.429
101170.653
101260.836
101260.834
101260.83
101260.823
101260.813
101260.8
101260.784
101260.766
101260.744
101260.72
101260.692
101260.661
101260.626
101260.588
101260.547
101260.502
101260.453
101260.4
101260.343
101260.282
101260.216
101260.145
101260.07
101259.989
101259.903
101259.812
101259.714
101259.611
101259.501
101259.384
101259.261
101259.129
101258.989
101258.841
101258.685
101258.519
101258.343
101258.156
101257.96
101257.754
101257.536
101257.306
101257.062
101256.804
101256.531
101256.242
101255.935
101255.609
101255.264
101254.896
101254.505
101254.089
101253.644
101253.168
101252.647
101252.071
101251.45
101250.784
101250.035
101249.178
101248.19
101247.036
101245.688
101244.132
101242.342
101240.327
101238.081
101235.57
101232.74
101229.518
101225.853
101221.645
101217.035
101212.116
101206.707
101201.211
101195.954
101190.219
101184.231
101178.695
101258.39
101258.386
101258.38
101258.371
101258.359
101258.344
101258.327
101258.306
101258.282
101258.255
101258.224
101258.19
101258.153
101258.112
101258.068
101258.02
101257.968
101257.911
101257.851
101257.786
101257.716
101257.642
101257.562
101257.478
101257.388
101257.292
101257.191
101257.083
101256.967
101256.844
101256.714
101256.578
101256.434
101256.281
101256.118
101255.948
101255.768
101255.579
101255.38
101255.171
101254.949
101254.716
101254.47
101254.21
101253.936
101253.647
101253.342
101253.021
101252.68
101252.321
101251.94
101251.536
101251.094
101250.616
101250.112
101249.568
101248.98
101248.336
101247.627
101246.847
101245.98
101245.015
101243.936
101242.724
101241.356
101239.8
101238.032
101236.025
101233.737
101231.155
101228.283
101225.075
101221.355
101217.488
101213.452
101208.365
101202.725
101197.38
101192.113
101187.627
101256.334
101256.328
101256.32
101256.309
101256.295
101256.278
101256.259
101256.236
101256.21
101256.182
101256.15
101256.114
101256.076
101256.034
101255.988
101255.939
101255.886
101255.829
101255.768
101255.702
101255.633
101255.558
101255.477
101255.393
101255.302
101255.206
101255.103
101254.995
101254.882
101254.762
101254.635
101254.501
101254.359
101254.209
101254.052
101253.886
101253.712
101253.529
101253.336
101253.133
101252.92
101252.696
101252.461
101252.214
101251.955
101251.684
101251.399
101251.1
101250.786
101250.457
101250.112