/*--------------------------------*- C++ -*----------------------------------*\
  =========                 |
  \\      /  F ield         | OpenFOAM: The Open Source CFD Toolbox
   \\    /   O peration     | Website:  https://openfoam.org
    \\  /    A nd           | Version:  8
     \\/     M anipulation  |
\*---------------------------------------------------------------------------*/
FoamFile
{
    version     2.0;
    format      ascii;
    class       surfaceScalarField;
    location    "0.012";
    object      phi;
}
// * * * * * * * * * * * * * * * * * * * * * * * * * * * * * * * * * * * * * //

dimensions      [1 0 -1 0 0 0 0];

internalField   nonuniform List<scalar> 
84340
(
-4.11958709e-08
3.21175189e-07
-2.7983061e-07
-1.75529253e-07
9.85015277e-07
-8.50441502e-07
-4.16281378e-07
1.69364713e-06
-1.45259813e-06
-7.76007972e-07
2.45037526e-06
-2.09030295e-06
-1.26614587e-06
3.25810729e-06
-2.76758042e-06
-1.89691477e-06
4.1188156e-06
-3.48761747e-06
-2.67722753e-06
5.03329905e-06
-4.25251764e-06
-3.61475288e-06
6.00138534e-06
-5.06335116e-06
-4.71602593e-06
7.022192e-06
-5.92036807e-06
-5.98656308e-06
8.09437902e-06
-6.82324633e-06
-7.43095537e-06
9.2163576e-06
-7.77132191e-06
-9.05292608e-06
1.03864347e-05
-8.7637691e-06
-1.08553482e-05
1.16028988e-05
-9.79972642e-06
-1.28402205e-05
1.28640555e-05
-1.08783732e-05
-1.50085951e-05
1.41682143e-05
-1.19989656e-05
-1.73604811e-05
1.55136629e-05
-1.31608336e-05
-1.98946984e-05
1.68986095e-05
-1.43633749e-05
-2.26087144e-05
1.83211274e-05
-1.56060145e-05
-2.5498445e-05
1.97791011e-05
-1.68881888e-05
-2.85580313e-05
2.12701706e-05
-1.82093116e-05
-3.17795929e-05
2.27916842e-05
-1.95687528e-05
-3.51529533e-05
2.43406539e-05
-2.09658202e-05
-3.86653336e-05
2.59137052e-05
-2.23997417e-05
-4.23010235e-05
2.75070318e-05
-2.38696416e-05
-4.60410007e-05
2.91163237e-05
-2.53745224e-05
-4.98625079e-05
3.07366896e-05
-2.69132269e-05
-5.37385698e-05
3.23625332e-05
-2.84843772e-05
-5.76374082e-05
3.39873941e-05
-3.00863154e-05
-6.15218032e-05
3.56037817e-05
-3.17169929e-05
-6.53485537e-05
3.72031406e-05
-3.33738362e-05
-6.90680989e-05
3.87757839e-05
-3.50535182e-05
-7.26233079e-05
4.03097625e-05
-3.67516534e-05
-7.59473856e-05
4.17899371e-05
-3.84627656e-05
-7.89615708e-05
4.31980734e-05
-4.01806281e-05
-8.15800345e-05
4.45197144e-05
-4.18978476e-05
-8.37183792e-05
4.57436752e-05
-4.36017241e-05
-8.52801008e-05
4.68329179e-05
-4.52673642e-05
-8.61319085e-05
4.77399888e-05
-4.68841468e-05
-8.60835667e-05
4.84009683e-05
-4.84450772e-05
-8.49332797e-05
4.87688706e-05
-4.9914738e-05
-8.24743686e-05
4.87825521e-05
-5.12368339e-05
-7.84935899e-05
4.8363095e-05
-5.2339022e-05
-7.27416096e-05
4.74298813e-05
-5.31768129e-05
-6.49272944e-05
4.5872419e-05
-5.3681503e-05
-5.47421412e-05
4.35738357e-05
-5.37535822e-05
-4.18634859e-05
4.0401965e-05
-5.32750485e-05
-2.58812255e-05
3.61700808e-05
-5.21466224e-05
-6.4064128e-06
3.07548662e-05
-5.02238394e-05
1.68037782e-05
2.41432427e-05
-4.73474808e-05
4.44205531e-05
1.56803101e-05
-4.32910218e-05
7.71428422e-05
5.22466925e-06
-3.79408994e-05
0.000115708848
-7.58971556e-06
-3.09703044e-05
0.000160997077
-2.28501736e-05
-2.24319829e-05
0.00021401745
-4.16138212e-05
-1.14004118e-05
0.00027588188
-6.4095745e-05
2.23744764e-06
0.00034797275
-9.07226844e-05
1.86378993e-05
0.000431340289
-0.00012216633
3.88048698e-05
0.000527278968
-0.000159103936
6.31712994e-05
0.000637302705
-0.000202211543
9.21939125e-05
0.000763153543
-0.00025226337
0.000126418707
0.000906467864
-0.000309991428
0.000166683491
0.00106883128
-0.000376084566
0.000213727781
0.00125169245
-0.000451090781
0.00026823687
0.00145619674
-0.000535514051
0.000331017577
0.00168312696
-0.00062951314
0.000402591282
0.00193332325
-0.000733889361
0.000483701977
0.00220891362
-0.000850150071
0.000574569678
0.00250761592
-0.000971926443
0.000673235341
0.00282530655
-0.00110811593
0.000790438191
0.00318576712
-0.00128516605
0.000924720296
0.00358537839
-0.00142526069
0.00102566659
0.00395022639
-0.00155221831
0.0011873897
0.00433429934
-0.00182638494
0.00144233394
0.00488102975
-0.00205917381
0.00151246775
0.00540547273
-0.00212359804
0.00159918115
0.00571480653
-0.00235814068
0.00204883534
0.00603021615
-0.00272230014
0.00240691858
0.00650730455
-0.00290133346
0.00242427103
0.00705949654
-0.00296902857
0.00241686534
-0.00307751005
0.0027667048
0.007370323
-2.8781878e-08
3.50161939e-07
-1.24468554e-07
1.08099252e-06
-2.98111918e-07
1.86762513e-06
-5.60247289e-07
2.71288616e-06
-9.2049142e-07
3.61876564e-06
-1.38724296e-06
4.58601935e-06
-1.96760261e-06
5.6141495e-06
-2.66755893e-06
6.70187268e-06
-3.49193506e-06
7.84714168e-06
-4.44446951e-06
9.04753241e-06
-5.52788086e-06
1.03004365e-05
-6.7439019e-06
1.16031755e-05
-8.09327253e-06
1.29530453e-05
-9.57568802e-06
1.4347307e-05
-1.11897148e-05
1.57831416e-05
-1.29326512e-05
1.72575688e-05
-1.48003656e-05
1.87673672e-05
-1.67870947e-05
2.03089783e-05
-1.88852054e-05
2.18784176e-05
-2.10849315e-05
2.34711916e-05
-2.33740764e-05
2.50822185e-05
-2.57376769e-05
2.67057443e-05
-2.81576431e-05
2.83352672e-05
-3.06123207e-05
2.99634173e-05
-3.3075973e-05
3.15818019e-05
-3.55182193e-05
3.31808861e-05
-3.79034507e-05
3.47498445e-05
-4.01901816e-05
3.62763422e-05
-4.2329428e-05
3.77453894e-05
-4.42649262e-05
3.91411396e-05
-4.59339049e-05
4.04474059e-05
-4.72676642e-05
4.1646323e-05
-4.81970714e-05
4.2722304e-05
-4.86355798e-05
4.36397022e-05
-4.8468924e-05
4.4356347e-05
-4.7541172e-05
4.48193808e-05
-4.56858377e-05
4.4981209e-05
-4.27258454e-05
4.47838108e-05
-3.8476657e-05
4.41557847e-05
-3.27330165e-05
4.30294103e-05
-2.52567617e-05
4.1310649e-05
-1.57886587e-05
3.88995109e-05
-4.03505717e-06
3.56809608e-05
1.0350437e-05
3.14917574e-05
2.77207688e-05
2.6208487e-05
4.82777345e-05
1.98501281e-05
7.26667051e-05
1.17863109e-05
0.000101483682
1.94313947e-06
0.000135428835
-9.79650646e-06
0.000175297561
-2.41828696e-05
0.000222010432
-4.1482555e-05
0.000276513923
-6.20874753e-05
0.000340130942
-8.64613649e-05
0.000413741676
-0.000115218651
0.000498608575
-0.000148956627
0.000596235131
-0.000188343118
0.000708164435
-0.000234089343
0.000835976232
-0.000286909331
0.000981247748
-0.000347476455
0.00114553167
-0.000416540466
0.00132999344
-0.000494445916
0.00153561267
-0.000581696318
0.00176330965
-0.000678780253
0.00201392311
-0.00078612006
0.00228826515
-0.000903847399
0.0025858064
-0.0010314224
0.00290846206
-0.00117279665
0.00325872418
-0.00132217854
0.0036208308
-0.00147021117
0.00399699251
-0.00166131497
0.00442930937
-0.00185756307
0.00488102537
-0.00200391814
0.00525215753
-0.00219749911
0.00565375847
-0.0024607563
0.0061457683
-0.00261558927
0.00651531544
-0.00272766935
0.00668392656
-0.00289089154
0.00684119048
-0.00305857086
0.0070632966
-0.00319110648
-0.00331102634
0.00729683393
-1.85115314e-08
3.68882262e-07
-8.2058178e-08
1.14483516e-06
-1.9955548e-07
1.98546304e-06
-3.79338062e-07
2.8930506e-06
-6.28921537e-07
3.86876994e-06
-9.54640334e-07
4.91219731e-06
-1.36160559e-06
6.02161288e-06
-1.85350884e-06
7.19431455e-06
-2.43275347e-06
8.42696774e-06
-3.10074197e-06
9.71614803e-06
-3.85771148e-06
1.10580821e-05
-4.70274242e-06
1.2448935e-05
-5.63373385e-06
1.38848216e-05
-6.64733525e-06
1.53617537e-05
-7.7388351e-06
1.68755514e-05
-8.90201359e-06
1.84217265e-05
-1.01289495e-05
1.99953561e-05
-1.14098024e-05
2.1590963e-05
-1.27325525e-05
2.32023831e-05
-1.40826858e-05
2.48226296e-05
-1.5442788e-05
2.64437197e-05
-1.67920533e-05
2.80565089e-05
-1.8105752e-05
2.96505705e-05
-1.93546712e-05
3.12140524e-05
-2.05044179e-05
3.27333822e-05
-2.15157674e-05
3.41941949e-05
-2.2344435e-05
3.55805988e-05
-2.29419051e-05
3.68760234e-05
-2.32570235e-05
3.80628549e-05
-2.32246485e-05
3.91112611e-05
-2.27655133e-05
3.99909173e-05
-2.1783408e-05
4.06670191e-05
-2.01541949e-05
4.10960499e-05
-1.77411952e-05
4.12298245e-05
-1.43941135e-05
4.10125666e-05
-9.94874707e-06
4.03775017e-05
-4.22836527e-06
3.92644917e-05
2.96931129e-06
3.75899779e-05
1.18649781e-05
3.52641393e-05
2.27147208e-05
3.21838677e-05
3.58212787e-05
2.82084636e-05
5.15014525e-05
2.32238878e-05
6.99353586e-05
1.72517874e-05
9.17166684e-05
9.71528765e-06
0.000117375422
5.54662685e-07
0.000147534276
-1.03036e-05
0.000182912414
-2.358649e-05
0.000224336004
-3.9474953e-05
0.000272871155
-5.83259998e-05
0.000329311246
-8.06171518e-05
0.000394698865
-0.000106864199
0.000470244962
-0.000137627436
0.000557310297
-0.000173520365
0.000657302319
-0.000215204139
0.000771700464
-0.000263348038
0.000902044044
-0.000318679807
0.0010497872
-0.000381825376
0.00121628419
-0.000453398951
0.0014026869
-0.000533871384
0.00160980949
-0.000623655184
0.00183839418
-0.000723022971
0.00208887042
-0.00083216525
0.00236176212
-0.000951664726
0.00265702788
-0.00108137862
0.00297498685
-0.00122179892
0.00331287551
-0.00136930329
0.00366774829
-0.00152766108
0.00404477899
-0.00169920026
0.00443778595
-0.00186320819
0.00481908389
-0.00204260207
0.00520308735
-0.00224155493
0.00561172271
-0.00241254166
0.00595223561
-0.00253800004
0.00617792533
-0.00268643213
0.00638366874
-0.00282131516
0.00660701994
-0.00295100295
0.00678600739
-0.00306986086
0.00690499681
-0.00317753981
0.00700310743
-0.0032891941
-0.00339987589
0.00709198055
-1.32412452e-08
3.82346448e-07
-5.94031372e-08
1.19131394e-06
-1.45341969e-07
2.07176708e-06
-2.77245004e-07
3.02536326e-06
-4.60320195e-07
4.05229648e-06
-6.98631625e-07
5.15100091e-06
-9.94930781e-07
6.3184455e-06
-1.35045304e-06
7.55041323e-06
-1.76507212e-06
8.84220853e-06
-2.23707875e-06
1.01888244e-05
-2.76352247e-06
1.15852468e-05
-3.34027281e-06
1.30264611e-05
-3.96176382e-06
1.4507147e-05
-4.62090582e-06
1.60217927e-05
-5.30895451e-06
1.75645639e-05
-6.01532569e-06
1.91291328e-05
-6.72735271e-06
2.0708494e-05
-7.42994242e-06
2.22947443e-05
-8.10520344e-06
2.3878921e-05
-8.73213569e-06
2.54509291e-05
-9.28623577e-06
2.69992835e-05
-9.73963498e-06
2.85114744e-05
-1.00611742e-05
2.99737799e-05
-1.02162892e-05
3.13709468e-05
-1.01618348e-05
3.2680823e-05
-9.84802832e-06
3.38824049e-05
-9.21609525e-06
3.4950811e-05
-8.19569499e-06
3.58579037e-05
-6.70103235e-06
3.65706133e-05
-4.63769324e-06
3.70504889e-05
-1.89674402e-06
3.7252683e-05
1.64936189e-06
3.7123792e-05
6.14760569e-06
3.66008567e-05
1.17540636e-05
3.56265882e-05
1.86431325e-05
3.4126892e-05
2.70062554e-05
3.20179496e-05
3.70699954e-05
2.9204501e-05
4.91013327e-05
2.55625685e-05
6.33836508e-05
2.09859349e-05
8.00913442e-05
1.54804845e-05
9.97574236e-05
8.54682242e-06
0.000122860357
1.2550763e-07
0.00014995839
-9.84147456e-06
0.000181694703
-2.20160213e-05
0.000218804007
-3.65494501e-05
0.000262276137
-5.3770353e-05
0.000312807986
-7.41127792e-05
0.000371376824
-9.80380502e-05
0.000439110741
-0.000126053988
0.000517209455
-0.000158709742
0.000606964093
-0.000196612499
0.000709748995
-0.000240405824
0.000826987157
-0.000290751857
0.000960066343
-0.000348276512
0.00111034297
-0.000413617679
0.00127903823
-0.000487367864
0.00146716339
-0.000569943024
0.00167545994
-0.000661687974
0.0019044111
-0.000762815379
0.00215418655
-0.000873423884
0.0024246025
-0.000993432432
0.00271477342
-0.0011223299
0.00302367686
-0.00126056194
0.0033491766
-0.00140687215
0.00368964217
-0.00156225814
0.00404132882
-0.00172098339
0.00439738819
-0.00188371356
0.00475332259
-0.00205512737
0.00511062061
-0.0022204989
0.00543286436
-0.00236483859
0.00568896636
-0.00249764843
0.00589786431
-0.00262143005
0.00609441868
-0.00273454461
0.00625555315
-0.00284755619
0.00638885117
-0.00295460088
0.00650644554
-0.0030685799
0.00661711791
-0.00318051748
0.00671538191
-0.00327578936
0.0068026022
-0.00337639235
-0.00348228209
0.00688502778
-1.32299647e-08
3.95802279e-07
-5.77212017e-08
1.23612556e-06
-1.38429562e-07
2.1528441e-06
-2.59411704e-07
3.14675854e-06
-4.23541903e-07
4.2168817e-06
-6.32275416e-07
5.36023037e-06
-8.8550978e-07
6.57221723e-06
-1.18170274e-06
7.84718678e-06
-1.51772217e-06
9.17885438e-06
-1.8886515e-06
1.05604291e-05
-2.28788518e-06
1.19852081e-05
-2.70690088e-06
1.34462604e-05
-3.13582865e-06
1.49369182e-05
-3.56285827e-06
1.64497299e-05
-3.9740152e-06
1.7976697e-05
-4.35294681e-06
1.95091136e-05
-4.68073992e-06
2.10374149e-05
-4.93564561e-06
2.25508619e-05
-5.09257654e-06
2.40371504e-05
-5.12241387e-06
2.54821565e-05
-4.99106301e-06
2.68694217e-05
-4.65908301e-06
2.81810878e-05
-4.08025421e-06
2.93966543e-05
-3.20043653e-06
3.04929485e-05
-1.96096398e-06
3.14432929e-05
-2.92305513e-07
3.22158175e-05
1.88704357e-06
3.27736662e-05
4.67344206e-06
3.30738563e-05
8.18062442e-06
3.30659369e-05
1.25315027e-05
3.27022736e-05
1.78644306e-05
3.19225807e-05
2.43344044e-05
3.06568136e-05
3.21123097e-05
2.88261212e-05
4.14010497e-05
2.63411991e-05
5.24407102e-05
2.30907643e-05
6.54877171e-05
1.89746706e-05
8.07190122e-05
1.39771384e-05
9.86042179e-05
7.68144773e-06
0.000119574144
2.02342846e-08
0.000144127004
-9.06791345e-06
0.000172838428
-2.01598917e-05
0.000206367904
-3.33990412e-05
0.000245615013
-4.90834438e-05
0.000291207212
-6.76028649e-05
0.000344031204
-8.93678725e-05
0.000405098818
-0.000114832181
0.000475488708
-0.000144496662
0.000556372718
-0.000178915817
0.000648998551
-0.000218673376
0.000754653011
-0.000264357596
0.000874647847
-0.000316600583
0.00101027541
-0.0003760265
0.0011627607
-0.000443230117
0.0013332331
-0.000518741693
0.00152250767
-0.000602884795
0.00173105183
-0.000695904589
0.00195894257
-0.000797826746
0.00220584386
-0.000908582697
0.00247107278
-0.00102803809
0.00275350091
-0.00115584609
0.00305130849
-0.00129123425
0.00336145335
-0.00143246913
0.00368072273
-0.00157982572
0.00400429696
-0.00173044075
0.00432784159
-0.0018857971
0.0046467919
-0.00203992808
0.00494976959
-0.0021866858
0.0052139892
-0.00231934147
0.00543415986
-0.00244066354
0.00561474378
-0.0025454155
0.00576858706
-0.00265148501
0.00589749299
-0.00275032979
0.00601592759
-0.00285297223
0.00612419154
-0.00295581326
0.00622299466
-0.00305339616
0.00630496847
-0.00315054373
0.00638134628
-0.00325688489
0.00647106209
-0.00336549476
0.00656944964
-0.00347476914
-0.00357529649
0.00666247416
-1.676091e-08
4.12815293e-07
-7.01053446e-08
1.28982794e-06
-1.6307869e-07
2.24622955e-06
-2.97479165e-07
3.28162082e-06
-4.73615013e-07
4.39352596e-06
-6.90083943e-07
5.57725307e-06
-9.43649705e-07
6.82638247e-06
-1.22918135e-06
8.13336512e-06
-1.53963588e-06
9.49000528e-06
-1.86620513e-06
1.08877476e-05
-2.19783686e-06
1.23176461e-05
-2.52124559e-06
1.37705362e-05
-2.82060962e-06
1.52372138e-05
-3.07754515e-06
1.67076662e-05
-3.27109142e-06
1.81713177e-05
-3.37711757e-06
1.96162906e-05
-3.36767935e-06
2.10292106e-05
-3.2102969e-06
2.23948038e-05
-2.86849949e-06
2.36967694e-05
-2.30086941e-06
2.49160398e-05
-1.46005505e-06
2.60302244e-05
-2.90552549e-07
2.70133118e-05
1.2727857e-06
2.78351626e-05
3.30678553e-06
2.84609233e-05
5.89640815e-06
2.88557757e-05
9.13796478e-06
2.89765045e-05
1.31402921e-05
2.87737282e-05
1.80259529e-05
2.81907382e-05
2.39323989e-05
2.71621938e-05
3.10234889e-05
2.56140544e-05
3.94865398e-05
2.34625753e-05
4.95396891e-05
2.06068905e-05
6.14170988e-05
1.69521305e-05
7.52979041e-05
1.24640198e-05
9.15911454e-05
6.8013144e-06
0.000110683507
-1.137364e-07
0.000133019026
-8.35418654e-06
0.000159111474
-1.84065464e-05
0.000189551521
-3.0415125e-05
0.000225137824
-4.46492888e-05
0.000266436514
-6.14534158e-05
0.000314238723
-8.11958365e-05
0.000369446974
-0.000104286037
0.000433027275
-0.000131177254
0.000506020369
-0.000162354794
0.000589542527
-0.000198347929
0.000684763845
-0.000239711384
0.000792884854
-0.00028703006
0.000915118638
-0.000340900253
0.00105266953
-0.000401901452
0.00120663595
-0.000470559862
0.00137792517
-0.000547308437
0.0015671005
-0.00063239799
0.00177429742
-0.000725931224
0.00199922369
-0.000827804132
0.00224115646
-0.000937830944
0.00249888797
-0.00105555229
0.00277068448
-0.00118037358
0.00305385808
-0.00131120633
0.00334544554
-0.00144742837
0.00364165452
-0.00158743816
0.0039382287
-0.00172903831
0.00423119774
-0.00187278976
0.00451273074
-0.00201196892
0.00476957343
-0.00214263538
0.00499286431
-0.00226321431
0.00517675656
-0.00237057225
0.00532473048
-0.00246731027
0.00544790488
-0.00256383389
0.00555881558
-0.00265632074
0.005661148
-0.0027538126
0.00575704625
-0.00284622447
0.00584609563
-0.00294201759
0.00592465442
-0.00303436741
0.00600275126
-0.00313148827
0.00608417983
-0.00323196852
0.00616566874
-0.00333836942
0.0062529445
-0.00345276397
0.00635257622
-0.00357439462
-0.0036796663
0.00645695109
-2.1691085e-08
4.34753059e-07
-8.75810782e-08
1.35606759e-06
-1.98448178e-07
2.35749878e-06
-3.53433365e-07
3.43705647e-06
-5.49770908e-07
4.59035946e-06
-7.82576092e-07
5.81059872e-06
-1.04470888e-06
7.08910081e-06
-1.32667707e-06
8.41596576e-06
-1.61654934e-06
9.78055942e-06
-1.89986161e-06
1.11717944e-05
-2.15964933e-06
1.25782252e-05
-2.37626253e-06
1.39880019e-05
-2.52641396e-06
1.53882837e-05
-2.58344958e-06
1.67656916e-05
-2.51696454e-06
1.81058976e-05
-2.29210913e-06
1.93925787e-05
-1.86927002e-06
2.06076003e-05
-1.20288127e-06
2.17297366e-05
-2.40229362e-07
2.27355365e-05
1.07891085e-06
2.35984217e-05
2.82287753e-06
2.42878894e-05
5.06886153e-06
2.4769077e-05
7.90391739e-06
2.50019804e-05
1.14258062e-05
2.49410397e-05
1.57496432e-05
2.45340827e-05
2.10073079e-05
2.37211305e-05
2.7349746e-05
2.24337348e-05
3.49501384e-05
2.05929536e-05
4.4008834e-05
1.81062749e-05
5.47432302e-05
1.48826176e-05
6.73279773e-05
1.08809828e-05
8.21183647e-05
5.81982712e-06
9.94600797e-05
-3.86091611e-07
0.000119752701
-7.82487579e-06
0.000143452851
-1.68948602e-05
0.000171083362
-2.77400328e-05
0.000203339079
-4.0605446e-05
0.00024073566
-5.57984146e-05
0.000283973715
-7.36482072e-05
0.000333847771
-9.45181028e-05
0.000391210485
-0.000118810613
0.00045698735
-0.00014696689
0.000532170934
-0.000179463534
0.000617805438
-0.000216805419
0.000714985979
-0.000259528772
0.000824824988
-0.000308180162
0.000948422988
-0.000363302424
0.00108681303
-0.00042541297
0.00124089333
-0.000494973286
0.00141133516
-0.000572335847
0.00159847844
-0.000657695527
0.00180217383
-0.00075099621
0.00202179805
-0.000852015009
0.0022562472
-0.000960373728
0.0025039298
-0.00107548058
0.00276275056
-0.00119664596
0.00302970665
-0.00132250296
0.00330166636
-0.00145232813
0.00357405369
-0.00158358867
0.00384392445
-0.0017172942
0.00410540675
-0.00184891569
0.00435200457
-0.0019756317
0.00457180777
-0.00209258889
0.00475981833
-0.00219997532
0.00491368632
-0.00229649802
0.0050370936
-0.00238661646
0.00514441301
-0.00247788764
0.00524300085
-0.00256589354
0.00533426024
-0.00265508948
0.00542019327
-0.00274225065
0.00549922125
-0.00283283775
0.00557436973
-0.00292137032
0.00564723839
-0.00301488393
0.0057201578
-0.00310728526
0.00579166557
-0.00320299492
0.00587107873
-0.00331138054
0.00595294318
-0.0034202325
0.00603148036
-0.00353129947
0.00611242212
-0.00365533525
-0.00377020952
0.00620296668
-2.4567733e-08
4.59598643e-07
-9.68086652e-08
1.42870169e-06
-2.14797459e-07
2.47593921e-06
-3.74363525e-07
3.5971279e-06
-5.68873767e-07
4.7854255e-06
-7.8904123e-07
6.03137113e-06
-1.02279321e-06
7.3235073e-06
-1.25516399e-06
8.64904235e-06
-1.46816093e-06
9.99431598e-06
-1.64057179e-06
1.1345022e-05
-1.74765506e-06
1.26861867e-05
-1.76077962e-06
1.40020705e-05
-1.64752218e-06
1.52760412e-05
-1.37043541e-06
1.64896958e-05
-8.86339885e-07
1.7622973e-05
-1.46169858e-07
1.86536653e-05
9.05989592e-07
1.95567888e-05
2.33321128e-06
2.03039599e-05
4.20754203e-06
2.08627537e-05
6.61112625e-06
2.1196496e-05
9.63761515e-06
2.12631765e-05
1.33936114e-05
2.10149813e-05
1.80007155e-05
2.03969089e-05
2.35977849e-05
1.93461431e-05
3.03432504e-05
1.77909385e-05
3.84217928e-05
1.56450657e-05
4.80358393e-05
1.28223342e-05
5.93591882e-05
9.27243209e-06
7.26848465e-05
4.78360885e-06
8.83364455e-05
-7.65819134e-07
0.000106668347
-7.44753632e-06
0.000128081773
-1.55899764e-05
0.000153038697
-2.53391601e-05
0.000182140241
-3.69223182e-05
0.000215856613
-5.06068739e-05
0.000254804696
-6.66834879e-05
0.000299681888
-8.54777312e-05
0.000351238401
-0.000107349725
0.000410289123
-0.000132693416
0.000477713689
-0.000161936841
0.000554443335
-0.000195534137
0.000641447354
-0.000233964502
0.000739714038
-0.000277723543
0.000850224585
-0.000327309028
0.000973907507
-0.000383204518
0.00111159186
-0.000445857111
0.00126394595
-0.000515648916
0.00143140125
-0.00059286047
0.00161406509
-0.000677629099
0.0018115568
-0.000769819373
0.00202300865
-0.000869139492
0.00224705028
-0.000975030513
0.00248182603
-0.00108678396
0.00272492901
-0.00120347037
0.00297326058
-0.00132380622
0.00322331855
-0.00144669831
0.00347088032
-0.00157005938
0.0037124272
-0.00169386981
0.00394303316
-0.00181418972
0.00415319102
-0.00192744766
0.00433514054
-0.00203086124
0.00448748332
-0.00212796989
0.00461172256
-0.00221682238
0.00471810314
-0.00230635048
0.00481580651
-0.00239419725
0.0049055073
-0.00247631326
0.00498681299
-0.00255918915
0.00506340254
-0.00264247868
0.00513386629
-0.00272554981
0.00520255685
-0.00281093848
0.0052682128
-0.00289849113
0.00533330914
-0.00298646423
0.00539699725
-0.00307857044
0.00546681858
-0.00317710604
0.00553717395
-0.00327335057
0.00560551091
-0.00337971848
0.00567844526
-0.00349316818
0.00575434659
-0.00360720224
0.00582283482
-0.00372382564
-0.00384639583
0.00589901973
-2.32467274e-08
4.83109109e-07
-8.85650131e-08
1.49439276e-06
-1.90451534e-07
2.57825373e-06
-3.20526712e-07
3.72768204e-06
-4.6731287e-07
4.93273872e-06
-6.16037907e-07
6.18067029e-06
-7.48445517e-07
7.45653674e-06
-8.42592553e-07
8.74386127e-06
-8.72606685e-07
1.00250549e-05
-8.08452616e-07
1.12816489e-05
-6.15424535e-07
1.24940005e-05
-2.53589181e-07
1.36411426e-05
3.22770037e-07
1.47006593e-05
1.16548826e-06
1.564803e-05
2.33349794e-06
1.64560961e-05
3.89386173e-06
1.709452e-05
5.92302008e-06
1.75289405e-05
8.5076186e-06
1.77207703e-05
1.17460676e-05
1.76258194e-05
1.57501124e-05
1.71940782e-05
2.06468661e-05
1.63681696e-05
2.65810665e-05
1.50826552e-05
3.3720542e-05
1.32594427e-05
4.22503397e-05
1.08185005e-05
5.23402981e-05
7.70329296e-06
6.42447647e-05
3.74306225e-06
7.82548437e-05
-1.18513207e-06
9.4680561e-05
-7.15048547e-06
0.000113876295
-1.44091131e-05
0.000136248345
-2.31346434e-05
0.000162318465
-3.35142105e-05
0.000192514113
-4.57819446e-05
0.000227378566
-6.01996876e-05
0.000267517692
-7.7057258e-05
0.00031359015
-9.66748728e-05
0.000366313484
-0.000119402069
0.000426459912
-0.000145619103
0.000494847059
-0.000175731515
0.000572326549
-0.000210167258
0.000659767127
-0.000249371474
0.000758033561
-0.000293794339
0.000867953486
-0.000343877906
0.000990275534
-0.000400038796
0.00112562028
-0.00046264671
0.00127442127
-0.000531998195
0.00143685609
-0.000608284381
0.00161276362
-0.000691548629
0.00180154807
-0.000781636794
0.00200209347
-0.000878166419
0.00221279797
-0.00098051622
0.00243157976
-0.00108791412
0.00265594564
-0.00119938963
0.00288284701
-0.00131367898
0.00310868946
-0.00142930679
0.00332946819
-0.00154457921
0.00354083169
-0.00165805624
0.00373927343
-0.0017684959
0.00391829554
-0.00187288713
0.00407268364
-0.00196857297
0.00420035593
-0.0020551149
0.00430817521
-0.00213867537
0.00440184855
-0.00222163879
0.00448683491
-0.00230180484
0.0045603882
-0.00237989906
0.00462447519
-0.00245827969
0.00468634308
-0.00253817703
0.0047464564
-0.00261929766
0.00480502636
-0.00270104417
0.00486227975
-0.00278279947
0.00491914349
-0.00286779798
0.00498040159
-0.00295974549
0.00504628926
-0.00305234936
0.00511015439
-0.00314243422
0.00517207442
-0.00323902586
0.00524261176
-0.00334388921
0.00530948988
-0.00344659888
0.0053745885
-0.0035582696
0.00544863719
-0.00368125458
0.00552541122
-0.00380060475
-0.0039192901
0.00559830185
-1.64340886e-08
4.99830616e-07
-5.76585206e-08
1.53602201e-06
-1.13377317e-07
2.63443619e-06
-1.69635595e-07
3.7844584e-06
-2.0858813e-07
4.97226067e-06
-2.08256897e-07
6.18095852e-06
-1.42266787e-07
7.39121674e-06
2.0451913e-08
8.58186564e-06
3.16057547e-07
9.73022824e-06
7.86228909e-07
1.08123157e-05
1.47856951e-06
1.18025614e-05
2.4471976e-06
1.2673484e-05
3.75368838e-06
1.33952108e-05
5.46792662e-06
1.39349113e-05
7.66937445e-06
1.42558505e-05
1.0447939e-05
1.43172474e-05
1.39056271e-05
1.40726404e-05
1.8158067e-05
1.34698207e-05
2.33366695e-05
1.24488164e-05
2.95912332e-05
1.094123e-05
3.70885092e-05
8.87273477e-06
4.59877071e-05
6.18543541e-06
5.65227189e-05
2.72654198e-06
6.89422898e-05
-1.5988256e-06
8.35225899e-05
-6.87460029e-06
0.000100574403
-1.33061589e-05
0.00012045214
-2.10600882e-05
0.000143603774
-3.02991396e-05
0.000170431642
-4.12337911e-05
0.000201396109
-5.40956953e-05
0.000237027119
-6.91415676e-05
0.000277903926
-8.66548436e-05
0.000324653267
-0.000106944851
0.000377949318
-0.000130348839
0.000438506548
-0.000157227343
0.000507070751
-0.000187961218
0.00058440577
-0.000222948772
0.000671275439
-0.00026259553
0.000768417733
-0.000307303593
0.000876510033
-0.000357457507
0.0009961289
-0.000413406636
0.00112770203
-0.000475444163
0.00127145287
-0.000543782467
0.00142733883
-0.000618525227
0.00159498296
-0.000699634578
0.00177359434
-0.000786887658
0.00196186407
-0.000879810029
0.00215797502
-0.00097773956
0.00235962279
-0.0010798064
0.00256418801
-0.00118507399
0.0027685725
-0.00129229151
0.00296945042
-0.00140026073
0.0031631208
-0.00150734281
0.00334599563
-0.00161217531
0.00351447076
-0.00171304829
0.00366544203
-0.00180902173
0.00379534028
-0.00189838847
0.00390299752
-0.00198053808
0.00399342323
-0.002058993
0.00407436067
-0.00213604768
0.0041474927
-0.00221180286
0.0042134515
-0.00228759242
0.00427553293
-0.00236388013
0.00433500623
-0.00243936609
0.00439155842
-0.00251482565
0.00444408728
-0.00259069958
0.00449441523
-0.00266961927
0.00454421733
-0.00275083919
0.0045957465
-0.00283432269
0.00464962126
-0.00292166824
0.00470572919
-0.00301584893
0.00476785038
-0.00311446698
0.00483469759
-0.00320927981
0.00490013271
-0.00330446068
0.00497014505
-0.00341390252
0.00504059887
-0.00351705505
0.00511060476
-0.00362827878
0.00518137037
-0.00375202409
0.00526071511
-0.00387995396
-0.00399166351
0.00533308426
-3.33393113e-09
5.0343328e-07
-4.73170888e-10
1.53354008e-06
2.52647235e-08
2.60913253e-06
9.51366689e-08
3.71507206e-06
2.35242387e-07
4.8326892e-06
4.76834813e-07
5.93994805e-06
8.56612563e-07
7.01206946e-06
1.41708818e-06
8.02207103e-06
2.20702389e-06
8.94102702e-06
3.28210428e-06
9.73802692e-06
4.70564496e-06
1.03798736e-05
6.5494227e-06
1.08306243e-05
8.89494604e-06
1.10506754e-05
1.18343654e-05
1.0996556e-05
1.54720055e-05
1.06193564e-05
1.99257053e-05
9.8647809e-06
2.53284267e-05
8.67124565e-06
3.18293398e-05
6.97033535e-06
3.95784949e-05
4.70119856e-06
4.87838532e-05
1.73751781e-06
5.96615604e-05
-2.00321295e-06
7.24544969e-05
-6.60560744e-06
8.74350533e-05
-1.22519739e-05
0.000104912374
-1.90739543e-05
0.000125269471
-2.72293417e-05
0.000148868431
-3.69025909e-05
0.00017610919
-4.82981347e-05
0.000207455503
-6.16425424e-05
0.000243410966
-7.71861329e-05
0.000284521092
-9.52024744e-05
0.000331372411
-0.000115989297
0.00038458765
-0.00013986624
0.000444818476
-0.000167171582
0.000512734935
-0.000198260941
0.0005890112
-0.000233498982
0.000674305808
-0.000273250921
0.000769233528
-0.000317871306
0.000874333199
-0.000367689727
0.000990029038
-0.00042299367
0.00111658589
-0.000484008302
0.0012540593
-0.000550873708
0.00140224183
-0.000623620068
0.00156060799
-0.00070214173
0.00172826054
-0.000786170558
0.00190387326
-0.000875239731
0.0020856018
-0.000968608474
0.00227113445
-0.00106533514
0.00245780849
-0.00116440631
0.00264263476
-0.00126462563
0.00282253292
-0.00136496529
0.00299412998
-0.0014638819
0.0031549961
-0.00156112029
0.00330186498
-0.00165420543
0.00343203439
-0.00174233878
0.00354391814
-0.00182492612
0.00363816838
-0.00190326591
0.00371696677
-0.00197718167
0.00378517791
-0.00204874432
0.00384716481
-0.00212097443
0.0039054165
-0.00219429396
0.0039603127
-0.00226669365
0.00401194001
-0.00233921396
0.00406115427
-0.00241308805
0.00410959985
-0.00248780548
0.00415961235
-0.00256483261
0.0042111023
-0.00264218382
0.00426379128
-0.00272230242
0.00431774555
-0.00280478798
0.0043726739
-0.00288924585
0.00442900648
-0.00297799567
0.00448527802
-0.0030721155
0.00454330961
-0.0031724944
0.00460111856
-0.00326708664
0.00466269596
-0.00336603677
0.00472023599
-0.00347144287
0.00478210275
-0.00357892326
0.00483984643
-0.00368602529
0.00488888315
-0.00380106575
0.00494546462
-0.00393654138
-0.00406364862
0.00501744554
1.69018038e-08
4.86810863e-07
8.64585098e-08
1.46437651e-06
2.33504418e-07
2.46253676e-06
4.88433459e-07
3.46064589e-06
8.8750278e-07
4.43417263e-06
1.47321459e-06
5.35483791e-06
2.29473388e-06
6.19120153e-06
3.40841149e-06
6.90909651e-06
4.87844474e-06
7.47175158e-06
6.77765862e-06
7.83962869e-06
9.18862971e-06
7.96978001e-06
1.22044579e-05
7.81574088e-06
1.59300884e-05
7.3260624e-06
2.04837931e-05
6.44394596e-06
2.59986178e-05
5.10571016e-06
3.26133989e-05
3.25126908e-06
4.05077484e-05
7.78257254e-07
4.98716341e-05
-2.39209197e-06
6.09176855e-05
-6.34328125e-06
7.38850177e-05
-1.12281206e-05
8.90426705e-05
-1.71590444e-05
0.000106719018
-2.42799966e-05
0.000127223576
-3.27544255e-05
0.000150914774
-4.27628893e-05
0.000178192618
-5.45047536e-05
0.000209492924
-6.82002829e-05
0.000245288105
-8.4090508e-05
0.000286086085
-0.000102437504
0.000332426893
-0.000123523701
0.000384877003
-0.000147649118
0.000444021297
-0.000175129888
0.000510451813
-0.000206292808
0.000584752872
-0.000241468439
0.000667478676
-0.000280982279
0.000759127903
-0.000325143472
0.00086011299
-0.000374230993
0.000970724264
-0.000428477283
0.0010910897
-0.000488049581
0.00122113103
-0.000553029135
0.00136051856
-0.000623389676
0.00150862686
-0.000698975576
0.00166449564
-0.000779482132
0.00182680066
-0.000864439708
0.00199383923
-0.000953201727
0.00216350132
-0.0010448943
0.00233335082
-0.00113845059
0.00250077835
-0.00123275547
0.00266306762
-0.00132668853
0.00281745141
-0.00141900249
0.00296178445
-0.0015092914
0.00309335326
-0.00159544396
0.00320927321
-0.00167703406
0.00330808193
-0.00175300815
0.00339192161
-0.00182617223
0.00346418338
-0.00189718253
0.00352756794
-0.00196664552
0.00358613437
-0.00203574263