/*--------------------------------*- C++ -*----------------------------------*\
  =========                 |
  \\      /  F ield         | OpenFOAM: The Open Source CFD Toolbox
   \\    /   O peration     | Website:  https://openfoam.org
    \\  /    A nd           | Version:  8
     \\/     M anipulation  |
\*---------------------------------------------------------------------------*/
FoamFile
{
    version     2.0;
    format      ascii;
    class       volScalarField;
    location    "0.012";
    object      T;
}
// * * * * * * * * * * * * * * * * * * * * * * * * * * * * * * * * * * * * * //

dimensions      [0 0 0 1 0 0 0];

internalField   nonuniform List<scalar> 
42400
(
472.099063
470.277466
468.408425
466.491148
464.524912
462.509086
460.443157
458.326754
456.159679
453.941938
451.673773
449.355699
446.988543
444.573483
442.112091
439.606379
437.058839
434.472492
431.85093
429.198359
426.519634
423.820295
421.10659
418.385492
415.6647
412.952634
410.258407
407.591787
404.963133
402.383314
399.863616
397.415619
395.051065
392.781707
390.619146
388.574674
386.659125
384.882718
383.254909
381.784214
380.478084
379.342799
378.383393
377.603655
377.00609
376.591873
376.360774
376.311824
376.440774
376.743179
377.211633
377.836072
378.602786
379.495761
380.492868
381.565313
382.671001
383.765456
384.824821
385.881301
386.523702
386.683794
386.373718
385.65893
384.668456
383.325122
381.521126
379.170065
376.209794
372.611703
368.637063
363.945756
358.409932
353.128413
347.493105
340.657646
333.697252
328.575794
322.233646
317.426585
472.139956
470.401042
468.616858
466.786667
464.909805
462.985702
461.013909
458.994122
456.926214
454.810265
452.646595
450.435803
448.178803
445.876862
443.531651
441.145279
438.720347
436.259986
433.767908
431.248442
428.70658
426.148003
423.579114
421.007053
418.439705
415.885692
413.354351
410.855697
408.400367
405.999536
403.664825
401.40818
399.241746
397.177736
395.228266
393.405179
391.719839
390.182914
388.804145
387.592121
386.554103
385.695839
385.021371
384.532873
384.230341
384.111436
384.17159
384.404459
384.796987
385.334982
385.999015
386.764336
387.598143
388.459703
389.318674
390.172719
390.811135
391.080671
390.964422
390.263459
389.34886
388.131268
386.536003
384.421524
381.735155
378.476066
374.644392
370.293896
365.434135
359.99995
354.405361
348.604856
342.193541
335.842136
330.038017
323.984649
318.115827
312.560149
308.109125
303.901256
472.191238
470.556018
468.87826
467.157306
465.392572
463.583579
461.729971
459.831547
457.888287
455.900388
453.868292
451.792728
449.674747
447.515761
445.317588
443.082495
440.813243
438.51313
436.186037
433.836468
431.469589
429.091262
426.70807
424.327334
421.957116
419.606214
417.284133
415.001047
412.767738
410.595529
408.496177
406.481748
404.564471
402.756549
401.069942
399.516109
398.105724
396.848412
395.752449
394.824447
394.069055
393.488541
393.082484
392.847897
392.777778
392.859702
393.085394
393.430103
393.866123
394.359933
394.878389
395.399327
395.857966
396.033473
395.90303
395.308885
394.418907
393.274405
391.80241
389.913215
387.486248
384.495576
380.930779
376.824131
372.209101
367.142507
361.66819
355.882191
349.906104
343.665864
337.422192
331.42289
325.518624
319.796175
314.539135
310.025995
305.861339
302.48419
300.381247
299.945045
472.249821
470.733059
469.176887
467.580742
465.944145
464.266728
462.548261
460.788677
458.988103
457.146895
455.265666
453.345325
451.387115
449.392652
447.363964
445.303538
443.214356
441.099947
438.964418
436.812497
434.649569
432.481696
430.315644
428.158887
426.019613
423.906695
421.829664
419.798646
417.824282
415.917619
414.089965
412.352706
410.717091
409.193963
407.793473
406.524758
405.395584
404.41197
403.57774
402.894126
402.359695
401.96909
401.712735
401.576936
401.540645
401.579461
401.67453
401.800777
401.88689
401.809606
401.492237
400.866969
399.912624
398.755534
397.32765
395.556155
393.330933
390.592717
387.316046
383.495993
379.15121
374.337273
369.099937
363.503817
357.61659
351.543501
345.35144
339.132612
333.052977
327.162081
321.546564
316.355009
311.762036
307.759007
304.378404
301.636498
300.230956
299.958563
299.896108
299.876142
472.31228
470.921816
469.495291
468.032251
466.532342
464.995332
463.42114
461.809863
460.161805
458.477513
456.757805
455.003808
453.21699
451.399204
449.55272
447.680267
445.78507
443.870886
441.942039
440.003445
438.06064
436.11979
434.187695
432.271774
430.380045
428.521066
426.703866
424.937842
423.232619
421.597876
420.043131
418.577495
417.209373
415.94612
414.793675
413.756137
412.835339
412.03061
411.337761
410.748636
410.252254
409.833901
409.476792
409.165178
408.796505
408.326545
407.7028
406.862189
405.798679
404.566865
403.109245
401.364536
399.24974
396.693199
393.662372
390.135767
386.108983
381.597641
376.633564
371.287193
365.617756
359.695112
353.587965
347.385922
341.171143
335.061607
329.150572
323.534485
318.321433
313.621653
309.523994
306.095026
303.417794
301.280581
300.188181
299.956582
299.897367
299.876214
299.867869
299.869876
472.374612
471.110198
469.813087
468.48295
467.119571
465.722867
464.292921
462.830003
461.334603
459.807459
458.249588
456.662322
455.047333
453.40667
451.74279
450.058584
448.357413
446.643121
444.92006
443.193096
441.467608
439.749478
438.045056
436.361114
434.704768
433.083375
431.50441
429.975289
428.503173
427.094718
425.755797
424.491176
423.304143
422.196124
421.166411
420.21163
419.325657
418.499992
417.722762
416.951234
416.155103
415.298189
414.338585
413.22859
412.012751
410.65107
409.099073
407.306713
405.208297
402.745328
399.883558
396.595377
392.863684
388.6846
384.068594
379.042336
373.648357
367.957691
362.035496
355.948639
349.773452
343.595859
337.495575
331.569809
325.915549
320.631421
315.813128
311.551398
307.92009
304.98733
302.759078
301.178323
300.176035
299.965813
299.905528
299.885803
299.876588
299.869595
299.856741
299.8502
472.431905
471.283363
470.105238
468.897332
467.659565
466.391997
465.094855
463.768556
462.413735
461.031268
459.6223
458.188266
456.730918
455.252348
453.755004
452.241703
450.715646
449.180415
447.639965
446.098605
444.56096
443.031917
441.516551
440.020021
438.547445
437.103741
435.693439
434.320451
432.987813
431.697381
430.449516
429.242823
428.073767
426.936306
425.817515
424.700647
423.565199
422.387087
421.139465
419.824024
418.414096
416.879561
415.186121
413.292886
411.145477
408.707782
405.946925
402.833802
399.345656
395.468212
391.196885
386.538245
381.511041
376.146939
370.49288
364.614648
358.584766
352.468059
346.337599
340.268189
334.345206
328.658554
323.300031
318.353312
313.91166
310.047413
306.83088
304.289329
302.402934
301.133964
300.33125
300.012886
299.931893
299.909047
299.893388
299.878445
299.860294
299.836117
299.818989
299.808101
472.478493
471.424178
470.342834
469.234373
468.098821
466.936338
465.747238
464.532007
463.291321
462.026069
460.737362
459.426548
458.095228
456.745255
455.378737
453.998032
452.605729
451.204622
449.797671
448.387942
446.978534
445.572482
444.172637
442.781523
441.401158
440.032857
438.676989
437.332721
435.997771
434.668112
433.337543
431.996759
430.63443
429.237017
427.791175
426.280627
424.685924
422.98393
421.146683
419.13876
416.931134
414.494346
411.799792
408.82052
405.532821
401.917765
397.962489
393.661439
389.0175
384.043026
378.760392
373.202956
367.416132
361.457779
355.407516
349.329395
343.295117
337.3775
331.661698
326.228945
321.161709
316.535795
312.434701
308.922892
306.049298
303.819868
302.196491
301.104751
300.448582
300.101401
299.975662
299.934866
299.909959
299.885589
299.852785
299.828567
299.811111
299.807025
299.802745
299.800547
472.508671
471.515402
470.49677
469.452751
468.383417
467.288949
466.169647
465.025941
463.858402
462.667745
461.454832
460.220674
458.96642
457.693346
456.402835
455.096344
453.77536
452.44135
451.095684
449.739551
448.373847
446.999052
445.61508
444.221194
442.815919
441.396637
439.959251
438.49789
437.005359
435.472577
433.888526
432.240827
430.514151
428.690225
426.749679
424.671403
422.432885
420.01071
417.381257
414.521654
411.41045
408.028254
404.359016
400.391023
396.117877
391.539421
386.662615
381.502306
376.081909
370.434079
364.601037
358.63635
352.610235
346.598201
340.671102
334.903397
329.377283
324.174695
319.37815
315.056522
311.274328
308.076951
305.492388
303.509273
302.076068
301.11405
300.521582
300.195772
300.031669
299.960119
299.917274
299.873519
299.841393
299.818459
299.813756
299.811012
299.807989
299.806444
299.802955
299.800798
472.517911
471.543331
470.543876
469.519504
468.470241
467.396177
466.297477
465.174376
464.027175
462.856237
461.661974
460.44483
459.205258
457.943689
456.660487
455.355899
454.029994
452.682597
451.313206
449.920869
448.504045
447.060414
445.586652
444.078059
442.528532
440.931586
439.279558
437.563624
435.77301
433.89532
431.916581
429.821341
427.592825
425.2132
422.663959
419.926384
416.982148
413.813891
410.405435
406.742856
402.815253
398.615526
394.141173
389.395067
384.38624
379.130661
373.651983
367.982083
362.161642
356.24045
350.278701
344.35238
338.538118
332.913033
327.558309
322.554757
317.981347
313.908236
310.387916
307.453558
305.10749
303.320233
302.030469
301.154241
300.59725
300.266116
300.078559
299.973887
299.901238
299.853722
299.824245
299.819444
299.817861
299.815029
299.813783
299.811314
299.806841
299.804394
299.802798
299.801614
472.505949
471.507181
470.482882
469.432943
468.35728
467.255828
466.128529
464.975321
463.796121
462.590805
461.35919
460.101
458.815831
457.503099
456.16199
454.790765
453.386775
451.947158
450.469135
448.949296
447.383542
445.767047
444.094226
442.358857
440.5538
438.669952
436.697033
434.62361
432.437139
430.124068
427.670009
425.059971
422.278671
419.310934
416.142208
412.758542
409.147446
405.298478
401.203889
396.859297
392.264407
387.423757
382.347504
377.052241
371.561847
365.908323
360.132331
354.283287
348.419639
342.608135
336.92824
331.458051
326.277045
321.463741
317.090618
313.220026
309.896821
307.14247
304.946138
303.270302
302.051177
301.207674
300.653588
300.306592
300.096502
299.969819
299.890452
299.843057
299.830218
299.824676
299.820271
299.818539
299.816567
299.813022
299.808941
299.806924
299.803109
299.798356
299.796223
299.797085
472.473059
471.407782
470.31519
469.195061
468.047143
466.871137
465.666678
464.433312
463.170137
461.87568
460.548729
459.1878
457.79109
456.356426
454.881214
453.363004
451.799346
450.186964
448.521307
446.797107
445.008355
443.148231
441.209043
439.182202
437.058223
434.826732
432.47653
429.995694
427.371726
424.591763
421.642832
418.512198
415.187504
411.657196
407.911061
403.940749
399.740357
395.307071
390.641873
385.75031
380.643312
375.338048
369.858795
364.237775
358.515949
352.743432
346.979189
341.289989
335.749454
330.435745
325.429875
320.80231
316.616581
312.923336
309.757797
307.132175
305.031109
303.412493
302.213043
301.359717
300.776893
300.393788
300.14998
299.999252
299.908086
299.857996
299.840538
299.833109
299.827666
299.821769
299.815597
299.811178
299.808571
299.805372
299.80408
299.802778
299.801012
299.797483
299.7942
299.79339
472.419613
471.246232
470.04257
468.808183
467.542526
466.244925
464.914175
463.548961
462.148114
460.710581
459.234518
457.717736
456.157667
454.551308
452.895191
451.185327
449.417148
447.585471
445.68443
443.70743
441.647135
439.495457
437.243563
434.881907
432.400288
429.787943
427.033677
424.126037
421.053541
417.804891
414.369155
410.736235
406.897286
402.845215
398.575239
394.085529
389.377926
384.458726
379.339523
374.038083
368.57919
362.995418
357.327726
351.625787
345.947985
340.360495
334.935534
329.748414
324.874463
320.38439
316.337856
312.775541
309.722441
307.183269
305.139704
303.550177
302.356758
301.491943
300.886707
300.477407
300.210188
300.042269
299.941451
299.884649
299.856076
299.843758
299.835522
299.828419
299.822113
299.815972
299.811946
299.806987
299.804732
299.804875
299.80555
299.805516
299.803437
299.799583
299.795843
299.794758
472.350902
471.038555
469.692171
468.311085
466.894469
465.441227
463.950168
462.41989
460.848609
459.234204
457.574173
455.86559
454.105065
452.288695
450.412035
448.470053
446.457094
444.366857
442.192379
439.926031
437.559526
435.083957
432.489846
429.767229
426.905777
423.89495
420.724208
417.383109
413.861674
410.150731
406.242331
402.130228
397.810444
393.281912
388.547195
383.613275
378.492392
373.20289
367.770026
362.226652
356.613687
350.980239
345.383241
339.886487
334.558962
329.472184
324.696926
320.299043
316.334492
312.843518
309.848685
307.350728
305.327152
303.736351
302.523874
301.628437
300.988759
300.547321
300.2542
300.067644
299.954967
299.890963
299.856834
299.839622
299.830058
299.823426
299.818181
299.814233
299.812561
299.812091
299.811482
299.808638
299.804695
299.804056
299.806263
299.809145
299.812028
299.811366
299.805056
299.801896
472.271197
470.797659
469.285771
467.734658
466.14322
464.510097
462.833841
461.112543
459.343926
457.525303
455.653535
453.724994
451.735528
449.680416
447.554351
445.351415
443.065061
440.688119
438.212803
435.630742
432.933038
430.110338
427.152952
424.050999
420.794562
417.373884
413.77968
410.003473
406.038002
401.877707
397.519285
392.96233
388.210045
383.270015
378.15502
372.883832
367.481964
361.982266
356.42528
350.859229
345.339519
339.92764
334.689265
329.691571
324.999871
320.673834
316.763699
313.306874
310.323253
307.813949
305.758973
304.122398
302.855825
301.904024
301.21025
300.720359
300.38569
300.164038
300.022093
299.934086
299.882292
299.852798
299.83543
299.823927
299.817127
299.813358
299.811695
299.81065
299.810004
299.809304
299.808893
299.808199
299.808182
299.806646
299.806212
299.808115
299.81193
299.817569
299.819671
299.821819
472.182825
470.530568
468.835192
467.095612
465.310492
463.478262
461.597011
459.664406
457.677681
455.633599
453.528411
451.357824
449.116971
446.800394
444.402023
441.915181
439.332596
436.646427
433.848316
430.92947
427.880762
424.69288
421.356464
417.862344
414.201827
410.367021
406.351246
402.149505
397.759032
393.179915
388.415791
383.474584
378.369273
373.118648
367.747988
362.289579
356.782992
351.27499
345.81894
340.473625
335.301381
330.365679
325.727686
321.442572
317.555822
314.100253
311.09344
308.536591
306.413777
304.694385
303.336997
302.293944
301.514863
300.94974
300.551939
300.28079
300.100942
299.985256
299.912879
299.865545
299.840991
299.828402
299.820886
299.815467
299.811185
299.80846
299.807856
299.806613
299.806084
299.806027
299.806109
299.806701
299.809117
299.813351
299.810753
299.808443
299.809032
299.813421
299.81829
299.82223
472.087243
470.241693
468.347897
466.404586
464.410188
462.362779
460.260035
458.099186
455.876972
453.589609
451.232755
448.801489
446.290291
443.693042
441.003036
438.213001
435.315155
432.301275
429.162805
425.890982
422.477001
418.912238
415.188519
411.298446
407.235791
402.995947
398.576467
393.977653
389.203216
384.260985
379.163624
373.929336
368.582482
363.154056
357.68191
352.210635
346.790984
341.478741
336.332949
331.413481
326.778045
322.479243
318.560758
315.053385
311.974383
309.327077
307.100609
305.270224
303.801482
302.652002
301.776576
301.129506
300.665798
300.344774
300.130787
299.993847
299.909226
299.861259
299.835206
299.829806
299.82559
299.81893
299.81342
299.808929
299.803641
299.802039
299.802331
299.804495
299.804459
299.804658
299.805222
299.806073
299.808213
299.816992
299.818617
299.813079
299.809724
299.809173
299.813008
299.816253
471.985577
469.934421
467.829544
465.669447
463.45228
461.175785
458.837251
456.433469
453.960695
451.414621
448.790355
446.082412
443.284723
440.390655
437.393057
434.284324
431.056499
427.701396
424.21076
420.576476
416.790828
412.846809
408.738496
404.46148
400.013374
395.394376
390.607891
385.661193
380.566105
375.339656
370.004659
364.590151
359.131606
353.670835
348.255471
342.93797
337.77407
332.820692
328.133338
323.763139
319.753786
316.137935
312.935907
310.156963
307.795466
305.833314
304.242115
302.985049
302.01954
301.299398
300.77927
300.417579
300.176048
300.021677
299.92801
299.874462
299.848121
299.836614
299.833141
299.8295
299.825988
299.821041
299.816368
299.810884
299.805581
299.801916
299.802527
299.804047
299.806504
299.807533
299.807481
299.808546
299.810457
299.816633
299.827052
299.828228
299.824506
299.813901
299.811236
299.811554
471.878717
469.611446
467.284687
464.896702
462.445352
459.928042
457.34168
454.682636
451.946717
449.129149
446.224578
443.227084
440.130214
436.927046
433.610273
430.172318
426.605489
422.902169
419.055056
415.057461
410.903651
406.589262
402.111772
397.471033
392.669857
387.714638
382.615998
377.389408
372.055743
366.641719
361.180118
355.709741
350.274994
344.925044
339.712517
334.691718
329.916453
325.43752
321.300087
317.541204
314.187256
311.252796
308.738574
306.631468
304.906507
303.528541
302.455908
301.643854
301.0473
300.622763
300.329889
300.134501
300.009231
299.931873
299.885896
299.859141
299.843161
299.832517
299.82508
299.820592
299.818469
299.817634
299.816657
299.815774
299.81543
299.813684
299.807079
299.805133
299.810055
299.816129
299.817489
299.817913
299.818918
299.822514
299.827707
299.832115
299.836439
299.838357
299.829573
299.824444
471.767724
469.275973
466.718741
464.094044
461.399458
458.632067
455.788425
452.864534
449.855823
446.757159
443.56287
440.266786
436.862318
433.342562
429.70043
425.928832
422.020891
417.97022
413.771241
409.419575
404.912477
400.249339
395.432247
390.466563
385.361546
380.130944
374.79355
369.373633
363.901223
358.412127
352.947651
347.553915
342.280754
337.180167
332.304399
327.703719
323.424056
319.504502
315.975023
312.854494
310.149422
307.852342
305.943781
304.393654
303.163928
302.211834
301.492841
300.963321
300.583248
300.317401
300.136187
300.014851
299.935108
299.883966
299.851145
299.832106
299.821168
299.814422
299.810281
299.808318
299.808346
299.809232
299.811951
299.813685
299.816317
299.819305
299.821922
299.823029
299.823516
299.827358
299.831124
299.833723
299.834024
299.832178
299.827976
299.828017
299.831716
299.841364
299.848076
299.855708
472.549901
471.639878
470.706246
469.74864
468.76669
467.760019
466.728239
465.67095
464.587739
463.478174
462.341805
461.178155
459.986718
458.766958
457.5183
456.240125
454.931767
453.592505
452.22156
450.818088
449.381173
447.909823
446.402966
444.859444
443.278009
441.65732
439.99594
438.292339
436.54489
434.751871
432.911471
431.021796
429.080869
427.086649
425.037032
422.929867
420.76296
418.534091
416.241021
413.881507
411.453311
408.954211
406.382043
403.734737
401.010361
398.207189
395.323795
392.359185
389.312942
386.18542
382.978008
379.693446
376.336216
372.913016
369.433325
365.910063
362.360351
358.806349
355.276016
351.803684
348.430416
345.188221
342.105531
339.206642
336.511277
334.036492
331.800887
329.829516
328.155914
326.816192
325.847378
325.217151
324.830884
324.635828
324.623296
324.769778
325.016323
325.336876
325.71565
326.128697
472.542598
471.617817
470.669064
469.695985
468.698223
467.675419
466.627208
465.553218
464.453066
463.32636
462.172688
460.991622
459.782709
458.545469
457.27939
455.98392
454.658465
453.302381
451.914969
450.495468
449.043046
447.556797
446.03573
444.478765
442.884723
441.252323
439.580173
437.866763
436.110463
434.309516
432.462034
430.565995
428.619245
426.619486
424.564278
422.451041
420.277051
418.039441
415.735208
413.361235
410.914309
408.391148
405.788452
403.102967
400.33157
397.471387
394.519944
391.475377
388.336683
385.10404
381.779197
378.365932
374.870576
371.302595
367.675196
364.005953
360.317411
356.637654
353.000773
349.447025
346.022639
342.77482
339.733398
336.924495
334.37173
332.099488
330.136426
328.514617
327.263012
326.375691
325.809064
325.475677
325.283198
325.166261
325.151652
325.248512
325.404968
325.595909
325.863777
326.221085
472.532742
471.58804
470.618865
469.624868
468.605702
467.561021
466.490479
465.393726
464.270408
463.120164
461.942621
460.737393
459.504075
458.24224
456.951434
455.631169
454.28092
452.900117
451.488137
450.0443
448.567859
447.05799
445.513787
443.934249
442.318272
440.664637
438.972003
437.238889
435.46367
433.644561
431.779606
429.866661
427.903387
425.887238
423.815442
421.685
419.492685
417.235041
414.908386
412.508834
410.032324
407.474661
404.831585
402.098869
399.272461
396.348661
393.32437
390.197393
386.966816
383.633449
380.200334
376.673293
373.061495
369.378011
365.640321
361.870754
358.096837
354.351517
350.673289
347.106203
343.699294
340.505289
337.577981
334.944989
332.635417
330.680331
329.110545
327.932887
327.124386
326.611668
326.300264
326.089091
325.932623
325.81971
325.750984
325.781243
325.883735
326.049526
326.305159
326.626361
472.520042
471.549667
470.554163
469.533183
468.486382
467.413423
466.313973
465.187698
464.034267
462.853344
461.644589
460.40765
459.142164
457.847749
456.524001
455.170488
453.786747
452.372271
450.926509
449.448856
447.938642
446.395125
444.817479
443.204785
441.556014
439.87002
438.14552
436.38108
434.575096
432.725779
430.831133
428.888937
426.896723
424.85177
422.751078
420.591359
418.369025
416.080196
413.720691
411.286063
408.771631
406.172552
403.483924
400.700935
397.819071
394.834373
391.743779
388.545541
385.239682
381.828532
378.317288
374.714567
371.032898
367.289147
363.504823
359.7063
355.924973
352.197436
348.565451
345.075736
341.779915
338.733627
335.994078
333.614746
331.636168
330.069523
328.914838
328.099831
327.587979
327.274706
327.070481
326.920934
326.803901
326.714868
326.662358
326.712665
326.821721
327.029923
327.334246
327.696603
472.50406
471.501372
470.472724
469.417761
468.336138
467.227521
466.091581
464.927996
463.736451
462.51663
461.268215
459.990886
458.684311
457.348147
455.982033
454.585585
453.158394
451.700013
450.209957
448.687691
447.132622
445.544091
443.921359
442.263596
440.569866
438.839113
437.07014
435.261595
433.411946
431.519462
429.582194
427.597947
425.564262
423.478389
421.33727
419.137513
416.875389
414.546822
412.147406
409.672438
407.116982
404.475968
401.744343
398.917273
395.990427
392.960307
389.824652
386.582918
383.236733
379.790443
376.251779
372.63231
368.947805
365.218416
361.468837
357.728363
354.030968
350.415445
346.925816
343.611268
340.525967
337.727159
335.271088
333.20572
331.534887
330.259281
329.367878
328.788278
328.43148
328.211793
328.064598
327.954973
327.871758
327.818888
327.853864
327.980407
328.223126
328.619627
329.124366
329.698526
472.484259
471.441537
470.371817
469.274736
468.149939
466.997088
465.815856
464.605925
463.36699
462.098749
460.800904
459.473156
458.115202
456.726733
455.307428
453.856949
452.374938
450.86101
449.314747
447.735692
446.12334
444.477126
442.796417
441.080499
439.328561
437.539681
435.712808
433.846744
431.940122
429.991382
427.998747
425.960199
423.873446
421.7359
419.544651
417.296449
414.987693
412.614438
410.172416
407.657093
405.063752
402.387629
399.624105
396.768959
393.818703
390.770985
387.625016
384.382055
381.045826
377.623036
374.123936
370.562663
366.957424
363.330404
359.707738
356.11943
352.599398
349.18559
345.920498
342.851078
340.028497
337.495569
335.296638
333.478099
332.053669
331.01217
330.306317
329.865549
329.607462
329.458631
329.371622
329.326932
329.328797
329.374228
329.553762
329.866338
330.347867
331.001745
331.863639
332.992238
472.460112
471.368567
470.248758
469.100303
467.922835
466.716005
465.479482
464.21295
462.916106
461.58866
460.230329
458.840836
457.419907
455.967266
454.482635
452.965725
451.41624
449.833867
448.21827
446.569089
444.885931
443.168361
441.415893
439.627982
437.804004
435.943249
434.044902
432.108025
430.131533
428.11417
426.054485
423.950802
421.801196
419.603463
417.355102
415.053298
412.694917
410.276521
407.794405
405.244664
402.623306
399.926412
397.150358
394.292103
391.349542
388.32191
385.210205
382.01771
378.750235
375.416555
372.028651
368.601899
365.155036
361.709894
358.291223
354.926595
351.646635
348.485559
345.482008
342.666336
340.094799
337.807028
335.85108
334.26156
333.054982
332.21144
331.685311
331.416042
331.339532
331.344501
331.415814
331.598112
331.886623
332.29606
332.863618
333.641877
334.693538
336.056246
337.759725
339.898213
472.431226
471.281277
470.101546
468.891629
467.651138
466.379712
465.077008
463.742708
462.37651
460.978134
459.547311
458.083789
456.587326
455.057687
453.494648
451.897986
450.267485
448.602925
446.904089
445.170748
443.402667
441.599592
439.761251
437.887338
435.977506
434.031351
432.0484
430.028093
427.969762
425.872609
423.735683
421.55785
419.337775
417.073894
414.764394
412.407208
410.000009
407.54024
405.025158
402.451917
399.817696
397.119873
394.356267
391.525423
388.626929
385.661802
382.632896
379.545332
376.406586
373.226711
370.018335
366.796599
363.578886
360.384442
357.234177
354.15068
351.158665
348.285852
345.564301
343.025412
340.718304
338.689143
336.980753
335.615836
334.601201
333.924267
333.552783
333.439112
333.447777
333.569218
333.873323
334.33729
334.968923
335.788085
336.85012
338.22655
340.063588
342.571354
345.773615
349.54938
472.397473
471.179277
469.929526
468.647784
467.333643
465.986719
464.606659
463.193135
461.74585
460.26453
458.748929
457.198822
455.614011
453.994317
452.339587
450.649688
448.924515
447.16398
445.368024
443.536605
441.669705
439.767322
437.829469
435.856168
433.847444
431.803312
429.723766
427.608766
425.458218
423.271958
421.049727
418.791148
416.495703
414.162716
411.791329
409.380504
406.929024
404.435526
401.898554
399.316652
396.6885
394.013088
391.289937
388.519345
385.702724
382.842889
379.944396
377.013745
374.059439
371.091922
368.123329
365.167187
362.237977
359.350757
356.521032
353.765106
351.101029
348.550149
346.138952
343.901896
341.880292
340.108928
338.620257
337.439612
336.581237
336.045299
335.816986
335.799994
335.968073
336.400481
337.071312
337.971008
339.117761
340.534019
342.292911
344.433049
346.939534
349.804172
352.865413
355.72603
472.359094
471.063304
469.733937
468.370529
466.972641
465.539867
464.071836
462.568213
461.028703
459.453044
457.841016
456.192433
454.507153
452.785071
451.02613
449.230317
447.39767
445.52828
443.622295
441.679921
439.701426
437.687139
435.637452
433.552817
431.433744
429.280791
427.094559
424.875677
422.62479
420.342537
418.029534
415.686349
413.313483
410.911346
408.480247
406.020385
403.531866
401.014731
398.469025
395.894877
393.292629
390.66298
388.007247
385.327519
382.626977
379.910068
377.182703
374.45229
371.727658
369.018819
366.336541
363.691859
361.095586
358.557977
356.088749
353.697576
351.394794
349.1967
347.124842
345.207428
343.471322
341.945309
340.65831
339.63639
338.899016
338.455324
338.281005
338.292018
338.579728
339.172052
340.056196
341.197225
342.555075
344.100331
345.839341
347.794747
349.939517
352.104574
354.02261
355.635331
472.316756
470.935363
469.518166
468.064661
466.574375
465.046877
463.481776
461.87873
460.237442
458.557671
456.839227
455.081976
453.285847
451.450833
449.576998
447.664485
445.713519
443.724417
441.697595
439.633573
437.532982
435.396572
433.22521
431.019887
428.781716
426.511926
424.211859
421.882956
419.526745
417.144822
414.738832
412.310443
409.861324
407.393126
404.907468
402.405934
399.890074
397.361436
394.821627
392.272355
389.715611
387.153737
384.5897
382.027197
379.470836
376.92626
374.40019
371.900333
369.435173
367.013602
364.644426
362.33581
360.09477
357.926896
355.836503
353.827378
351.904094
350.075346
348.355338
346.761764
345.313013
344.030109
342.935846
342.053034
341.401855
340.996048
340.823694
340.848364
341.135654
341.686588
342.486193
343.507279
344.707047
346.039696
347.456069
348.900911
350.288914
351.734583
353.085838
354.117301
472.271579
470.798847
469.287927
467.738275
466.149383
464.520787
462.852076
461.142896
459.392959
457.602041
455.769994
453.896747
451.98232
450.026825
448.030479
445.993616
443.916693
441.800306
439.645199
437.452275
435.222608
432.95745
430.658241
428.326612
425.964385
423.573577
421.156387
418.715191
416.252522
413.771056
411.273583
408.762986
406.242212
403.714235
401.182035
398.648582
396.1168
393.589623
391.070062
388.561227
386.066496
383.58957
381.134643
378.706512
376.310683
373.953417
371.641692
369.383043
367.185261
365.055958
363.002012
361.028987
359.140632
357.338632
355.622708
353.991331
352.443253
350.979671
349.60622
348.332353
347.168524
346.128262
345.227776
344.484051
343.912909
343.526146
343.328705
343.317418
343.50892
343.905889
344.491478
345.237384
346.107592
347.059781
348.041202
349.017006
350.014493
350.91808
351.783708
352.568004
472.225183
470.658644
469.051468
467.403063
465.712882
463.980428
462.205268
460.38704
458.525458
456.620327
454.671547
452.679122
450.643178
448.563968
446.441889
444.277497
442.071521
439.824882
437.538703
435.21433
432.853344
430.457572
428.029104
425.570293
423.083764
420.572408
418.039378
415.488077
412.922136
410.345382
407.761808
405.175526
402.59073
400.011652
397.442528
394.887587
392.350984
389.836841
387.34931
384.892612
382.471133
380.089507
377.752729
375.466241
373.235992
371.068437
368.970443
366.949076
365.011252
363.163263
361.410211
359.755428
358.199997
356.742506
355.379202
354.104498
352.912318
351.797823
350.759145
349.799127
348.921968
348.133693
347.442885
346.859721
346.395084
346.059505
345.862735
345.813816
345.880253
346.076104
346.411827
346.859105
347.389162
347.974932
348.592879
349.263464
350.041955
350.819668
351.70196
352.674463
472.179644
470.521027
468.81936
467.074005
465.28437
463.449926
461.570212
459.644858
457.673586
455.656228
453.592737
451.483202
449.327863
447.127131
444.8816
442.592073
440.25958
437.885397
435.471071
433.018434
430.529627
428.007113
425.453691
422.872504
420.26704
417.641122
414.9989
412.344827
409.68363
407.020268
404.35989
401.707779
399.069304
396.449867
393.854858
391.289641
388.759493
386.269601
383.825071
381.430971
379.092396
376.814542
374.602789
372.462758
370.400343
368.421671
366.532976
364.740367
363.049479
361.465012
359.990214