/*--------------------------------*- C++ -*----------------------------------*\
  =========                 |
  \\      /  F ield         | OpenFOAM: The Open Source CFD Toolbox
   \\    /   O peration     | Website:  https://openfoam.org
    \\  /    A nd           | Version:  8
     \\/     M anipulation  |
\*---------------------------------------------------------------------------*/
FoamFile
{
    version     2.0;
    format      ascii;
    class       volVectorField;
    location    "0.012";
    object      U;
}
// * * * * * * * * * * * * * * * * * * * * * * * * * * * * * * * * * * * * * //

dimensions      [0 1 -1 0 0 0 0];

internalField   nonuniform List<vector> 
42400
(
(-0.0184914574 0.0177378174 -7.12071411e-27)
(-0.0549840865 0.0520516692 2.45827611e-26)
(-0.091763087 0.0857139842 2.8183661e-26)
(-0.128973004 0.118748821 0)
(-0.166710064 0.151180672 0)
(-0.20500531 0.182973651 -6.23451859e-28)
(-0.24382336 0.214038369 0)
(-0.283074307 0.244249013 6.80069243e-28)
(-0.322633274 0.273461058 0)
(-0.362358313 0.301526531 7.39748088e-28)
(-0.402103769 0.328305432 7.70607905e-28)
(-0.441728976 0.35367307 -8.02055088e-28)
(-0.481102977 0.377523902 -7.04438962e-26)
(-0.520106196 0.399772772 -7.62580879e-26)
(-0.558630025 0.420354448 -8.98952937e-28)
(-0.59657517 0.43922223 0)
(-0.633849485 0.456346257 0)
(-0.670365762 0.471711926 0)
(-0.706039777 0.485318647 0)
(-0.740788686 0.497179004 0)
(-0.774529769 0.507318279 0)
(-0.807179412 0.515774255 -2.24011752e-27)
(-0.838652216 0.522597155 -1.55407362e-25)
(-0.868860068 0.527849612 -3.3302112e-25)
(-0.897711035 0.531606552 -1.78470621e-25)
(-0.925107929 0.533954909 -2.43622827e-27)
(-0.950946313 0.534993075 -2.47174605e-27)
(-0.975111731 0.53483008 4.99979911e-27)
(-0.997476244 0.533584548 0)
(-1.01789525 0.531383171 0)
(-1.03620273 0.528356972 2.77179312e-25)
(-1.05219574 0.524634424 2.96659023e-25)
(-1.06562908 0.520343066 4.95565018e-27)
(-1.07627227 0.515627291 -3.43783446e-25)
(-1.08398911 0.510589773 -3.50966073e-25)
(-1.08803378 0.505928842 0)
(-1.08835723 0.500762503 0)
(-1.08404286 0.495801782 0)
(-1.07546475 0.49030754 0)
(-1.06045415 0.486109374 -5.60132468e-25)
(-1.03867419 0.481940311 -5.56227245e-25)
(-1.00784654 0.478147008 -5.16786607e-25)
(-0.96793671 0.473813058 -9.89979251e-25)
(-0.917036699 0.469703936 -4.25577298e-27)
(-0.853756723 0.465777001 5.33324907e-25)
(-0.776525583 0.461964369 5.39152128e-25)
(-0.683305413 0.458042091 -6.47614282e-28)
(-0.571916941 0.453765247 -5.78253865e-25)
(-0.440762141 0.448610654 -5.24825999e-27)
(-0.286116132 0.442592748 -4.73729451e-25)
(-0.108282487 0.436191173 -3.63917833e-34)
(0.101272611 0.430778487 8.4648458e-25)
(0.334065661 0.426079047 6.54367597e-25)
(0.61540267 0.417713348 -3.5898499e-26)
(0.941032817 0.40531298 0)
(1.31475572 0.391285437 0)
(1.74358195 0.375842891 0)
(2.23212665 0.358564295 8.33789289e-26)
(2.78566446 0.339593937 1.00795173e-25)
(3.40964826 0.319186316 0)
(4.10823787 0.29693529 -1.39266839e-24)
(4.8834429 0.272799555 -1.62855001e-24)
(5.73621344 0.247511514 1.35922101e-24)
(6.6661533 0.222933638 1.34979075e-24)
(7.66785051 0.201880983 0)
(8.73715948 0.183570535 0)
(9.86844174 0.173765016 2.18183639e-24)
(11.0191647 0.198038552 2.44683216e-24)
(12.2632257 0.152715686 1.02686155e-24)
(13.638582 0.0306163095 0)
(14.6747037 0.343043965 0)
(15.8835943 0.469155822 1.53584617e-24)
(17.7764066 -0.393432703 1.57120045e-24)
(18.7309324 -0.162759897 0)
(19.1884727 1.34824809 2.33132653e-24)
(20.9620052 0.489183454 3.91985675e-24)
(22.7370984 -1.28378933 3.63312848e-24)
(23.1812956 -0.976464958 -4.56680679e-24)
(23.3804362 0.250055474 -2.64412131e-23)
(23.5803428 0.653168433 -5.58407417e-23)
(-0.021373924 0.0189676531 0)
(-0.063884938 0.0562190535 1.79225585e-26)
(-0.106953286 0.0933158734 2.07684395e-26)
(-0.150631716 0.130210656 0)
(-0.194901625 0.16682987 0)
(-0.239693385 0.203051526 2.90289115e-26)
(-0.284867087 0.238707268 3.27934562e-26)
(-0.330241127 0.273603974 4.61095472e-28)
(-0.375613127 0.3075429 0)
(-0.420776651 0.340333845 4.97811388e-28)
(-0.465532736 0.371804263 5.16324985e-28)
(-0.509696333 0.401804124 -5.20520213e-26)
(-0.553098653 0.430207486 -1.12498869e-25)
(-0.595586664 0.456911832 -6.12789258e-26)
(-0.637020816 0.481836144 6.57708923e-26)
(-0.677271935 0.504918481 7.29696154e-26)
(-0.716217953 0.52611363 0)
(-0.753740912 0.545391164 1.22248841e-27)
(-0.789724445 0.562734049 0)
(-0.824051785 0.57813782 0)
(-0.856604192 0.591610213 0)
(-0.887259676 0.603171125 -1.16113544e-25)
(-0.91589181 0.612852734 -2.49548873e-25)
(-0.942368354 0.620699639 -1.34243431e-25)
(-0.966549389 0.62676896 0)
(-0.988285015 0.63113021 -2.63224478e-27)
(-1.00741211 0.633864268 -1.34549876e-27)
(-1.02374885 0.635062087 2.63680109e-27)
(-1.03708447 0.63482513 -1.9623828e-25)
(-1.04719039 0.633267722 -2.13394472e-25)
(-1.05386259 0.630481093 -1.91165883e-27)
(-1.05678699 0.626625057 -1.64480446e-27)
(-1.05557183 0.621965162 -2.21506391e-25)
(-1.05006434 0.616295994 -2.20628332e-25)
(-1.03964853 0.610114326 2.59923738e-25)
(-1.0245749 0.602986884 3.4615068e-25)
(-1.00289817 0.596130298 0)
(-0.974164669 0.588601996 5.43971817e-28)
(-0.936405432 0.580723514 0)
(-0.889637975 0.571870689 -1.36866027e-27)
(-0.83229415 0.562745365 -3.91201447e-25)
(-0.763225667 0.553439252 -4.04742488e-25)
(-0.68099058 0.543912225 -4.96398177e-27)
(-0.583597871 0.534007567 6.61413826e-27)
(-0.469085051 0.523600293 -1.96889036e-26)
(-0.336037529 0.512309644 1.12321629e-26)
(-0.181200182 0.500323456 -1.22629915e-26)
(-0.00293039304 0.489491693 -3.30031833e-25)
(0.195308702 0.480495979 -5.18665931e-25)
(0.432291287 0.469212409 0)
(0.707333899 0.454980105 2.37871302e-26)
(1.02425582 0.439202382 -5.01344857e-26)
(1.38788887 0.422732179 -2.39496275e-25)
(1.80445892 0.405420427 -3.68477628e-25)
(2.27842129 0.387110906 -8.59542975e-26)
(2.81531022 0.368059637 -5.34535365e-25)
(3.42066447 0.348196062 -4.75959444e-25)
(4.09870848 0.327511955 1.4660317e-25)
(4.85224788 0.306177341 1.77296294e-25)
(5.68348458 0.284880964 5.91794994e-25)
(6.59305811 0.265354801 1.02638685e-24)
(7.57912838 0.249504265 -3.20013551e-25)
(8.63424682 0.238997556 3.53915163e-25)
(9.7499565 0.235421184 0)
(10.915008 0.241536151 -1.00666055e-24)
(12.1214623 0.254604516 -4.31330996e-24)
(13.3724114 0.259218841 -1.42879992e-24)
(14.5973628 0.324684227 0)
(15.7992721 0.412992566 1.63377408e-26)
(17.2475806 0.232831951 1.23152574e-24)
(18.4302449 0.241706241 3.35303214e-24)
(19.2562561 0.838807849 4.88609281e-24)
(20.6079051 0.643323918 -3.07009805e-24)
(22.08908 -0.162264694 -2.45503791e-24)
(22.7973792 0.260909213 4.72999072e-26)
(23.1920892 0.949099365 1.84654724e-23)
(23.6408288 0.602315052 2.19378108e-23)
(23.7582967 0.0546349746 -5.84189171e-24)
(23.7971432 0.0871408953 -2.07958489e-23)
(23.7661122 0.187839198 -1.53824841e-23)
(-0.0235935676 0.0193493093 1.75758216e-27)
(-0.0708386556 0.0577914089 9.50095107e-29)
(-0.118944285 0.0965090285 -1.00857549e-28)
(-0.16787531 0.1354018 1.02226602e-28)
(-0.217525954 0.174331357 0)
(-0.267703864 0.213096898 -2.23938466e-26)
(-0.318159779 0.251464348 2.14330411e-34)
(-0.368635045 0.289193291 2.76379976e-26)
(-0.418840485 0.326044162 3.05480202e-26)
(-0.468498445 0.361792709 6.71852409e-26)
(-0.517350363 0.3962403 3.69948192e-26)
(-0.565159912 0.429216948 2.67850475e-28)
(-0.611713066 0.460580809 2.72364929e-28)
(-0.656815497 0.490215837 4.70640665e-26)
(-0.700288479 0.518028588 5.08907089e-26)
(-0.741964291 0.543944882 8.17534301e-28)
(-0.781681818 0.567906841 -5.9853851e-26)
(-0.81928275 0.589870565 -1.28042727e-25)
(-0.854608517 0.609804554 -6.91234046e-26)
(-0.887497881 0.62768885 4.68487699e-28)
(-0.917784895 0.643514898 -4.39288202e-28)
(-0.945297069 0.657286118 -4.02003901e-28)
(-0.969853594 0.669018654 0)
(-0.991262562 0.678741634 6.69717613e-28)
(-1.00931266 0.686494449 1.09871943e-25)
(-1.02377346 0.692324711 -7.32153863e-29)
(-1.03440247 0.696284554 -1.301392e-25)
(-1.04095117 0.698419797 -1.38314638e-25)
(-1.04305626 0.698840377 -1.40997706e-25)
(-1.04053064 0.697526696 1.42779641e-25)
(-1.03303283 0.694735686 6.70855565e-28)
(-1.020219 0.690757374 -3.38431664e-25)
(-1.0021172 0.685502626 -2.2347887e-25)
(-0.977172759 0.679444959 0)
(-0.944626883 0.672055099 0)
(-0.902882066 0.663518593 2.36907632e-27)
(-0.851874197 0.653596735 0)
(-0.79028656 0.642814646 -8.55802965e-27)
(-0.71708062 0.631304486 -2.83085825e-25)
(-0.630957717 0.619111799 -2.29727404e-26)
(-0.530153275 0.6062116 3.00401909e-25)
(-0.412879854 0.592608803 0)
(-0.277773167 0.578008679 0)
(-0.121852002 0.562548174 -2.51646859e-25)
(0.0570950929 0.548110961 -2.8006194e-25)
(0.25421354 0.535508887 -2.45726314e-26)
(0.490025193 0.520482123 0)
(0.761541877 0.503233492 0)
(1.07294708 0.485522626 -2.68438937e-25)
(1.42967296 0.467738119 -2.65377168e-25)
(1.83640243 0.449724574 4.2308008e-26)
(2.29846134 0.431629161 0)
(2.82140025 0.413645028 4.01745816e-26)
(3.41049474 0.395705826 7.27253772e-26)
(4.07002186 0.377912958 -2.84609565e-25)
(4.80357675 0.360751655 -9.15352272e-25)
(5.61438663 0.345318976 -1.28140851e-24)
(6.50410878 0.333053574 2.82994774e-32)
(7.47128257 0.325233018 -4.21070258e-32)
(8.51113731 0.322980517 -5.49208185e-24)
(9.61301661 0.328115833 -3.22409677e-24)
(10.766421 0.341119581 3.64264857e-24)
(11.9638067 0.362020476 4.49201971e-24)
(13.1922773 0.390438201 0)
(14.4388785 0.4293209 5.79010424e-24)
(15.6750637 0.489887561 1.02296876e-23)
(16.9205033 0.528417273 5.6628587e-24)
(18.1483353 0.566726694 0)
(19.2035906 0.732120982 -2.79271949e-26)
(20.3633682 0.791130216 7.39561146e-24)
(21.5185384 0.575951474 7.63904146e-24)
(22.4625544 0.676811519 0)
(23.0326603 1.00217831 0)
(23.5520047 0.844255863 1.72986918e-24)
(23.6966363 0.663438465 -2.09375847e-24)
(23.7809782 0.71761638 3.44519315e-24)
(23.7865078 0.803029676 9.36943389e-24)
(23.7355077 0.70229846 0)
(23.7142878 0.595115646 -3.57875844e-24)
(23.7033309 0.468206998 2.11350416e-23)
(-0.0253204623 0.0191587203 1.34984169e-29)
(-0.0763428621 0.0575505868 2.16971403e-29)
(-0.12855142 0.0965324675 5.56942101e-27)
(-0.181827128 0.135961718 -6.38853181e-27)
(-0.235963753 0.175647774 -7.41679748e-27)
(-0.290672003 0.215343662 0)
(-0.345609456 0.254766316 -1.95876582e-26)
(-0.400382797 0.293620163 -2.16945483e-26)
(-0.4546168 0.331633248 -2.32828875e-26)
(-0.507987073 0.368566109 -2.5062875e-26)
(-0.560161986 0.404208175 -2.70824191e-26)
(-0.610847108 0.43837619 5.99821089e-36)
(-0.659777143 0.470918788 1.20106956e-29)
(-0.706709854 0.501712917 8.94330548e-36)
(-0.751420331 0.530659319 1.06410941e-29)
(-0.793694965 0.557678347 -3.83493378e-26)
(-0.833325834 0.582706559 4.08849481e-26)
(-0.870105829 0.605694448 1.0385662e-28)
(-0.90382487 0.626605261 -4.63816333e-26)
(-0.93426672 0.645413887 -2.05757138e-28)
(-0.961198724 0.662102116 5.59880564e-28)
(-0.984368107 0.676655781 5.69558184e-26)
(-1.00350577 0.689063937 6.29383001e-26)
(-1.01834681 0.699284977 -5.09014556e-28)
(-1.02854688 0.707368101 0)
(-1.03386521 0.713356237 -7.59025198e-28)
(-1.03401253 0.717354878 0)
(-1.02871035 0.719571811 -8.76296634e-26)
(-1.0178082 0.720122425 -2.06628129e-25)
(-1.00030149 0.719033784 -1.24655525e-25)
(-0.975496002 0.716171766 1.3657956e-25)
(-0.942512359 0.711458443 1.46515327e-25)
(-0.900065322 0.704957761 -8.71544582e-27)
(-0.847823894 0.69679193 -5.18599939e-27)
(-0.78481464 0.687255889 1.52204249e-25)
(-0.709979671 0.676496112 1.72655808e-25)
(-0.622081297 0.664589719 0)
(-0.519508678 0.65158733 -2.01591463e-25)
(-0.40058338 0.637552692 -2.2419729e-25)
(-0.263937357 0.622259122 -2.10029846e-26)
(-0.106853104 0.60587808 -2.28976198e-26)
(0.0729457247 0.590345125 0)
(0.270204164 0.5765155 0)
(0.505567624 0.560359034 0)
(0.775208563 0.542337832 -3.33332743e-26)
(1.08320678 0.524389145 -2.27204314e-25)
(1.43497091 0.506915616 -2.02892713e-25)
(1.83487266 0.489843026 0)
(2.28803402 0.473390591 0)
(2.79978512 0.457680647 -1.25903042e-25)
(3.37511335 0.442882214 2.11352711e-26)
(4.0185562 0.429364055 1.0075973e-25)
(4.73416212 0.417943031 2.8933747e-25)
(5.52556854 0.409803579 1.86337219e-25)
(6.39464837 0.406033496 -4.9146506e-25)
(7.34090394 0.407408317 -1.23166074e-24)
(8.3606066 0.414619595 -2.70037348e-24)
(9.44742418 0.428534093 -3.96169089e-24)
(10.5895814 0.450951225 0)
(11.7749819 0.482756017 -3.74645911e-25)
(12.9920685 0.525598692 -5.15571565e-24)
(14.2238152 0.577373148 -1.0903096e-23)
(15.4623266 0.6368089 4.46989699e-25)
(16.6854464 0.700855088 4.76911704e-25)
(17.8911042 0.764365774 -8.24929476e-24)
(19.0244604 0.850314442 7.58444449e-24)
(20.0946895 0.937247004 8.06320185e-24)
(21.1448251 0.966761798 -1.32704079e-24)
(22.0371153 1.01133806 -5.25076773e-24)
(22.8235425 1.11111544 -1.54110644e-23)
(23.4250875 1.13857447 8.21399406e-26)
(23.6386141 1.00714417 -1.20665027e-23)
(23.6985948 1.11875655 -4.68022443e-24)
(23.7002268 1.15860461 0)
(23.6937588 1.12539105 -1.277374e-23)
(23.7190846 0.988016229 -3.03069043e-23)
(23.7419417 0.905967478 4.16763585e-24)
(23.7208453 0.948854895 9.78536448e-24)
(23.7120498 0.903993983 1.64151305e-23)
(23.698867 0.777010436 2.43760856e-23)
(-0.0269111176 0.0187462355 1.20410895e-27)
(-0.0814065683 0.05650594 0)
(-0.137381914 0.095019142 0)
(-0.194634089 0.134108141 1.72409603e-30)
(-0.252856225 0.173542391 0)
(-0.311649935 0.213035295 0)
(-0.37055949 0.252272263 0)
(-0.429112255 0.290937841 2.22807367e-28)
(-0.486850483 0.32873047 0)
(-0.543308782 0.365386771 -1.35227703e-28)
(-0.598115264 0.400689105 -1.9791715e-26)
(-0.65093481 0.434461556 -1.98245859e-34)
(-0.701435912 0.466558063 2.05243409e-26)
(-0.749321443 0.496855724 0)
(-0.794311923 0.525257473 2.14341549e-28)
(-0.836137693 0.551686873 -4.86781359e-28)
(-0.874530938 0.576083678 0)
(-0.909211514 0.598397553 -2.31250969e-26)
(-0.939883582 0.618585977 -6.85573104e-28)
(-0.966273662 0.636567399 5.99715495e-26)
(-0.988013342 0.652397332 3.40737692e-26)
(-1.00485631 0.666056882 -9.74315436e-28)
(-1.01652284 0.677613985 0)
(-1.0226965 0.687230708 2.83803657e-26)
(-1.02282454 0.694699053 2.94196906e-26)
(-1.01634815 0.700096845 3.28145727e-26)
(-1.00265614 0.703394004 4.01723621e-26)
(-0.981000246 0.704544176 -4.40858481e-26)
(-0.950415619 0.703528744 -4.35585195e-26)
(-0.910472602 0.700596859 0)
(-0.860339785 0.695895212 5.23747571e-26)
(-0.799044127 0.689517324 6.06755637e-26)
(-0.725509751 0.681544197 -7.01405475e-27)
(-0.638494572 0.672059166 6.81390533e-26)
(-0.53646716 0.661152823 8.7107427e-26)
(-0.417807243 0.648920971 1.94048311e-26)
(-0.281109728 0.635207941 -1.07403679e-26)
(-0.123887007 0.620233147 4.87628548e-26)
(0.0560044622 0.605864129 6.14136363e-26)
(0.253690154 0.59285013 -1.8733454e-25)
(0.488581778 0.577753924 -4.11458868e-25)
(0.756984048 0.561089477 -1.44171064e-25)
(1.06277183 0.544857626 0)
(1.41099926 0.529471858 4.08374675e-26)
(1.80568797 0.514846541 1.18206228e-25)
(2.25161561 0.501286764 4.97624489e-26)
(2.75386596 0.489095895 -1.07033234e-32)
(3.31731435 0.4786769 -8.36082963e-26)
(3.94663866 0.470775556 0)
(4.64593534 0.466435748 7.79502604e-26)
(5.41867079 0.466575032 -2.17802295e-25)
(6.26680353 0.471924526 -5.7596616e-25)
(7.19040741 0.483109262 4.6013124e-25)
(8.18740917 0.500807669 -6.28800624e-25)
(9.25278895 0.525823734 -1.55740204e-24)
(10.3787346 0.559078013 -2.03949866e-24)
(11.5513825 0.602165031 -7.38605521e-24)
(12.7569015 0.655178314 -5.57738635e-24)
(13.9829379 0.717835742 -5.73113386e-24)
(15.2125753 0.787873098 -6.71521962e-24)
(16.4304512 0.868419545 0)
(17.6116826 0.955096598 4.67966288e-25)
(18.7517774 1.04216238 -6.92382013e-24)
(19.8226203 1.12866036 -8.47006172e-24)
(20.8276839 1.19727672 -4.44787088e-26)
(21.7273699 1.27000044 0)
(22.5048296 1.32158354 1.42463308e-23)
(23.1780323 1.37100761 1.39857892e-23)
(23.6138305 1.35782717 1.32008134e-24)
(23.6930689 1.37509234 -1.49168759e-24)
(23.6907165 1.44116797 -3.62918859e-26)
(23.6769072 1.46557837 -1.68793449e-24)
(23.6696965 1.39274079 -1.31251718e-23)
(23.6854592 1.32309843 -1.02028594e-23)
(23.6807088 1.30831387 -1.06921421e-24)
(23.7149613 1.26621035 0)
(23.7548644 1.16276575 -1.28300098e-23)
(23.7566834 1.12081833 -1.3188553e-23)
(23.7601663 1.09733021 0)
(23.7375232 1.0812012 -1.37540588e-23)
(-0.0286712225 0.0183384611 -2.82625019e-27)
(-0.0868882116 0.0553374666 -4.83285875e-27)
(-0.146786708 0.0931075535 -5.2529197e-27)
(-0.208068978 0.131437446 8.03158939e-29)
(-0.270317916 0.170064783 5.89360224e-27)
(-0.333020193 0.208673338 1.8377703e-28)
(-0.395608493 0.246924833 -6.55887735e-27)
(-0.457505368 0.284489762 -6.26658955e-27)
(-0.5181558 0.321067513 -2.23523299e-28)
(-0.577050988 0.356389391 -4.7727391e-28)
(-0.633708207 0.390224836 6.83682065e-27)
(-0.687663594 0.422409355 1.86234222e-26)
(-0.738600793 0.452795283 1.06384155e-26)
(-0.786136147 0.481289261 9.04939731e-27)
(-0.829914606 0.507805064 -3.55616025e-28)
(-0.869591129 0.532278492 -9.28871835e-27)
(-0.904849598 0.554619828 0)
(-0.935286788 0.574902651 0)
(-0.960610088 0.593017527 -5.06396236e-28)
(-0.980371279 0.609030434 1.04340724e-26)
(-0.994149142 0.622842049 9.46424574e-27)
(-1.00139797 0.634471364 1.0834484e-26)
(-1.00152233 0.643882793 -4.77286148e-34)
(-0.993851992 0.651013881 -7.73433134e-27)
(-0.977916031 0.656101697 1.10776562e-26)
(-0.953008632 0.659146828 1.98007023e-26)
(-0.918330131 0.660205754 1.21545305e-26)
(-0.873000861 0.659340981 2.57347427e-27)
(-0.816042192 0.656612439 -2.8432337e-27)
(-0.746348067 0.652100237 6.25617721e-27)
(-0.662635142 0.6459086 0)
(-0.563397662 0.63814642 -7.89816802e-27)
(-0.447036303 0.628920054 8.5334072e-27)
(-0.312093625 0.61813456 1.04360912e-26)
(-0.15627724 0.606040875 0)
(0.0223834736 0.594328239 -2.09581018e-26)
(0.219854411 0.583583232 4.57583545e-26)
(0.453466943 0.571140662 0)
(0.720168271 0.557438785 0)
(1.02350354 0.544346863 -2.31659374e-26)
(1.36806895 0.532303765 1.16120495e-26)
(1.75766614 0.521348165 -8.04816066e-26)
(2.19677696 0.511895716 0)
(2.69022346 0.504453757 1.06321394e-25)
(3.24272772 0.499729543 2.80008405e-25)
(3.85873315 0.498543105 2.44593172e-25)
(4.54199305 0.501744102 -7.02040224e-26)
(5.29577353 0.510088347 -9.32474188e-28)
(6.1221834 0.524270725 0)
(7.02191523 0.545024503 -6.47405927e-25)
(7.99387637 0.573157466 2.35446939e-25)
(9.0346237 0.60947969 1.34041651e-24)
(10.1376371 0.65464818 3.14353375e-25)
(11.293334 0.709251866 -1.81906536e-24)
(12.4864544 0.774193788 -5.35929223e-24)
(13.7017487 0.849173877 4.83406034e-32)
(14.9241548 0.933670298 2.95116803e-24)
(16.1358918 1.02548749 0)
(17.3206029 1.12407624 0)
(18.4598847 1.22176659 4.28162373e-25)
(19.53831 1.32287559 4.31903146e-25)
(20.5237891 1.42283752 0)
(21.4259878 1.51331463 9.02323281e-24)
(22.2169891 1.59411644 8.13736715e-24)
(22.9003118 1.63477618 -1.0740449e-23)
(23.4330517 1.68941102 -2.94951819e-23)
(23.7074394 1.69265733 -1.0431092e-23)
(23.7433145 1.71300151 -7.68741331e-24)
(23.7288041 1.75136455 -6.80148706e-24)
(23.685183 1.7508401 -2.09122957e-24)
(23.6973803 1.66095598 1.61610637e-23)
(23.6936127 1.6565193 7.35542562e-24)
(23.7114714 1.62656642 -1.36536286e-23)
(23.7246645 1.57772893 -1.02149822e-23)
(23.7476694 1.53058046 -1.6706286e-23)
(23.743397 1.50631922 -1.22251568e-23)
(23.7750279 1.45584478 -1.0804348e-23)
(23.8511888 1.35736975 2.27300019e-31)
(23.9305055 1.30867106 3.46947351e-23)
(23.909076 1.30771718 3.21936647e-23)
(-0.0307960676 0.0180273142 1.68357224e-27)
(-0.0933016375 0.0543295668 -7.78305958e-29)
(-0.157527402 0.0912916541 5.94571248e-27)
(-0.223068457 0.128672853 1.36997533e-34)
(-0.289386966 0.166187268 -5.61604837e-27)
(-0.355845818 0.203499299 -5.25318185e-27)
(-0.421757933 0.240257919 -1.02946725e-26)
(-0.486434512 0.276127762 -4.45965294e-27)
(-0.549218092 0.310809052 -4.02664596e-27)
(-0.609498697 0.344047689 -3.24817227e-27)
(-0.666717964 0.375637747 -2.77730334e-27)
(-0.720384519 0.405395886 -2.33778628e-27)
(-0.769979684 0.433202609 -1.66879745e-27)
(-0.815055198 0.458993532 1.39238255e-28)
(-0.855241338 0.482656674 -3.97426233e-28)
(-0.890069304 0.504192932 -4.35309998e-28)
(-0.919064415 0.52360084 1.75046868e-26)
(-0.941758162 0.540746954 2.05954892e-26)
(-0.957602481 0.55573717 1.16319222e-27)
(-0.966075023 0.568560233 1.25973778e-27)
(-0.966574872 0.579241782 3.27291396e-26)
(-0.958429839 0.587804927 3.72300524e-26)
(-0.940888467 0.594292508 0)
(-0.913145024 0.598736691 -1.82627645e-27)
(-0.874297696 0.601198112 0)
(-0.823339351 0.601759987 0)
(-0.759140831 0.600521991 -2.44800851e-27)
(-0.68041827 0.597595859 -5.53786485e-26)
(-0.585672345 0.593100892 -6.47974584e-26)
(-0.473270664 0.587152575 6.14440484e-26)
(-0.341697922 0.579706595 6.33614659e-26)
(-0.188851517 0.571012707 -8.0696022e-27)
(-0.012918968 0.562532774 8.74125893e-27)
(0.183014555 0.554752155 0)
(0.413898766 0.545760784 -1.08293657e-26)
(0.677530594 0.53588411 0)
(0.977165965 0.526782613 0)
(1.31704291 0.51892638 -1.46011371e-26)
(1.70074062 0.512497817 0)
(2.13244176 0.508075589 0)
(2.61659471 0.50627606 1.59780192e-25)
(3.15752082 0.507766756 1.56001982e-25)
(3.75930946 0.513301976 0)
(4.42551545 0.523691063 0)
(5.1592444 0.539704204 0)
(5.96278515 0.562128678 -7.47599045e-26)
(6.83724132 0.591787111 -8.73482426e-26)
(7.78215389 0.629484831 1.07986646e-24)
(8.79508413 0.675956217 1.24789652e-24)
(9.87112767 0.731812793 1.56829142e-24)
(11.0025147 0.797466257 1.95064995e-24)
(12.1780844 0.873193798 2.55160656e-24)
(13.3818922 0.959326382 2.9014469e-24)
(14.5965519 1.05547646 0)
(15.8055971 1.15999135 0)
(16.9921213 1.27061977 -2.91773573e-24)
(18.1361973 1.38562865 -6.59950075e-24)
(19.2212895 1.5013614 -3.68340257e-24)
(20.2250288 1.61703772 -3.80233194e-24)
(21.1400399 1.72202949 -2.8249551e-24)
(21.9569802 1.81858937 7.95252443e-24)
(22.6550697 1.89246657 1.82604823e-23)
(23.2445222 1.96333383 5.55729481e-25)
(23.6146344 1.99978688 -1.50218295e-23)
(23.769006 2.05774429 5.0214254e-25)
(23.7830914 2.03433267 -1.48030664e-24)
(23.7728401 2.06394286 5.9896464e-24)
(23.7298611 2.05051092 -1.87582678e-31)
(23.7364248 2.02735722 -1.18338716e-23)
(23.7325994 1.98556939 -1.0638944e-24)
(23.7513835 1.96069607 1.05270937e-23)
(23.7618296 1.94174847 1.01106494e-23)
(23.7870438 1.89355749 0)
(23.7838805 1.85626606 1.33645595e-24)
(23.805441 1.81396046 0)
(23.8600816 1.75705148 1.26081998e-23)
(23.9014535 1.68586352 2.62247666e-23)
(23.9468263 1.6365783 1.42828943e-23)
(24.0252024 1.5411032 1.48243658e-23)
(24.0229337 1.53374145 2.9073392e-23)
(-0.0332933758 0.0177685171 1.80144556e-27)
(-0.100620212 0.0533903084 5.81167529e-27)
(-0.169481036 0.089474961 5.55288477e-29)
(-0.239340754 0.12575374 -5.31251516e-27)
(-0.30952264 0.161921961 -4.75466343e-27)
(-0.379250753 0.197632638 -4.02812567e-27)
(-0.447704919 0.232531556 1.44224939e-28)
(-0.514071751 0.266287599 2.35994847e-27)
(-0.577578469 0.298610705 1.13045662e-27)
(-0.63751006 0.329259832 -3.49863024e-28)
(-0.693211521 0.358045521 0)
(-0.744069873 0.38484701 4.64660213e-28)
(-0.789526 0.409546893 -2.56112988e-28)
(-0.829021106 0.43205079 0)
(-0.861965237 0.452384099 0)
(-0.887815505 0.470488074 0)
(-0.905972075 0.486386694 0)
(-0.915793143 0.500094493 4.3183014e-28)
(-0.916576114 0.511646033 0)
(-0.907564811 0.52107476 -2.60930599e-26)
(-0.88791008 0.528454447 -2.96055828e-26)
(-0.856705345 0.533852301 7.05560537e-26)
(-0.812928062 0.537362435 7.65903502e-26)
(-0.75544624 0.539093873 -8.56870319e-26)
(-0.68299328 0.539173801 -8.97997085e-26)
(-0.594110235 0.537748404 -9.77942889e-26)
(-0.487178096 0.534967616 -9.99086656e-26)
(-0.360535441 0.530820313 -1.01506187e-25)
(-0.21221428 0.525473022 -2.93754089e-25)
(-0.0404616169 0.520179671 -1.54157893e-25)
(0.152136543 0.515535708 0)
(0.378504129 0.510257346 7.75112847e-27)
(0.637191368 0.504433441 8.40213972e-27)
(0.931540914 0.499445708 0)
(1.26519233 0.495935886 -1.08744627e-26)
(1.64141607 0.49425052 0)
(2.06407538 0.494961052 0)
(2.53726005 0.498674876 2.27321125e-25)
(3.0649474 0.506061428 1.68972152e-26)
(3.65092112 0.517870077 -3.3700239e-25)
(4.2985857 0.534933513 3.86527105e-25)
(5.01092106 0.558093943 5.00132511e-25)
(5.79023737 0.588169861 -2.85682774e-26)
(6.6378137 0.625963487 0)
(7.55358687 0.672226257 1.0358482e-24)
(8.53581253 0.727602226 1.10155057e-24)
(9.58073252 0.792579777 0)
(10.6822365 0.867428692 0)
(11.8315556 0.952185868 -2.05262524e-24)
(13.0165411 1.04663603 -2.46828308e-24)
(14.2215152 1.15040625 3.03095996e-24)
(15.4266038 1.2633163 3.4412253e-24)
(16.6140725 1.3833895 -3.25770086e-24)
(17.7662511 1.50844881 5.70726763e-32)
(18.8635171 1.63535706 3.85154839e-24)
(19.8904579 1.76129316 1.94978844e-26)
(20.8229675 1.88170039 0)
(21.6609177 1.9946252 5.07667283e-25)
(22.3720218 2.09100929 -3.90999655e-24)
(22.9962027 2.17485163 6.12801088e-25)
(23.4390551 2.22797765 7.19196007e-24)
(23.7094051 2.26849684 0)
(23.767776 2.2600101 7.46129446e-25)
(23.8128125 2.27777187 0)
(23.8025978 2.25815571 4.84588588e-25)
(23.7634933 2.29810597 -5.24764795e-25)
(23.7572728 2.26396211 -1.17215875e-24)
(23.7643509 2.24870503 -1.2737698e-23)
(23.7652567 2.19987434 -1.3657679e-23)
(23.7718008 2.21059451 -1.04569818e-24)
(23.777745 2.16490872 -1.18096034e-23)
(23.7860281 2.1320779 -1.16861695e-23)
(23.8075415 2.07075503 -1.31492906e-23)
(23.8202522 2.03566155 -1.15344293e-23)
(23.8146702 2.02254252 -1.07620508e-23)
(23.871209 1.93063487 -1.37742198e-23)
(23.909544 1.88154443 1.4257173e-23)
(23.9263593 1.84229344 1.51357082e-23)
(23.9935769 1.77269392 -2.6938814e-24)
(24.0223489 1.65813899 2.43549892e-24)
(-0.0358993979 0.0173845454 1.58323109e-27)
(-0.10802897 0.0520361292 -4.97243502e-27)
(-0.181241 0.0869176526 -6.96592249e-30)
(-0.254840154 0.121736243 -4.91145849e-36)
(-0.327988219 0.156173096 -2.57274089e-27)
(-0.399753125 0.189878366 -1.10265996e-30)
(-0.469169346 0.222505248 8.46059333e-29)
(-0.535290453 0.253738871 -9.42598611e-36)
(-0.597216534 0.283323426 -9.01343135e-27)
(-0.654116838 0.311033999 -7.13368652e-27)
(-0.705197605 0.336717793 -4.44953194e-29)
(-0.749717354 0.36024158 -1.1717071e-26)
(-0.786957458 0.3815689 -1.46607951e-26)
(-0.816219777 0.400652326 -1.79790201e-26)
(-0.836787658 0.41749213 -2.1681982e-26)
(-0.847918276 0.432115787 2.57121448e-26)
(-0.848820117 0.444577396 2.98619661e-26)
(-0.838647383 0.454927595 2.43272257e-28)
(-0.816446846 0.463271198 0)
(-0.781220364 0.469699888 -4.38498332e-26)
(-0.731842295 0.474342244 -4.84504827e-26)
(-0.667066714 0.477342658 8.568864e-28)
(-0.585475953 0.478867932 5.83932514e-26)
(-0.485495516 0.479099663 5.95498727e-26)
(-0.365509611 0.47809227 2.8522713e-27)
(-0.22344738 0.475972061 0)
(-0.0575921657 0.473756085 -1.7175667e-27)
(0.130196421 0.472161341 9.6512484e-29)
(0.349365867 0.470490162 -1.49562129e-25)
(0.601606615 0.468500603 -1.96137477e-25)
(0.888758061 0.467410045 2.25536536e-25)
(1.21405578 0.468069035 2.4267612e-25)
(1.5807626 0.470851254 1.56705781e-26)
(1.99240114 0.476301387 -2.79856959e-25)
(2.45270604 0.485046099 7.15406845e-33)
(2.96534867 0.49779907 3.39037369e-25)
(3.53386411 0.515340417 -3.75665875e-25)
(4.16147683 0.538509979 -4.51211418e-25)
(4.85099541 0.568160688 3.52122072e-26)
(5.6046911 0.605110171 -1.99888302e-26)
(6.42394445 0.65014552 -2.41227588e-26)
(7.3089802 0.703993679 -9.14042066e-25)
(8.25856832 0.767267089 -2.25402911e-24)
(9.2697226 0.840403741 -1.35031657e-24)
(10.3374146 0.923605576 -1.54834453e-24)
(11.4543076 1.01678012 -1.97806647e-24)
(12.610503 1.11948361 0)
(13.7933145 1.23085242 2.95524536e-24)
(14.9872543 1.34964466 3.48369798e-24)
(16.1719101 1.47498741 3.76795341e-24)
(17.3285057 1.60469136 7.87303215e-24)
(18.4386095 1.736099 8.19130285e-24)
(19.483212 1.86661951 8.65492689e-24)
(20.4446484 1.99334255 9.08130456e-24)
(21.3053896 2.11347818 4.73601545e-24)
(22.0561108 2.22084035 -7.51957667e-25)
(22.6794849 2.31183799 0)
(23.1951251 2.37885118 -5.74165385e-24)
(23.5646136 2.44198127 -5.95047731e-24)
(23.7098592 2.46571771 0)
(23.7497188 2.50743068 -4.78062471e-24)
(23.7585517 2.50649014 -5.16804047e-24)
(23.7464298 2.5173502 0)
(23.7367062 2.50334416 -4.62853392e-25)
(23.7445408 2.4550083 0)
(23.7543525 2.40683658 -9.88718301e-24)
(23.7546663 2.38554093 -1.39769178e-24)
(23.7490075 2.34170416 1.27211283e-23)
(23.7425253 2.34077984 -7.7785764e-25)
(23.7538412 2.28654904 -1.10158367e-24)
(23.7719162 2.24198635 -1.36856381e-23)
(23.7715056 2.21790902 -1.1555372e-23)
(23.765441 2.22357947 -9.32511676e-25)
(23.7918367 2.15514398 -1.06482624e-24)
(23.8048425 2.11496271 -7.30140915e-26)
(23.8191832 2.09640421 -1.43737923e-24)
(23.8880468 2.03330148 1.53725862e-23)
(23.9447559 1.94230988 2.67672891e-23)
(23.9724231 1.93223665 1.42893411e-23)
(23.9977347 1.84770423 -3.40423429e-24)
(-0.0382233933 0.0166958026 0)
(-0.114325484 0.0497593273 -1.00308246e-28)
(-0.190751092 0.0828184199 1.02787624e-28)
(-0.26661705 0.115566783 8.81180137e-29)
(-0.340900673 0.147684066 1.08751181e-28)
(-0.412494235 0.17882675 1.11121368e-28)
(-0.480259187 0.208669988 -6.03172363e-27)
(-0.543081287 0.23692588 0)
(-0.59990139 0.263348271 2.22413441e-28)
(-0.649723273 0.287776946 -1.41487862e-26)
(-0.691610369 0.310083517 -1.74574723e-26)
(-0.724661815 0.330199613 2.15272567e-26)
(-0.747997037 0.348102853 2.13149442e-28)
(-0.7607336 0.363811287 -6.0490415e-26)
(-0.761957435 0.377383786 -7.02388131e-26)
(-0.750717817 0.388878011 -3.98042477e-26)
(-0.725953106 0.398427437 -1.4573951e-28)
(-0.686576225 0.406146865 -5.11683767e-26)
(-0.631360611 0.412201688 -5.70780226e-26)
(-0.558949466 0.416779252 9.69891801e-30)
(-0.467833287 0.420076873 8.86206165e-30)
(-0.356435193 0.4221951 3.50252775e-28)
(-0.222742698 0.423315004 -9.05158761e-26)
(-0.0650677916 0.42428356 -2.01072306e-25)
(0.115490602 0.425709401 -9.2229424e-26)
(0.326235788 0.427298909 7.42149181e-28)
(0.569741228 0.428910432 -1.13534885e-25)
(0.847274972 0.431574306 -1.26990117e-27)
(1.16209222 0.436132673 1.60733904e-27)
(1.51718592 0.443026984 -1.42985777e-25)
(1.91577338 0.452793282 0)
(2.36128694 0.466103434 -3.33910012e-25)
(2.85712972 0.483693626 6.61418429e-27)
(3.40659322 0.506349747 4.08466884e-25)
(4.01271482 0.534910612 4.61907544e-25)
(4.67814655 0.570238869 5.25367696e-25)
(5.40511611 0.613160979 1.32368036e-26)