/*--------------------------------*- C++ -*----------------------------------*\
  =========                 |
  \\      /  F ield         | OpenFOAM: The Open Source CFD Toolbox
   \\    /   O peration     | Website:  https://openfoam.org
    \\  /    A nd           | Version:  8
     \\/     M anipulation  |
\*---------------------------------------------------------------------------*/
FoamFile
{
    version     2.0;
    format      ascii;
    class       surfaceScalarField;
    location    "0.067";
    object      phi;
}
// * * * * * * * * * * * * * * * * * * * * * * * * * * * * * * * * * * * * * //

dimensions      [1 0 -1 0 0 0 0];

internalField   nonuniform List<scalar> 
84340
(
-6.74394365e-08
3.23880573e-07
-2.56614778e-07
-2.67624724e-07
9.75469405e-07
-7.75564786e-07
-6.03229115e-07
1.6560544e-06
-1.32079655e-06
-1.07770251e-06
2.37080027e-06
-1.89673024e-06
-1.69539211e-06
3.12315609e-06
-2.50592002e-06
-2.46148705e-06
3.91550735e-06
-3.14991244e-06
-3.38189738e-06
4.74966324e-06
-3.82979826e-06
-4.46306775e-06
5.62709229e-06
-4.54651322e-06
-5.71176669e-06
6.54900558e-06
-5.30094574e-06
-7.13487389e-06
7.51637631e-06
-6.09395878e-06
-8.73917763e-06
8.52995176e-06
-6.92639159e-06
-1.05311886e-05
9.59026284e-06
-7.79905321e-06
-1.2516973e-05
1.06976356e-05
-8.71271427e-06
-1.47020047e-05
1.1852204e-05
-9.66810193e-06
-1.7091022e-05
1.30539174e-05
-1.06659007e-05
-1.96879058e-05
1.43025589e-05
-1.1706752e-05
-2.2495542e-05
1.55977503e-05
-1.27912725e-05
-2.55156927e-05
1.69389595e-05
-1.39200545e-05
-2.87488445e-05
1.83255044e-05
-1.50936915e-05
-3.21940426e-05
1.97565452e-05
-1.63127856e-05
-3.58487005e-05
2.12310733e-05
-1.75779601e-05
-3.97083817e-05
2.27478902e-05
-1.88898669e-05
-4.37665446e-05
2.43055702e-05
-2.02491858e-05
-4.80142614e-05
2.59024215e-05
-2.16566118e-05
-5.24398832e-05
2.75364171e-05
-2.31128391e-05
-5.70286713e-05
2.92051208e-05
-2.46185219e-05
-6.17623866e-05
3.09055795e-05
-2.61742077e-05
-6.66188157e-05
3.26341871e-05
-2.77802655e-05
-7.15712193e-05
3.43864814e-05
-2.94367588e-05
-7.65876626e-05
3.61568754e-05
-3.11432969e-05
-8.16303544e-05
3.79384766e-05
-3.28988439e-05
-8.66552453e-05
3.97230899e-05
-3.47014633e-05
-9.16118245e-05
4.15010717e-05
-3.65479712e-05
-9.64426205e-05
4.32605995e-05
-3.84335043e-05
-0.000101082428
4.49873894e-05
-4.03515222e-05
-0.000105451991
4.66597407e-05
-4.2294386e-05
-0.000109462982
4.82594829e-05
-4.42529599e-05
-0.00011303108
4.97753946e-05
-4.62119497e-05
-0.000116065071
5.1166241e-05
-4.81370951e-05
-0.000118427402
5.23791489e-05
-5.00219872e-05
-0.000119906757
5.33308107e-05
-5.18569692e-05
-0.000120268734
5.39628267e-05
-5.36066478e-05
-0.000119278996
5.42068829e-05
-5.52026831e-05
-0.000116677398
5.39636628e-05
-5.65716237e-05
-0.000112172835
5.31201076e-05
-5.76313602e-05
-0.000105410641
5.15478443e-05
-5.83170185e-05
-9.59811514e-05
4.90856713e-05
-5.852241e-05
-8.33973957e-05
4.55408686e-05
-5.81321195e-05
-6.72031961e-05
4.0799422e-05
-5.70013423e-05
-4.68268558e-05
3.45734904e-05
-5.49577442e-05
-2.18791748e-05
2.68478682e-05
-5.18036424e-05
8.56230756e-06
1.68306592e-05
-4.72803997e-05
4.54929128e-05
4.31104259e-06
-4.12499267e-05
8.99438913e-05
-1.11830817e-05
-3.32760904e-05
0.000143107045
-2.97949024e-05
-2.33765186e-05
0.000206336829
-5.26938696e-05
-1.05442129e-05
0.000281082322
-8.02665325e-05
5.5128196e-06
0.000368808222
-0.000113088367
2.53544339e-05
0.000471534871
-0.000151934313
4.91998021e-05
0.000590841862
-0.000197719289
7.84046756e-05
0.000728763416
-0.000251298733
0.0001133697
0.000887406651
-0.00031355339
0.00015490294
0.00106889886
-0.000385480497
0.000203981188
0.00127530506
-0.000468041369
0.000261628069
0.00150905545
-0.000562532928
0.000328775382
0.00177092696
-0.000667834487
0.000405955956
0.00206061711
-0.000784879927
0.000495182112
0.00238742219
-0.000925279905
0.000598466071
0.00274190395
-0.00105614265
0.000701650149
0.00309979485
-0.00120052346
0.00084261944
0.00352825888
-0.00143954203
0.00101106148
0.00403830417
-0.00157501251
0.00106494682
0.00441271956
-0.00164102829
0.00126658832
0.00472107761
-0.00201069578
0.00170230897
0.00532791068
-0.00238904742
0.00178218023
0.0060823612
-0.00239403748
0.00163954892
0.00657449391
-0.00242614973
0.0019339792
0.00676990491
-0.0026868936
0.00249143991
0.00698327609
-0.00299339901
0.00277995051
-0.0031725112
0.00279596842
0.00735975287
-5.3734388e-08
3.77396244e-07
-2.12869125e-07
1.1342947e-06
-4.79298606e-07
1.92212813e-06
-8.5562346e-07
2.74672648e-06
-1.34504199e-06
3.61213541e-06
-1.95145459e-06
4.52144088e-06
-2.67930038e-06
5.47698947e-06
-3.53339092e-06
6.48062107e-06
-4.51871188e-06
7.53372012e-06
-5.6402173e-06
8.63722767e-06
-6.90262649e-06
9.79165579e-06
-8.31023133e-06
1.09971077e-05
-9.86671442e-06
1.22532998e-05
-1.15749752e-05
1.35595828e-05
-1.34369715e-05
1.4914964e-05
-1.54535471e-05
1.63181124e-05
-1.76242689e-05
1.77673725e-05
-1.99472457e-05
1.92607542e-05
-2.2418928e-05
2.07959164e-05
-2.50338875e-05
2.23701407e-05
-2.77845662e-05
2.39802884e-05
-3.06609829e-05
2.56227373e-05
-3.36504078e-05
2.72933132e-05
-3.67369745e-05
2.89871875e-05
-3.99012324e-05
3.06987483e-05
-4.31196341e-05
3.24214629e-05
-4.6363971e-05
3.41477163e-05
-4.96007779e-05
3.5868646e-05
-5.27907362e-05
3.75739364e-05
-5.5887948e-05
3.92514222e-05
-5.88387087e-05
4.08863977e-05
-6.1582825e-05
4.24641785e-05
-6.40509278e-05
4.39659752e-05
-6.61660653e-05
4.53723798e-05
-6.78519231e-05
4.66696847e-05
-6.90123125e-05
4.78163425e-05
-6.95127426e-05
4.87559175e-05
-6.91644611e-05
4.9422907e-05
-6.77643744e-05
4.97617256e-05
-6.50953672e-05
4.97054567e-05
-6.09377501e-05
4.91682439e-05
-5.50299125e-05
4.80497976e-05
-4.70606787e-05
4.62322101e-05
-3.66827928e-05
4.35800953e-05
-2.3487735e-05
3.99191199e-05
-7.08957234e-06
3.51435193e-05
1.29932421e-05
2.89964825e-05
3.69786133e-05
2.15489022e-05
6.58473776e-05
1.19239154e-05
0.000100467591
-5.35534003e-08
0.000141770653
-1.44622502e-05
0.00019082058
-3.22265272e-05
0.000248825924
-5.37016929e-05
0.000316983532
-7.93481628e-05
0.000396961088
-0.000109780011
0.000490016962
-0.000145757307
0.000597776074
-0.000188033246
0.000722052287
-0.000237372146
0.000864720721
-0.000294610268
0.00102765321
-0.000360659098
0.00121273308
-0.000436385876
0.00142187333
-0.000522700662
0.00165664174
-0.000620255547
0.00191826489
-0.000729670469
0.00220863855
-0.000852912409
0.00252912315
-0.000988324965
0.00287270902
-0.00112847248
0.00324414481
-0.00129672346
0.00365870851
-0.00147071614
0.00406762216
-0.00160944922
0.00445347204
-0.00182540732
0.00495763996
-0.0020791993
0.00549694541
-0.00218035625
0.00581857634
-0.0023323537
0.0060779005
-0.0026484059
0.00652482519
-0.00284099516
0.00700996495
-0.00291132089
0.00729711838
-0.00297408752
0.00740717817
-0.00310350147
-0.00325774568
0.0074923633
-4.08228693e-08
4.17965369e-07
-1.61264241e-07
1.25437602e-06
-3.62293291e-07
2.12274272e-06
-6.45413869e-07
3.02938254e-06
-1.01258281e-06
3.97879295e-06
-1.4660963e-06
4.97439749e-06
-2.00852239e-06
6.01881301e-06
-2.64271813e-06
7.11416724e-06
-3.37151276e-06
8.26181603e-06
-4.19750447e-06
9.4624688e-06
-5.1228572e-06
1.0716203e-05
-6.1491015e-06
1.20224881e-05
-7.27694151e-06
1.33802139e-05
-8.50606411e-06
1.47877137e-05
-9.83494743e-06
1.62427856e-05
-1.12606692e-05
1.77426985e-05
-1.27786961e-05
1.92841852e-05
-1.43826656e-05
2.08634263e-05
-1.60641377e-05
2.24760033e-05
-1.78123175e-05
2.41168422e-05
-1.96137242e-05
2.57801186e-05
-2.14517804e-05
2.74591131e-05
-2.33063466e-05
2.91460892e-05
-2.51531948e-05
3.08321295e-05
-2.69634412e-05
3.25069666e-05
-2.87028194e-05
3.41586844e-05
-3.03319661e-05
3.57745691e-05
-3.18059737e-05
3.73402124e-05
-3.30742211e-05
3.88395956e-05
-3.40804994e-05
4.02549706e-05
-3.4764504e-05
4.15675075e-05
-3.50507854e-05
4.27473846e-05
-3.48414434e-05
4.37533777e-05
-3.40176915e-05
4.45451803e-05
-3.2421161e-05
4.50695068e-05
-2.98767801e-05
4.52681069e-05
-2.61996945e-05
4.507474e-05
-2.11905376e-05
4.44094096e-05
-1.46238018e-05
4.31904061e-05
-6.23610906e-06
4.13129318e-05
4.26930271e-06
3.86577433e-05
1.72578476e-05
3.50559092e-05
3.30962046e-05
3.03882542e-05
5.19935721e-05
2.46768595e-05
7.4597017e-05
1.73095113e-05
0.00010156171
8.17249015e-06
0.000133596454
-3.04472195e-06
0.000171540083
-1.64014956e-05
0.000216462559
-3.30056841e-05
0.00026935517
-5.29535264e-05
0.000331548923
-7.66635963e-05
0.000404076086
-0.00010476148
0.000488244481
-0.000137878077
0.000585570624
-0.000176682455
0.000697688433
-0.00022190615
0.00082625519
-0.00027433243
0.000972933235
-0.000334719654
0.00113941772
-0.000403864889
0.00132743844
-0.00048263923
0.00153860858
-0.000571837081
0.00177436559
-0.00067215001
0.0020357495
-0.000784090721
0.00232324417
-0.000907755779
0.00263604527
-0.00104247661
0.00297271188
-0.00118958408
0.00333587555
-0.00135149387
0.00371931306
-0.00151191612
0.00410601287
-0.00168343057
0.00451396327
-0.00187867589
0.00495475842
-0.00205025609
0.00533817498
-0.002208839
0.00568451592
-0.00242555834
0.00610059773
-0.00259645836
0.00645939251
-0.00269117157
0.00662350934
-0.00281255207
0.00673780756
-0.00295533177
0.00690740145
-0.0030809581
0.00711617543
-0.00318290006
0.00728408608
-0.0032714588
-0.00336829179
0.00739458517
-3.20888647e-08
4.49832733e-07
-1.2594366e-07
1.34791805e-06
-2.81432811e-07
2.27787303e-06
-4.98733628e-07
3.24628191e-06
-7.78350481e-07
4.25796812e-06
-1.12094331e-06
5.31650907e-06
-1.5272986e-06
6.42464687e-06
-1.99791049e-06
7.58421603e-06
-2.53303205e-06
8.79633048e-06
-3.1325305e-06
1.00613133e-05
-3.79558428e-06
1.13785528e-05
-4.52047275e-06
1.27466191e-05
-5.30435926e-06
1.41632858e-05
-6.14307998e-06
1.56255586e-05
-7.03092243e-06
1.71296871e-05
-7.96038533e-06
1.86711509e-05
-8.9219281e-06
2.02446435e-05
-9.90366477e-06
2.18440001e-05
-1.08910011e-05
2.34620934e-05
-1.18662116e-05
2.50907182e-05
-1.28081482e-05
2.67206277e-05
-1.3691685e-05
2.83411243e-05
-1.4488469e-05
2.99412427e-05
-1.51658582e-05
3.15077772e-05
-1.56869533e-05
3.30262082e-05
-1.60105355e-05
3.44802958e-05
-1.60851826e-05
3.58471212e-05
-1.58488297e-05
3.71016352e-05
-1.52283564e-05
3.82167573e-05
-1.41367185e-05
3.91608211e-05
-1.24659295e-05
3.98940525e-05
-1.00913506e-05
4.03699781e-05
-6.8748905e-06
4.05339242e-05
-2.65466193e-06
4.03217719e-05
2.75371567e-06
3.96577502e-05
9.54872822e-06
3.84695174e-05
1.79573115e-05
3.66623734e-05
2.82372159e-05
3.41255081e-05
4.07127619e-05
3.07106427e-05
5.57214747e-05
2.6299767e-05
7.34635008e-05
2.09110148e-05
9.45326239e-05
1.39819004e-05
0.000119497616
5.41819231e-06
0.000149018893
-4.84979293e-06
0.00018384835
-1.75256416e-05
0.000224863341
-3.28484696e-05
0.000273005464
-5.11931105e-05
0.00032958072
-7.29833064e-05
0.000395344454
-9.87762782e-05
0.000471503309
-0.000129119534
0.000559455527
-0.000164623284
0.000660640725
-0.000205954448
0.000776542062
-0.000253787444
0.000908704436
-0.000308853007
0.00105867856
-0.000371888603
0.00122796334
-0.000443625624
0.00141809712
-0.000524862005
0.00163044348
-0.000616219528
0.00186599306
-0.000718196387
0.00212524529
-0.000831095963
0.00240808763
-0.000954998294
0.00271359878
-0.00108960714
0.00304005652
-0.00123421841
0.00338460511
-0.00138702979
0.00374105053
-0.00154603425
0.00410644472
-0.00171689311
0.00448315956
-0.00188863696
0.00485378843
-0.0020540667
0.00519967787
-0.00222457427
0.00554058203
-0.00239117094
0.0058494381
-0.00251770866
0.00605823708
-0.00263437544
0.00621359225
-0.00275183701
0.00639123403
-0.0028688426
0.00655778008
-0.00297913113
0.0066796476
-0.00307723018
0.0067735865
-0.00317493188
0.00686781285
-0.00327716719
0.00697372277
-0.00337740887
-0.00347915045
0.00708454581
-2.85586721e-08
4.78118833e-07
-1.10869545e-07
1.42984429e-06
-2.45573434e-07
2.41213593e-06
-4.31449097e-07
3.43166502e-06
-6.6726541e-07
4.49324381e-06
-9.51819894e-07
5.60047638e-06
-1.28375914e-06
6.7559523e-06
-1.66125273e-06
7.96102804e-06
-2.08178631e-06
9.21613289e-06
-2.54180656e-06
1.05205506e-05
-3.03694447e-06
1.18728531e-05
-3.56153742e-06
1.3270317e-05
-4.10838857e-06
1.47091811e-05
-4.6685101e-06
1.61846603e-05
-5.23084449e-06
1.76909341e-05
-5.78197014e-06
1.92211181e-05
-6.30578333e-06
2.07672235e-05
-6.78319577e-06
2.23201009e-05
-7.19232543e-06
2.3869828e-05
-7.5078962e-06
2.54048056e-05
-7.70007366e-06
2.69112325e-05
-7.73312305e-06
2.8372508e-05
-7.56576671e-06
2.97721193e-05
-7.14988689e-06
3.10900247e-05
-6.42897682e-06
3.23033158e-05
-5.33624754e-06
3.33854679e-05
-3.79608446e-06
3.43047332e-05
-1.72041813e-06
3.50236127e-05
9.9536568e-07
3.54984804e-05
4.47531799e-06
3.56782238e-05
8.86364668e-06
3.55029134e-05
1.4319034e-05
3.49116112e-05
2.10192557e-05
3.38305438e-05
2.91669492e-05
3.21707309e-05
3.89913034e-05
2.98298473e-05
5.07808001e-05
2.66762636e-05
6.4845153e-05
2.2594033e-05
8.13859114e-05
1.7580515e-05
0.000100937628
1.11544951e-05
0.000124008939
3.22383001e-06
0.000151183493
-6.26847865e-06
0.000183120266
-1.7960154e-05
0.0002205873
-3.20544446e-05
0.000264617295
-4.88857219e-05
0.000315949342
-6.88639718e-05
0.000375546388
-9.24521565e-05
0.00044450247
-0.000120156211
0.000524048143
-0.000152536391
0.000615441828
-0.000190177793
0.000720025315
-0.000233711212
0.000839188502
-0.000283794979
0.000974320188
-0.000341094904
0.00112681747
-0.000406293748
0.00129799489
-0.000480039677
0.00148908923
-0.000562992465
0.00170111966
-0.000655665391
0.00193466247
-0.00075841344
0.00218974548
-0.000871310238
0.00246562584
-0.000994083644
0.00276067382
-0.00112615007
0.00307243467
-0.00126676469
0.00339748066
-0.00141465814
0.00373127538
-0.00156801788
0.0040686265
-0.00172438549
0.00440274134
-0.00188015393
0.00472342035
-0.00203757736
0.00503034729
-0.00219556998
0.00531087838
-0.00233460472
0.00554359618
-0.00245730151
0.00571993463
-0.00256752444
0.00587515537
-0.0026729471
0.0060164701
-0.00277570944
0.00613620101
-0.00287159008
0.00623666381
-0.00296932749
0.00633337693
-0.00307587381
0.0064317589
-0.00317564356
0.00652528833
-0.00326849194
0.00661512941
-0.00336703744
0.00670709597
-0.00346940841
-0.00357267665
0.0068005908
-2.88359957e-08
5.06737845e-07
-1.10968206e-07
1.51167144e-06
-2.43720383e-07
2.54453912e-06
-4.24271966e-07
3.61182696e-06
-6.49490975e-07
4.7180347e-06
-9.15801275e-07
5.86632086e-06
-1.2190183e-06
7.05866518e-06
-1.554385e-06
8.29585069e-06
-1.91607175e-06
9.57723313e-06
-2.29697176e-06
1.0900819e-05
-2.68805965e-06
1.22632615e-05
-3.07846412e-06
1.36599906e-05
-3.45528318e-06
1.50852147e-05
-3.8032726e-06
1.6531806e-05
-4.10456831e-06
1.79913235e-05
-4.33806273e-06
1.94536396e-05
-4.479131e-06
2.09072501e-05
-4.49893887e-06
2.23387949e-05
-4.36407964e-06
2.37337753e-05
-4.03604046e-06
2.50754875e-05
-3.47056997e-06
2.63443967e-05
-2.61731487e-06
2.75177979e-05
-1.41671911e-06
2.85699723e-05
2.01442639e-07
2.94702111e-05
2.3197473e-06
3.01832491e-05
5.03529306e-06
3.06680422e-05
8.4563683e-06
3.08816565e-05
1.27053821e-05
3.0772471e-05
1.79227736e-05
3.02788264e-05
2.42693215e-05
2.9329272e-05
3.19276442e-05
2.78420372e-05
4.11134882e-05
2.57230565e-05
5.20864819e-05
2.28546747e-05
6.51297164e-05
1.91244423e-05
8.04460176e-05
1.4510297e-05
9.85088633e-05
8.61001052e-06
0.000119770879
1.32844858e-06
0.000144743918
-7.39633652e-06
0.000174011289
-1.81169592e-05
0.000208246758
-3.10159796e-05
0.00024836814
-4.63944774e-05
0.000295030801
-6.46277198e-05
0.00034910081
-8.6129671e-05
0.000411560919
-0.000111351375
0.000483484191
-0.000140793145
0.000566014972
-0.00017498922
0.000660360166
-0.000214508062
0.000767765131
-0.000259948349
0.000889499138
-0.000311919133
0.00102680354
-0.000371023264
0.00118084419
-0.000437843594
0.0013526643
-0.000512923299
0.00154312904
-0.000596767129
0.00175284412
-0.000689763434
0.00198195999
-0.000792116542
0.00223005349
-0.000903766393
0.00249593543
-0.00102430224
0.0027775722
-0.00115295323
0.00307200997
-0.0012885271
0.00337523085
-0.0014293761
0.00368226425
-0.00157380285
0.00398744543
-0.00171984373
0.00428459063
-0.00186516736
0.00456675066
-0.00200654969
0.0048305136
-0.00214392125
0.00506319385
-0.00227026259
0.00525487202
-0.00238725522
0.00540790471
-0.00248764525
0.00553624305
-0.00258564895
0.00564667283
-0.0026779681
0.00574308974
-0.00276938051
0.00583184459
-0.00286447998
0.00591776069
-0.00295752317
0.00599555803
-0.0030471456
0.00606340454
-0.00314374877
0.00613690045
-0.00324917747
0.00622195203
-0.00335357665
0.00630980291
-0.00345491909
0.00640148638
-0.00356112816
-0.00366717505
0.00649595779
-3.10691084e-08
5.37535084e-07
-1.18036728e-07
1.59825689e-06
-2.56432291e-07
2.68249771e-06
-4.41414618e-07
3.79632216e-06
-6.67464951e-07
4.9435512e-06
-9.28181186e-07
6.12645823e-06
-1.21604841e-06
7.34590881e-06
-1.5221743e-06
8.60130744e-06
-1.8361824e-06
9.8905246e-06
-2.14598277e-06
1.1209853e-05
-2.43707078e-06
1.25535306e-05
-2.69252828e-06
1.39145743e-05
-2.89229193e-06
1.52840478e-05
-3.01280539e-06
1.66513284e-05
-3.02692813e-06
1.80043902e-05
-2.90315565e-06
1.9328744e-05
-2.60501136e-06
2.06079142e-05
-2.0906542e-06
2.18231749e-05
-1.31137117e-06
2.29531514e-05
-2.10056869e-07
2.39727495e-05
1.27881138e-06
2.48540188e-05
3.22979307e-06
2.55652175e-05
5.72869306e-06
2.60693784e-05
8.87327889e-06
2.63238306e-05
1.27751817e-05
2.6279445e-05
1.75616904e-05
2.58795197e-05
2.33826062e-05
2.50586073e-05
3.04112191e-05
2.37415985e-05
3.88456012e-05
2.18420494e-05
4.89177736e-05
1.9254563e-05
6.08859921e-05
1.5871125e-05
7.49494841e-05
1.16566996e-05
9.1524232e-05
6.27691469e-06
0.000111010936
-3.65424093e-07
0.000133860199
-8.34235086e-06
0.000160587831
-1.8121251e-05
0.000191784551
-2.98721434e-05
0.000228249776
-4.38656928e-05
0.000270570004
-6.04415982e-05
0.000319517345
-7.99680324e-05
0.000375968246
-0.000102850413
0.000440872174
-0.000129537034
0.000515245619
-0.000160508889
0.000600168398
-0.00019628031
0.000696761146
-0.000237392422
0.000806158746
-0.000284393718
0.000929476937
-0.000337833524
0.00106776386
-0.000398242909
0.00122194833
-0.000466111591
0.00139278317
-0.000541866466
0.00158077323
-0.000625842438
0.00178612088
-0.000718279915
0.00200853769
-0.000819192567
0.00224714639
-0.000928380128
0.00250034993
-0.00104532748
0.0027657879
-0.00116921115
0.00304031022
-0.00129883081
0.00331995736
-0.00143260611
0.00359997808
-0.0015685531
0.00387494454
-0.00170434742
0.00413861059
-0.00183747345
0.00438640051
-0.00196763791
0.004612017
-0.00209078787
0.00481092927
-0.00220546596
0.00498008184
-0.00231307877
0.00511653238
-0.00240671839
0.00522317961
-0.00249390801
0.00531697484
-0.00258144839
0.00540064138
-0.00266932567
0.00548090388
-0.00275824197
0.00555563153
-0.00284412037
0.00562282256
-0.00293168545
0.00568740191
-0.00302212318
0.00575615605
-0.00311592246
0.00582396957
-0.0032115833
0.00588811579
-0.00331334756
0.00595264266
-0.00341813106
0.00602320029
-0.00352550682
0.00609756628
-0.00363553062
-0.00374579394
0.00617614884
-3.12719688e-08
5.68609142e-07
-1.17113961e-07
1.68382168e-06
-2.50920673e-07
2.81598806e-06
-4.253252e-07
3.97037397e-06
-6.31841355e-07
5.14968011e-06
-8.60589567e-07
6.35478521e-06
-1.10000746e-06
7.58487084e-06
-1.33652379e-06
8.83733179e-06
-1.5541448e-06
1.01076156e-05
-1.73405566e-06
1.13891933e-05
-1.8546422e-06
1.26735023e-05
-1.89056239e-06
1.39498322e-05
-1.81216397e-06
1.52049376e-05
-1.58511488e-06
1.64235139e-05
-1.16957088e-06
1.7588023e-05
-5.19566912e-07
1.86778562e-05
4.17588979e-07
1.966981e-05
1.70243285e-06
2.0537314e-05
3.40419001e-06
2.12503046e-05
5.60204517e-06
2.1773728e-05
8.38674576e-06
2.20680697e-05
1.18629196e-05
2.20877085e-05
1.61504792e-05
2.17803923e-05
2.13868247e-05
2.10859624e-05
2.77291454e-05
1.99354998e-05
3.53569236e-05
1.82500096e-05
4.44786075e-05
1.59350789e-05
5.53295386e-05
1.2888701e-05
6.81030361e-05
9.0664531e-06
8.31633726e-05
4.19201169e-06
0.00010086404
-1.83187698e-06
0.000121603936
-9.08569347e-06
0.000145838316
-1.79601412e-05
0.000174084351
-2.86143121e-05
0.000207032317
-4.12933583e-05
0.000245208967
-5.63011437e-05
0.000289298605
-7.39652424e-05
0.000340077034
-9.46478141e-05
0.000398380891
-0.000118749401
0.00046510973
-0.000146701096
0.000541218021
-0.000178963215
0.000627698326
-0.000216022129
0.000725559186
-0.000258374829
0.000835795342
-0.000306521842
0.000959348461
-0.000360951221
0.00109706733
-0.000422118571
0.0012496513
-0.000490423781
0.00141758581
-0.000566184035
0.00160106778
-0.00064960053
0.00179996457
-0.00074077053
0.00201365258
-0.000839537635
0.00224089928
-0.000945533395
0.00247978976
-0.00105808941
0.00272767705
-0.00117627336
0.00298124703
-0.00129890301
0.00323660584
-0.00142457512
0.00348939087
-0.00155162065
0.00373494774
-0.0016781674
0.00396954207
-0.00180315155
0.00418788039
-0.00192268956
0.00438578109
-0.0020353775
0.00455787058
-0.00213973036
0.00470200505
-0.00223492549
0.00482222674
-0.00232569092
0.00492010062
-0.00241095622
0.00500649858
-0.00249312076
0.00508418709
-0.00257160164
0.00515609477
-0.00265336233
0.00522220674
-0.00273544533
0.00528206916
-0.00281811426
0.00533727937
-0.00289934287
0.00539086001
-0.00298528055
0.00544657739
-0.00307785849
0.00550221884
-0.00317158661
0.00556111179
-0.00327050435
0.00562440917
-0.00337667253
0.00569057935
-0.00348432707
0.00576265151
-0.00359761268
0.00584171012
-0.00371461798
-0.00382906108
0.00592495797
-2.76677936e-08
5.96018239e-07
-1.00303671e-07
1.75609456e-06
-2.08368688e-07
2.92363855e-06
-3.41089209e-07
4.10263282e-06
-4.86006323e-07
5.29409171e-06
-6.28601888e-07
6.49683313e-06
-7.51902779e-07
7.7075819e-06
-8.36055531e-07
8.92085175e-06
-8.57780395e-07
1.01286635e-05
-7.89868559e-07
1.13205585e-05
-6.00586953e-07
1.24834488e-05
-2.53062198e-07
1.36014842e-05
2.95077092e-07
1.46559215e-05
1.09251548e-06
1.56251425e-05
2.19534335e-06
1.64842029e-05
3.66752193e-06
1.72046231e-05
5.58194241e-06
1.77542702e-05
8.02263441e-06
1.80954348e-05
1.1085435e-05
1.8186244e-05
1.48798265e-05
1.79779998e-05
1.95309707e-05
1.74155084e-05
2.5181506e-05
1.64356715e-05
3.19938959e-05
1.49664107e-05
4.01552299e-05
1.29229428e-05
4.9878692e-05
1.02102492e-05
6.13493957e-05
6.77740604e-06
7.48853052e-05
2.39716882e-06
9.07981352e-05
-3.02623353e-06
0.000109440615
-9.57827193e-06
0.000131213826
-1.7583599e-05
0.000156569253
-2.71898577e-05
0.000186101653
-3.86208139e-05
0.000220282989
-5.21443792e-05
0.000259717212
-6.80516322e-05
0.000305085132
-8.66645859e-05
0.000357119049
-0.000108338599
0.00041660773
-0.000133457717
0.000484388632
-0.000162432775
0.000561333796
-0.000195698891
0.000648332285
-0.00023370419
0.000746266788
-0.00027690261
0.000855980651
-0.000325741181
0.000978243638
-0.000380643309
0.00111370459
-0.000441988592
0.00126283633
-0.000510089074
0.00142587435
-0.000585162995
0.00160275336
-0.000667309558
0.00179305016
-0.000756487972
0.001995916
-0.000852473579
0.00220993248
-0.000954793906
0.00243305861
-0.00106267027
0.00266254581
-0.00117502671
0.00289507507
-0.00129062441
0.00312679565
-0.00140799931
0.00335351773
-0.0015256301
0.00357115205
-0.00164221414
0.00377574379
-0.00175621677
0.00396457493
-0.0018670024
0.00413203657
-0.00197061649
0.00427611155
-0.00206676742
0.0043967328
-0.00215600194
0.00449612427
-0.00223912488
0.00458316583
-0.00232197018
0.00466178487
-0.00240431326
0.00473440139
-0.00248357587
0.00479993231
-0.00255865567
0.00486144433
-0.00263311902
0.00491700851
-0.00270893381
0.00497148201
-0.00278992806
0.00502948488
-0.00287612748
0.00509209448
-0.00296196388
0.00515451562
-0.00304771587
0.0052163246
-0.00313968517
0.00528035051
-0.00323563086
0.00534431819
-0.00333449007
0.00540936779
-0.00344174376
0.00548209553
-0.00355707634
0.0055571136
-0.00367265198
0.00563390506
-0.00379142876
-0.00390503652
0.00570986398
-1.87797895e-08
6.14627948e-07
-6.1754589e-08
1.79883162e-06
-1.15240903e-07
2.97685379e-06
-1.63681222e-07
4.15077092e-06
-1.89080054e-07
5.31915863e-06
-1.70508244e-07
6.47789996e-06
-8.35785017e-08
7.62026043e-06
1.00143044e-07
8.73670657e-06
4.13686718e-07
9.81466242e-06
8.95263214e-07
1.08384883e-05
1.58894379e-06
1.17892355e-05
2.54537876e-06
1.26444745e-05
3.82261079e-06
1.33780695e-05
5.48703369e-06
1.39600514e-05
7.61467608e-06
1.43558412e-05
1.02924193e-05
1.45261055e-05
1.36194219e-05
1.44264331e-05
1.77086003e-05
1.40053581e-05
2.26884548e-05
1.32054239e-05
2.87050316e-05
1.19603856e-05
3.59254441e-05
1.01939828e-05
4.45405925e-05
7.81932836e-06
5.47255448e-05
4.78017513e-06
6.67564606e-05
8.90660995e-07
8.09078959e-05
-3.94263792e-06
9.74910092e-05
-9.80726633e-06
0.000116858028
-1.69715247e-05
0.000139402019
-2.55720159e-05
0.000165632993
-3.58111609e-05
0.000195971987
-4.79246389e-05
0.000230949983
-6.21700397e-05
0.000271159299
-7.88324654e-05
0.000317238449
-9.82260232e-05
0.000369875411
-0.000120691263
0.000429801135
-0.000146593158
0.000497778685
-0.000176319178
0.000574589128
-0.000210271376
0.000661012413
-0.000248859466
0.000757800809
-0.000292490891
0.000865649897
-0.000341557083
0.000985159926
-0.000396416648
0.00111678993
-0.0004573754
0.00126080535
-0.000524663149
0.00141722033
-0.000598408202
0.00158573748
-0.000678611076
0.00176569223
-0.000765122848
0.0019560277
-0.000857650305
0.00215521727
-0.000955682746
0.00236121003
-0.00105847129
0.00257137375
-0.00116496231
0.00278260943
-0.00127391036
0.00299134611
-0.00138376753
0.00319379181
-0.00149307396
0.00338609931
-0.00160031039
0.00356459108
-0.00170412522
0.00372667529
-0.0018043014
0.00386991609
-0.00189946012
0.00399174773
-0.00198883613
0.00409298424
-0.00207185484
0.00417762018
-0.00215140533
0.00425062025
-0.00222900369
0.00431693345
-0.00230543944
0.00437646274
-0.00238150109
0.00443128633
-0.00245913882
0.0044876369
-0.00253992885
0.00454748276
-0.00261850442
0.00460937198
-0.00269501197
0.00466668989
-0.00276625603
0.00471754391
-0.00284078783
0.00476382933
-0.0029224214
0.00481435511
-0.00301250237
0.00487289282
-0.00310626709
0.00493747438
-0.00320427831
0.00500558369
-0.00330375448
0.00507683953
-0.00340576102
0.0051448642
-0.00350978362
0.00521386298
-0.0036260929
0.00528398723
-0.00374279468
0.00535297458
-0.00386043677
-0.00398027828
0.0054281991
-3.76186272e-09
6.18152447e-07
2.30976436e-09
1.79242795e-06
3.74315483e-08
2.94135343e-06
1.23524997e-07
4.06425616e-06
2.85855343e-07
5.15636712e-06
5.53638858e-07
6.2096168e-06
9.60674653e-07
7.21268666e-06
1.54600581e-06
8.1507984e-06
2.35457606e-06
9.00547474e-06
3.43810426e-06
9.75430044e-06
4.85595212e-06
1.03706837e-05
6.67591825e-06
1.08237583e-05
8.97566739e-06
1.10775218e-05
1.18438329e-05
1.10910355e-05
1.53813922e-05
1.08173766e-05
1.9703214e-05
1.02033209e-05
2.4940793e-05
9.18783102e-06
3.12438508e-05
7.70121412e-06
3.87659989e-05
5.68212111e-06
4.7688821e-05
3.0363349e-06
5.82482058e-05
-3.667003e-07
7.06829082e-05
-4.61674455e-06
8.5264701e-05
-9.80307799e-06
0.000102300954
-1.61471492e-05
0.000122132834
-2.37761733e-05
0.000145195867
-3.28720604e-05
0.00017186412
-4.36416528e-05
0.000202602045
-5.63119364e-05
0.000237922969
-7.11342109e-05
0.000278381247
-8.83851835e-05
0.000324574448
-0.000108365662
0.000377138127
-0.000131398729
0.000436737605
-0.000157828253
0.000504056892
-0.000188013474
0.000579783429
-0.000222322801
0.000664587069
-0.000261126112
0.000759095951
-0.000304783746
0.000863865521
-0.000353632726
0.00097934102
-0.000407970283
0.00110581436
-0.000468034519
0.00124337616
-0.000533982761
0.0013918644
-0.000605868161
0.00155081216
-0.000683615619
0.00171939774
-0.000766998725
0.00189640344
-0.000855621949
0.00208021094
-0.000948935618
0.00226875956
-0.00104620402
0.00245956488
-0.00114649291
0.00264982112
-0.00124873209
0.0028364349
-0.00135158039
0.00301632667
-0.00145380614
0.00318627876
-0.00155372334
0.00334336686
-0.00165016548
0.00348524059
-0.00174218727
0.00361047921
-0.00182936663
0.00371772278
-0.00191154719
0.00380784176
-0.00198958097
0.00388115427
-0.00206215027
0.00394429494
-0.00213499679
0.00400145828
-0.0022085696
0.00405263
-0.00228017628
0.00409718956
-0.00234999997
0.00413866137
-0.00242297381
0.00417880528
-0.00249928385
0.00421625393
-0.00257737947
0.00425726545
-0.00265951837
0.00430594134
-0.00274369066
0.00436177173
-0.00282209051
0.00441900284
-0.00289802452
0.00447332673
-0.00297675138
0.00452462653
-0.00306380882
0.00457207037
-0.00315371904
0.00461834651
-0.00325056445
0.00466745208
-0.00335287554
0.00472288051
-0.00346120685
0.00478870217
-0.00357561999
0.00486056311
-0.0036979709
0.00493858879
-0.00382084021
0.00501533987
-0.00393720326
-0.00405327467
0.00508832475
1.79516939e-08
6.00066479e-07
9.39289417e-08
1.71626453e-06
2.54215273e-07
2.78085579e-06
5.28789789e-07
3.78944647e-06
9.52037722e-07
4.73286076e-06
1.56350518e-06
5.59786745e-06
2.40866387e-06
6.3672216e-06
3.53974404e-06
7.01938581e-06
5.01664654e-06
7.52821172e-06
6.9077544e-06
7.86280185e-06
9.291364e-06
7.98665057e-06
1.2256629e-05
7.85803375e-06
1.59049004e-05
7.42875154e-06
2.03514906e-05
6.64390434e-06
2.5727023e-05
5.44125712e-06
3.2168295e-05
3.76141126e-06
3.98514009e-05
1.50403538e-06
4.89640151e-05
-1.41214148e-06
5.97175769e-05
-5.07224191e-06
7.2351213e-05
-9.59817209e-06
8.71318076e-05
-1.51482384e-05
0.000104355009
-2.18409647e-05
0.000124390221
-2.98393902e-05
0.00014756768
-3.93257937e-05
0.000174290641
-5.05004107e-05
0.00020500171
-6.35845036e-05
0.000240179835
-7.88212544e-05
0.000280341783
-9.64754711e-05
0.000326038
-0.000116832129
0.000377846399
-0.000140195401
0.00043636393
-0.000166885129
0.00050219458
-0.000197231436
0.000575933158
-0.00023156901
0.000658145709
-0.000270228327
0.00074934516
-0.000313524675
0.000849961282
-0.000361744777
0.000960305866
-0.000415130988
0.00108053373
-0.00047386336
0.00121060033
-0.000538039762
0.00135021821
-0.000607655377
0.00149881434
-0.000682581953
0.00165549214
-0.000762549102
0.00181900238
-0.000847129087
0.00198772839
-0.000935728066
0.00215970027
-0.00102759713
0.00233259037
-0.00112182885
0.00250376764
-0.00121738421
0.00267046473
-0.0013131927
0.00283013939
-0.00140840921
0.00298027507
-0.00150171828
0.00311946783
-0.0015930008
0.00324545355
-0.00167971065
0.00335711344
-0.00176182664
0.00345380499
-0.00183887966
0.00353654521
-0.00191210724
0.0036047101
-0.00197971209
0.003661115
-0.00204598547