/*--------------------------------*- C++ -*----------------------------------*\
  =========                 |
  \\      /  F ield         | OpenFOAM: The Open Source CFD Toolbox
   \\    /   O peration     | Website:  https://openfoam.org
    \\  /    A nd           | Version:  8
     \\/     M anipulation  |
\*---------------------------------------------------------------------------*/
FoamFile
{
    version     2.0;
    format      ascii;
    class       volScalarField;
    location    "0.083";
    object      p;
}
// * * * * * * * * * * * * * * * * * * * * * * * * * * * * * * * * * * * * * //

dimensions      [1 -1 -2 0 0 0 0];

internalField   nonuniform List<scalar> 
42400
(
101694.947
101694.934
101694.918
101694.905
101694.892
101694.879
101694.868
101694.857
101694.847
101694.838
101694.83
101694.823
101694.816
101694.811
101694.806
101694.803
101694.8
101694.798
101694.797
101694.796
101694.796
101694.797
101694.799
101694.801
101694.803
101694.806
101694.809
101694.812
101694.816
101694.819
101694.823
101694.826
101694.83
101694.833
101694.836
101694.838
101694.84
101694.841
101694.842
101694.854
101694.879
101694.908
101694.915
101694.896
101694.873
101694.849
101694.841
101694.85
101694.862
101694.874
101694.888
101694.902
101694.916
101694.926
101694.961
101695.033
101695.115
101695.152
101695.168
101695.226
101695.322
101695.434
101695.543
101695.665
101695.808
101695.975
101696.171
101696.437
101696.655
101696.976
101697.852
101698.077
101698.086
101700.407
101702.269
101701.011
101700.48
101701.246
101705.329
101708.998
101695.324
101695.313
101695.3
101695.289
101695.278
101695.268
101695.258
101695.25
101695.242
101695.234
101695.228
101695.222
101695.217
101695.213
101695.21
101695.207
101695.205
101695.205
101695.204
101695.205
101695.206
101695.208
101695.21
101695.213
101695.216
101695.22
101695.224
101695.228
101695.232
101695.236
101695.24
101695.244
101695.248
101695.252
101695.255
101695.257
101695.267
101695.288
101695.313
101695.317
101695.298
101695.276
101695.268
101695.274
101695.281
101695.287
101695.294
101695.301
101695.305
101695.304
101695.325
101695.366
101695.427
101695.458
101695.451
101695.476
101695.534
101695.604
101695.667
101695.735
101695.819
101695.924
101696.059
101696.223
101696.422
101696.665
101696.942
101697.391
101697.837
101698.228
101699.276
101700.435
101700.866
101702.263
101704.102
101706.049
101708.614
101711.705
101715.47
101716.553
101695.611
101695.602
101695.592
101695.583
101695.574
101695.566
101695.559
101695.552
101695.546
101695.541
101695.537
101695.533
101695.53
101695.528
101695.527
101695.527
101695.527
101695.528
101695.531
101695.534
101695.537
101695.542
101695.547
101695.553
101695.559
101695.566
101695.573
101695.581
101695.589
101695.597
101695.605
101695.613
101695.625
101695.642
101695.662
101695.685
101695.695
101695.688
101695.678
101695.68
101695.692
101695.704
101695.715
101695.727
101695.737
101695.74
101695.754
101695.794
101695.852
101695.881
101695.872
101695.884
101695.922
101695.977
101696.024
101696.071
101696.124
101696.191
101696.272
101696.366
101696.477
101696.609
101696.782
101697.024
101697.349
101697.761
101698.172
101698.769
101699.46
101700.105
101700.988
101701.862
101702.836
101705.538
101709.269
101711.724
101713.371
101715.387
101718.415
101721.671
101695.826
101695.819
101695.811
101695.804
101695.797
101695.791
101695.785
101695.781
101695.777
101695.774
101695.772
101695.771
101695.771
101695.772
101695.773
101695.776
101695.781
101695.786
101695.792
101695.799
101695.808
101695.817
101695.828
101695.84
101695.853
101695.866
101695.881
101695.896
101695.912
101695.931
101695.953
101695.978
101695.999
101696.012
101696.023
101696.033
101696.05
101696.074
101696.098
101696.121
101696.145
101696.166
101696.18
101696.211
101696.275
101696.34
101696.342
101696.331
101696.361
101696.412
101696.458
101696.502
101696.549
101696.604
101696.668
101696.741
101696.823
101696.917
101697.027
101697.161
101697.334
101697.553
101697.84
101698.214
101698.698
101699.312
101699.937
101700.703
101701.393
101702.034
101704.151
101707.867
101710.315
101711.068
101712.34
101714.213
101716.26
101718.076
101719.533
101721.298
101695.982
101695.975
101695.968
101695.961
101695.956
101695.951
101695.947
101695.944
101695.942
101695.941
101695.941
101695.943
101695.946
101695.95
101695.956
101695.963
101695.971
101695.981
101695.993
101696.006
101696.021
101696.038
101696.056
101696.074
101696.094
101696.115
101696.14
101696.167
101696.195
101696.222
101696.249
101696.276
101696.306
101696.34
101696.376
101696.412
101696.448
101696.484
101696.519
101696.549
101696.593
101696.664
101696.711
101696.727
101696.759
101696.812
101696.87
101696.916
101696.963
101697.016
101697.073
101697.136
101697.206
101697.285
101697.377
101697.485
101697.614
101697.769
101697.967
101698.212
101698.518
101698.868
101699.304
101699.831
101700.501
101701.212
101701.815
101702.955
101705.911
101708.462
101709.114
101709.418
101710.953
101713.116
101714.672
101716.101
101717.779
101719.636
101722.101
101723.93
101696.053
101696.046
101696.039
101696.033
101696.028
101696.024
101696.021
101696.02
101696.02
101696.021
101696.024
101696.029
101696.035
101696.043
101696.054
101696.065
101696.079
101696.096
101696.114
101696.133
101696.153
101696.176
101696.201
101696.231
101696.264
101696.299
101696.335
101696.372
101696.412
101696.455
101696.499
101696.544
101696.59
101696.638
101696.687
101696.735
101696.779
101696.835
101696.915
101696.973
101697.005
101697.053
101697.118
101697.179
101697.239
101697.298
101697.361
101697.425
101697.492
101697.564
101697.645
101697.737
101697.843
101697.967
101698.112
101698.287
101698.508
101698.783
101699.123
101699.521
101699.996
101700.511
101701.099
101701.776
101702.587
101704.365
101707.114
101708.233
101708.219
101709.316
101710.868
101712.089
101713.837
101715.312
101716.65
101718.182
101719.84
101721.642
101723.801
101725.546
101696.012
101696.005
101695.998
101695.992
101695.988
101695.985
101695.983
101695.983
101695.985
101695.989
101695.995
101696.003
101696.014
101696.026
101696.041
101696.059
101696.078
101696.099
101696.123
101696.152
101696.186
101696.222
101696.26
101696.301
101696.343
101696.388
101696.436
101696.486
101696.539
101696.593
101696.65
101696.71
101696.769
101696.826
101696.894
101696.982
101697.051
101697.098
101697.163
101697.241
101697.315
101697.387
101697.458
101697.531
101697.606
101697.683
101697.764
101697.851
101697.947
101698.053
101698.172
101698.31
101698.469
101698.659
101698.896
101699.187
101699.544
101699.976
101700.497
101701.113
101701.835
101702.613
101703.45
101705.225
101707.07
101707.573
101707.792
101708.97
101710.512
101711.691
101713.102
101714.663
101715.696
101716.644
101718.293
101720.157
101721.997
101723.757
101725.643
101727.185
101695.809
101695.801
101695.794
101695.789
101695.785
101695.784
101695.785
101695.787
101695.792
101695.799
101695.809
101695.821
101695.836
101695.854
101695.874
101695.898
101695.927
101695.959
101695.994
101696.031
101696.072
101696.115
101696.163
101696.213
101696.267
101696.324
101696.384
101696.447
101696.514
101696.582
101696.648
101696.724
101696.819
101696.899
101696.96
101697.039
101697.13
101697.216
101697.301
101697.386
101697.473
101697.562
101697.653
101697.747
101697.847
101697.952
101698.065
101698.189
101698.326
101698.48
101698.654
101698.857
101699.101
101699.393
101699.746
101700.162
101700.648
101701.219
101701.875
101702.475
101703.336
101704.783
101706.433
101707.137
101707.588
101708.853
101710.096
101711.255
101712.512
101713.661
101714.861
101716.329
101717.775
101719.362
101721.012
101722.615
101724.308
101726.017
101727.811
101729.389
101695.391
101695.384
101695.378
101695.375
101695.373
101695.374
101695.377
101695.383
101695.392
101695.403
101695.418
101695.435
101695.457
101695.482
101695.511
101695.542
101695.578
101695.617
101695.66
101695.707
101695.758
101695.813
101695.871
101695.934
101696
101696.07
101696.143
101696.215
101696.296
101696.395
101696.482
101696.555
101696.644
101696.744
101696.841
101696.938
101697.037
101697.138
101697.242
101697.349
101697.459
101697.574
101697.695
101697.824
101697.962
101698.112
101698.276
101698.457
101698.659
101698.886
101699.146
101699.445
101699.788
101700.169
101700.61
101701.108
101701.626
101702.16
101703.244
101705.121
101706.433
101707.193
101707.534
101708.323
101709.749
101711.083
101712.372
101713.774
101715.192
101716.392
101717.67
101719.016
101720.447
101721.93
101723.536
101725.18
101726.867
101728.589
101730.371
101732.351
101694.699
101694.694
101694.691
101694.69
101694.692
101694.696
101694.704
101694.715
101694.73
101694.748
101694.769
101694.794
101694.822
101694.855
101694.892
101694.933
101694.978
101695.027
101695.081
101695.139
101695.201
101695.268
101695.339
101695.412
101695.488
101695.572
101695.672
101695.763
101695.844
101695.941
101696.047
101696.151
101696.257
101696.366
101696.479
101696.594
101696.713
101696.837
101696.966
101697.102
101697.245
101697.399
101697.565
101697.747
101697.946
101698.167
101698.414
101698.689
101699.003
101699.364
101699.777
101700.246
101700.781
101701.363
101702.002
101702.734
101703.871
101705.379
101706.369
101706.815
101707.341
101708.296
101709.731
101711.098
101712.092
101713.188
101714.203
101715.304
101716.658
101718.127
101719.645
101721.146
101722.699
101724.26
101725.759
101727.383
101729.072
101730.79
101732.789
101734.428
101693.685
101693.683
101693.684
101693.687
101693.694
101693.704
101693.718
101693.735
101693.755
101693.78
101693.809
101693.842
101693.88
101693.922
101693.969
101694.02
101694.076
101694.137
101694.203
101694.273
101694.345
101694.425
101694.517
101694.613
101694.699
101694.788
101694.889
101694.998
101695.107
101695.219
101695.335
101695.454
101695.577
101695.704
101695.836
101695.974
101696.118
101696.27
101696.432
101696.606
101696.795
101697.001
101697.229
101697.481
101697.763
101698.078
101698.434
101698.838
101699.3
101699.824
101700.413
101701.069
101701.805
101702.61
101703.5
101704.56
101705.385
101706.136
101707.182
101708.333
101709.506
101710.578
101711.628
101712.634
101713.886
101715.352
101716.572
101717.555
101718.776
101720.238
101721.679
101723.203
101724.777
101726.312
101727.866
101729.397
101730.705
101732.168
101734.324
101736.072
101692.289
101692.292
101692.298
101692.307
101692.32
101692.336
101692.357
101692.382
101692.411
101692.445
101692.484
101692.527
101692.576
101692.629
101692.687
101692.751
101692.819
101692.891
101692.97
101693.061
101693.149
101693.237
101693.335
101693.44
101693.55
101693.661
101693.776
101693.895
101694.019
101694.147
101694.279
101694.416
101694.558
101694.707
101694.863
101695.028
101695.205
101695.394
101695.6
101695.825
101696.072
101696.347
101696.652
101696.994
101697.375
101697.803
101698.285
101698.828
101699.434
101700.116
101700.885
101701.718
101702.613
101703.64
101704.661
101705.638
101706.671
101707.684
101708.615
101709.515
101710.698
101711.942
101712.999
101714.084
101715.255
101716.327
101717.541
101718.888
101720.143
101721.566
101723.288
101725.16
101727.156
101729.019
101730.735
101732.479
101734.438
101736.481
101737.779
101738.974
101690.456
101690.465
101690.479
101690.495
101690.516
101690.542
101690.572
101690.607
101690.646
101690.691
101690.741
101690.796
101690.857
101690.923
101690.994
101691.071
101691.158
101691.246
101691.335
101691.433
101691.538
101691.647
101691.76
101691.878
101692.001
101692.128
101692.26
101692.396
101692.538
101692.685
101692.838
101692.999
101693.169
101693.349
101693.541
101693.748
101693.973
101694.219
101694.49
101694.79
101695.122
101695.492
101695.902
101696.358
101696.863
101697.418
101698.022
101698.671
101699.338
101700.022
101700.873
101702.01
101703.246
101704.382
101705.543
101706.695
101707.545
101708.272
101709.239
101710.453
101711.57
101712.632
101713.727
101715.053
101716.515
101718.048
101719.753
101721.613
101723.43
101725.016
101726.376
101727.648
101729.054
101730.688
101732.401
101734.309
101736.376
101737.991
101739.909
101741.851
101688.127
101688.144
101688.167
101688.194
101688.225
101688.261
101688.302
101688.349
101688.401
101688.458
101688.521
101688.59
101688.665
101688.748
101688.835
101688.924
101689.022
101689.127
101689.236
101689.35
101689.47
101689.595
101689.725
101689.86
101690
101690.147
101690.299
101690.458
101690.624
101690.8
101690.985
101691.183
101691.395
101691.624
101691.873
101692.146
101692.446
101692.777
101693.145
101693.552
101694.003
101694.503
101695.055
101695.663
101696.33
101697.061
101697.863
101698.74
101699.651
101700.915
101702.472
101703.476
101704.243
101705.064
101705.927
101706.869
101708.144
101710.057
101711.655
101712.648
101713.661
101715.009
101716.404
101717.665
101719.017
101720.455
101721.89
101723.417
101725.062
101726.543
101727.917
101729.304
101730.46
101731.777
101733.773
101736.043
101738.281
101740.059
101741.677
101743.967
101685.249
101685.276
101685.311
101685.349
101685.392
101685.441
101685.496
101685.555
101685.621
101685.695
101685.774
101685.857
101685.945
101686.042
101686.145
101686.253
101686.367
101686.487
101686.613
101686.745
101686.883
101687.026
101687.176
101687.332
101687.496
101687.668
101687.849
101688.041
101688.245
101688.463
101688.698
101688.954
101689.232
101689.538
101689.875
101690.247
101690.659
101691.115
101691.618
101692.172
101692.781
101693.446
101694.166
101694.936
101695.756
101696.589
101697.577
101698.951
101700.537
101701.805
101702.646
101703.407
101704.522
101706.075
101707.252
101708.247
101709.351
101710.406
101711.419
101712.697
101714.544
101716.404
101717.871
101719.144
101720.385
101721.692
101723.052
101724.416
101725.907
101727.593
101729.316
101731.1
101733.019
101735.214
101737.023
101738.57
101740.14
101741.723
101743.372
101745.209
101681.777
101681.817
101681.865
101681.918
101681.975
101682.038
101682.107
101682.182
101682.263
101682.35
101682.444
101682.545
101682.651
101682.763
101682.882
101683.007
101683.138
101683.276
101683.42
101683.571
101683.729
101683.896
101684.07
101684.255
101684.45
101684.657
101684.88
101685.119
101685.378
101685.66
101685.969
101686.309
101686.682
101687.095
101687.55
101688.051
101688.601
101689.204
101689.859
101690.568
101691.329
101692.144
101692.998
101693.877
101694.992
101696.545
101698.145
101699.228
101699.88
101700.666
101701.858
101703.289
101704.701
101705.503
101706.42
101708.089
101709.89
101711.672
101713.555
101714.891
101715.779
101716.761
101717.922
101719.371
101720.91
101722.439
101724.119
101726.074
101728.061
101729.844
101731.537
101733.256
101735.051
101736.871
101738.344
101739.883
101741.43
101743.004
101744.347
101745.735
101677.695
101677.749
101677.813
101677.881
101677.954
101678.032
101678.116
101678.207
101678.304
101678.407
101678.516
101678.632
101678.754
101678.883
101679.018
101679.16
101679.309
101679.466
101679.631
101679.805
101679.989
101680.184
101680.392
101680.614
101680.854
101681.114
101681.398
101681.709
101682.051
101682.43
101682.848
101683.313
101683.827
101684.397
101685.026
101685.718
101686.476
101687.302
101688.197
101689.161
101690.194
101691.291
101692.443
101693.618
101694.653
101695.706
101696.91
101698.304
101699.996
101701.421
101702.399
101703.64
101705.381
101706.893
101708.086
101709.113
101710.249
101711.356
101712.289
101713.578
101715.436
101717.177
101718.753
101720.589
101722.777
101724.872
101726.785
101728.379
101729.992
101731.898
101733.863
101735.726
101737.708
101739.034
101740.297
101742.234
101744.32
101746.183
101746.659
101747.577
101673.015
101673.083
101673.165
101673.249
101673.338
101673.432
101673.533
101673.639
101673.751
101673.87
101673.995
101674.126
101674.264
101674.41
101674.563
101674.723
101674.893
101675.072
101675.263
101675.466
101675.683
101675.917
101676.17
101676.445
101676.747
101677.078
101677.444
101677.848
101678.296
101678.791
101679.34
101679.946
101680.612
101681.341
101682.136
101682.998
101683.927
101684.921
101685.98
101687.1
101688.283
101689.519
101690.85
101692.314
101693.879
101695.25
101696.466
101697.671
101698.8
101700.007
101701.555
101703.061
101704.256
101705.74
101707.564
101709.284
101710.967
101712.61
101714.369
101716.251
101718.157
101720.166
101722.352
101724.106
101725.537
101727.051
101728.648
101730.318
101732.065
101733.893
101735.714
101737.43
101739.089
101740.971
101742.941
101744.838
101746.612
101747.438
101748.002
101749.615
101667.812
101667.898
101667.997
101668.098
101668.203
101668.313
101668.429
101668.551
101668.678
101668.812
101668.953
101669.1
101669.255
101669.419
101669.592
101669.775
101669.97
101670.179
101670.403
101670.646
101670.91
101671.198
101671.515
101671.864
101672.25
101672.678
101673.152
101673.677
101674.257
101674.896
101675.597
101676.363
101677.193
101678.088
101679.045
101680.061
101681.132
101682.247
101683.396
101684.558
101685.72
101686.772
101687.974
101689.768
101691.744
101693.581
101695.285
101697.001
101698.638
101700.137
101701.693
101703.413
101705.055
101706.48
101708.056
101709.893
101711.839
101713.873
101715.889
101717.928
101719.934
101721.671
101723.128
101724.981
101726.771
101728.311
101730.152
101731.992
101733.85
101735.772
101737.692
101739.433
101741.276
101743.123
101744.837
101746.88
101748.733
101749.924
101751.738
101754.208
101662.217
101662.319
101662.436
101662.554
101662.675
101662.801
101662.932
101663.069
101663.213
101663.364
101663.522
101663.689
101663.866
101664.054
101664.255
101664.472
101664.706
101664.961
101665.24
101665.547
101665.886
101666.261
101666.679
101667.144
101667.661
101668.236
101668.873
101669.578
101670.353
101671.203
101672.128
101673.13
101674.208
101675.359
101676.572
101677.865
101679.236
101680.631
101682.054
101683.952
101686.517
101689.192
101691.302
101692.662
101693.729
101694.851
101696.057
101697.283
101698.635
101700.25
101702.255
101704.68
101706.985
101708.809
101710.33
101711.708
101713.088
101714.567
101716.015
101717.353
101719.045
101721.82
101724.542
101726.269
101728.052
101730.379
101732.442
101734.665
101736.802
101738.74
101740.865
101742.653
101744.259
101746.096
101747.875
101749.532
101751.346
101753.157
101755.417
101757.91
101655.331
101655.332
101655.331
101655.33
101655.326
101655.321
101655.314
101655.306
101655.296
101655.285
101655.272
101655.257
101655.24
101655.221
101655.2
101655.176
101655.151
101655.123
101655.093
101655.061
101655.026
101654.988
101654.947
101654.903
101654.856
101654.806
101654.752
101654.695
101654.634
101654.569
101654.501
101654.428
101654.351
101654.268
101654.181
101654.09
101653.994
101653.893
101653.787
101653.675
101653.557
101653.433
101653.303
101653.167
101653.024
101652.875
101652.719
101652.555
101652.383
101652.203
101652.014
101651.814
101651.601
101651.371
101651.122
101650.848
101650.544
101650.204
101649.82
101649.382
101648.878
101648.296
101647.624
101646.849
101645.968
101644.982
101643.901
101642.732
101641.478
101640.136
101638.687
101637.105
101635.336
101633.422
101631.22
101628.466
101625.444
101623.531
101621.496
101617.161
101657.767
101657.767
101657.766
101657.764
101657.761
101657.757
101657.752
101657.745
101657.738
101657.728
101657.718
101657.706
101657.693
101657.678
101657.661
101657.643
101657.624
101657.602
101657.579
101657.553
101657.526
101657.496
101657.464
101657.43
101657.394
101657.355
101657.313
101657.269
101657.221
101657.171
101657.118
101657.061
101657.002
101656.938
101656.87
101656.799
101656.725
101656.648
101656.567
101656.482
101656.392
101656.298
101656.2
101656.098
101655.992
101655.881
101655.765
101655.645
101655.519
101655.389
101655.253
101655.111
101654.962
101654.804
101654.635
101654.452
101654.249
101654.022
101653.764
101653.467
101653.122
101652.717
101652.243
101651.69
101651.054
101650.333
101649.525
101648.626
101647.631
101646.547
101645.395
101644.192
101642.936
101641.637
101639.924
101637.926
101636.437
101634.263
101631.561
101629.217
101660.371
101660.371
101660.37
101660.368
101660.366
101660.363
101660.359
101660.354
101660.349
101660.342
101660.335
101660.327
101660.317
101660.307
101660.296
101660.283
101660.269
101660.254
101660.238
101660.221
101660.201
101660.181
101660.159
101660.135
101660.11
101660.083
101660.054
101660.023
101659.99
101659.956
101659.919
101659.88
101659.839
101659.795
101659.749
101659.7
101659.649
101659.596
101659.541
101659.483
101659.423
101659.361
101659.296
101659.229
101659.16
101659.088
101659.015
101658.939
101658.861
101658.781
101658.699
101658.615
101658.528
101658.438
101658.344
101658.244
101658.136
101658.017
101657.882
101657.725
101657.537
101657.31
101657.031
101656.69
101656.279
101655.791
101655.218
101654.559
101653.821
101653.025
101652.197
101651.36
101650.513
101649.613
101648.62
101647.468
101646.197
101645.014
101643.871
101642.584
101663.097
101663.097
101663.096
101663.095
101663.093
101663.091
101663.089
101663.086
101663.083
101663.08
101663.075
101663.071
101663.066
101663.06
101663.054
101663.047
101663.039
101663.031
101663.022
101663.012
101663.002
101662.99
101662.978
101662.965
101662.951
101662.936
101662.92
101662.903
101662.885
101662.866
101662.845
101662.824
101662.802
101662.778
101662.753
101662.726
101662.698
101662.669
101662.64
101662.61
101662.579
101662.547
101662.515
101662.482
101662.448
101662.415
101662.381
101662.348
101662.315
101662.282
101662.25
101662.219
101662.188
101662.159
101662.129
101662.099
101662.069
101662.036
101661.999
101661.954
101661.898
101661.825
101661.725
101661.591
101661.412
101661.175
101660.869
101660.494
101660.057
101659.568
101659.04
101658.498
101657.951
101657.374
101656.735
101656.043
101655.33
101654.6
101653.797
101653.163
101665.892
101665.891
101665.891
101665.89
101665.889
101665.889
101665.888
101665.887
101665.886
101665.885
101665.884
101665.884
101665.882
101665.881
101665.88
101665.879
101665.877
101665.875
101665.874
101665.871
101665.869
101665.867
101665.864
101665.861
101665.858
101665.855
101665.851
101665.847
101665.843
101665.839
101665.834
101665.83
101665.825
101665.82
101665.815
101665.81
101665.805
101665.799
101665.795
101665.79
101665.786
101665.783
101665.781
101665.78
101665.78
101665.781
101665.784
101665.789
101665.796
101665.806
101665.818
101665.834
101665.853
101665.876
101665.905
101665.938
101665.974
101666.013
101666.052
101666.092
101666.138
101666.184
101666.224
101666.251
101666.257
101666.232
101666.167
101666.052
101665.876
101665.633
101665.344
101665.045
101664.761
101664.488
101664.195
101663.877
101663.538
101663.131
101662.686
101662.543
101668.708
101668.708
101668.707
101668.707
101668.707
101668.708
101668.708
101668.709
101668.711
101668.712
101668.714
101668.717
101668.72
101668.723
101668.726
101668.73
101668.734
101668.738
101668.743
101668.748
101668.753
101668.759
101668.765
101668.771
101668.778
101668.786
101668.793
101668.802
101668.81
101668.82
101668.83
101668.84
101668.852
101668.864
101668.877
101668.891
101668.907
101668.923
101668.94
101668.959
101668.981
101669.003
101669.029
101669.056
101669.086
101669.119
101669.155
101669.195
101669.238
101669.286
101669.338
101669.396
101669.458
101669.527
101669.604
101669.688
101669.777
101669.874
101669.978
101670.086
101670.209
101670.341
101670.478
101670.62
101670.759
101670.892
101671.017
101671.125
101671.205
101671.252
101671.269
101671.259
101671.231
101671.206
101671.189
101671.158
101671.081
101670.974
101670.852
101670.836
101671.498
101671.498
101671.497
101671.498
101671.499
101671.5
101671.502
101671.505
101671.508
101671.512
101671.517
101671.522
101671.528
101671.535
101671.543
101671.551
101671.56
101671.569
101671.58
101671.591
101671.603
101671.616
101671.63
101671.645
101671.66
101671.677
101671.694
101671.713
101671.733
101671.754
101671.776
101671.8
101671.826
101671.853
101671.882
101671.913
101671.946
101671.981
101672.018
101672.058
101672.1
101672.145
101672.193
101672.245
101672.301
101672.361
101672.426
101672.495
101672.57
101672.651
101672.738
101672.832
101672.934
101673.042
101673.158
101673.283
101673.417
101673.563
101673.721
101673.891
101674.069
101674.259
101674.473
101674.708
101674.949
101675.199
101675.456
101675.718
101675.987
101676.267
101676.545
101676.816
101677.067
101677.309
101677.534
101677.768
101678.001
101678.269
101678.486
101678.408
101674.224
101674.223
101674.223
101674.223
101674.224
101674.227
101674.23
101674.234
101674.239
101674.245
101674.251
101674.259
101674.268
101674.278
101674.289
101674.301
101674.314
101674.328
101674.343
101674.36
101674.377
101674.396
101674.416
101674.438
101674.461
101674.485
101674.511
101674.539
101674.568
101674.599
101674.632
101674.668
101674.705
101674.745
101674.787
101674.831
101674.878
101674.927
101674.98
101675.036
101675.095
101675.159
101675.226
101675.298
101675.374
101675.456
101675.542
101675.635
101675.733
101675.839
101675.951
101676.071
101676.199
101676.336
101676.483
101676.641
101676.812
101676.996
101677.195
101677.409
101677.642
101677.893
101678.164
101678.457
101678.764
101679.086
101679.432
101679.809
101680.225
101680.659
101681.111
101681.572
101682.04
101682.499
101682.993
101683.497
101683.989
101684.544
101685.129
101685.47
101676.847
101676.846
101676.846
101676.846
101676.848
101676.851
101676.854
101676.859
101676.865
101676.873
101676.881
101676.891
101676.901
101676.914
101676.927
101676.942
101676.958
101676.975
101676.994
101677.015
101677.037
101677.06
101677.085
101677.112
101677.141
101677.172
101677.204
101677.239
101677.276
101677.315
101677.356
101677.4
101677.446
101677.495
101677.546
101677.6
101677.658
101677.718
101677.783
101677.851
101677.923
101678
101678.081
101678.167
101678.259
101678.356
101678.459
101678.568
101678.684
101678.809
101678.942
101679.083
101679.235
101679.397
101679.567
101679.75
101679.945
101680.153
101680.379
101680.622
101680.884
101681.173
101681.489
101681.819
101682.171
101682.555
101682.976
101683.433
101683.916
101684.424
101684.972
101685.564
101686.204
101686.903
101687.572
101688.18
101688.819
101689.555
101690.277
101690.857
101679.341
101679.34
101679.339
101679.339
101679.341
101679.344
101679.348
101679.353
101679.36
101679.368
101679.377
101679.388
101679.4
101679.414
101679.429
101679.445
101679.464
101679.484
101679.505
101679.528
101679.553
101679.58
101679.608
101679.639
101679.671
101679.706
101679.743
101679.782
101679.823
101679.867
101679.913
101679.962
101680.014
101680.068
101680.126
101680.187
101680.252
101680.32
101680.392
101680.468
101680.549
101680.634
101680.725
101680.82
101680.923
101681.031
101681.146
101681.269
101681.398
101681.532
101681.676
101681.83
101681.993
101682.17
101682.36
101682.561
101682.774
101683
101683.241
101683.498
101683.777
101684.084
101684.406
101684.75
101685.129
101685.546
101686.004
101686.507
101687.051
101687.646
101688.294
101688.976
101689.68
101690.385
101691.149
101692.036
101693.023
101693.952
101694.826
101695.65
101681.685
101681.683
101681.681
101681.681
101681.682
101681.684
101681.688
101681.693
101681.699
101681.707
101681.716
101681.727
101681.74
101681.753
101681.769
101681.786
101681.805
101681.826
101681.848
101681.872
101681.898
101681.926
101681.956
101681.989
101682.023
101682.059
101682.098
101682.139
101682.182
101682.228
101682.277
101682.328
101682.383
101682.441
101682.502
101682.567
101682.635
101682.707
101682.784
101682.865
101682.952
101683.043
101683.139
101683.238
101683.343
101683.455
101683.573
101683.698
101683.834
101683.982
101684.139
101684.305
101684.478
101684.657
101684.846
101685.047
101685.263
101685.494
101685.74
101686.004
101686.288
101686.589
101686.913
101687.265
101687.647
101688.067
101688.531
101689.043
101689.606
101690.231
101690.914
101691.654
101692.453
101693.311
101694.274
101695.321
101696.315
101697.384
101698.925
101699.961
101683.858
101683.855
101683.852
101683.85
101683.85
101683.852
101683.854
101683.858
101683.864
101683.871
101683.879
101683.889
101683.901
101683.914
101683.929
101683.946
101683.964
101683.984
101684.006
101684.03
101684.056
101684.084
101684.113
101684.145
101684.179
101684.216
101684.254
101684.295
101684.339
101684.385
101684.434
101684.485
101684.541
101684.599
101684.661
101684.727
101684.796
101684.869
101684.945
101685.024
101685.107
101685.195
101685.291
101685.396
101685.506
101685.624
101685.749
101685.878
101686.012
101686.152
101686.301
101686.459
101686.627
101686.806
101686.995
101687.197
101687.411
101687.64
101687.884
101688.144
101688.423
101688.721
101689.043
101689.391
101689.767
101690.177
101690.624
101691.114
101691.659
101692.269
101692.953
101693.731
101694.585
101695.522
101696.531
101697.646
101698.859
101700.195
101701.694
101702.933
101685.852
101685.847
101685.842
101685.839
101685.837
101685.837
101685.838
101685.84
101685.844
101685.849
101685.856
101685.865
101685.875
101685.886
101685.9
101685.915
101685.931
101685.95
101685.97
101685.993
101686.017
101686.043
101686.071
101686.101
101686.134
101686.168
101686.205
101686.244
101686.286
101686.331
101686.378
101686.429
101686.482
101686.537
101686.594
101686.654
101686.716
101686.787
101686.864
101686.944
101687.029
101687.117
101687.209
101687.304
101687.405
101687.513
101687.626
101687.747
101687.876
101688.012
101688.156
101688.309
101688.472
101688.644
101688.827
101689.021
101689.228
101689.447
101689.681
101689.93
101690.196
101690.481
101690.788
101691.118
101691.476
101691.865
101692.29
101692.756
101693.269
101693.83
101694.489
101695.273
101696.127
101697.051
101698.062
101699.171
101700.411
101701.837
101703.339
101704.639
101687.661
101687.654
101687.647
101687.641
101687.637
101687.634
101687.633
101687.633
101687.634
101687.637
101687.642
101687.648
101687.655
101687.664
101687.675
101687.688
101687.702
101687.718
101687.736
101687.755
101687.777
101687.8
101687.826
101687.853
101687.883
101687.915
101687.949
101687.984
101688.021
101688.061
101688.102
101688.146
101688.193
101688.246
101688.301
101688.358
101688.419
101688.482
101688.547
101688.615
101688.689
101688.767
101688.85
101688.938
101689.031
101689.13
101689.234
101689.345