/*--------------------------------*- C++ -*----------------------------------*\
  =========                 |
  \\      /  F ield         | OpenFOAM: The Open Source CFD Toolbox
   \\    /   O peration     | Website:  https://openfoam.org
    \\  /    A nd           | Version:  8
     \\/     M anipulation  |
\*---------------------------------------------------------------------------*/
FoamFile
{
    version     2.0;
    format      ascii;
    class       surfaceScalarField;
    location    "0.083";
    object      phi;
}
// * * * * * * * * * * * * * * * * * * * * * * * * * * * * * * * * * * * * * //

dimensions      [1 0 -1 0 0 0 0];

internalField   nonuniform List<scalar> 
84340
(
-7.29128383e-08
3.17385023e-07
-2.44102996e-07
-2.9277731e-07
9.97282663e-07
-7.76821373e-07
-6.64768047e-07
1.73630718e-06
-1.36357935e-06
-1.19395261e-06
2.52613901e-06
-1.9960961e-06
-1.88561535e-06
3.36150624e-06
-2.66887774e-06
-2.74526629e-06
4.2393787e-06
-3.37866197e-06
-3.77864317e-06
5.1585142e-06
-4.12397352e-06
-4.99168186e-06
6.11895958e-06
-4.90465718e-06
-6.39047305e-06
7.12161397e-06
-5.72145442e-06
-7.98120888e-06
8.16787952e-06
-6.57566405e-06
-9.77011828e-06
9.25940557e-06
-7.46889711e-06
-1.17633899e-05
1.03979043e-05
-8.40290498e-06
-1.39670834e-05
1.15850259e-05
-9.37946568e-06
-1.63870301e-05
1.28222812e-05
-1.04003177e-05
-1.90287137e-05
1.41109946e-05
-1.1467132e-05
-2.18971527e-05
1.54522972e-05
-1.25815041e-05
-2.4996754e-05
1.68471237e-05
-1.3744979e-05
-2.8331168e-05
1.82962261e-05
-1.49590646e-05
-3.19031192e-05
1.98001932e-05
-1.62252742e-05
-3.57142259e-05
2.13594627e-05
-1.75451504e-05
-3.9764802e-05
2.29743328e-05
-1.89202946e-05
-4.40536398e-05
2.46449653e-05
-2.03523889e-05
-4.85777645e-05
2.6371372e-05
-2.18432101e-05
-5.33321743e-05
2.81533987e-05
-2.33946301e-05
-5.83095328e-05
2.99906781e-05
-2.50086134e-05
-6.34998579e-05
3.18825768e-05
-2.66871714e-05
-6.88901395e-05
3.38281113e-05
-2.84323454e-05
-7.44639269e-05
3.58258474e-05
-3.02461407e-05
-8.02008721e-05
3.78737587e-05
-3.21304245e-05
-8.60762054e-05
3.99690371e-05
-3.40868093e-05
-9.20601155e-05
4.210785e-05
-3.61165001e-05
-9.81169941e-05
4.42850119e-05
-3.82201071e-05
-0.00010420471
4.64938372e-05
-4.03974635e-05
-0.000110274378
4.87264318e-05
-4.26474273e-05
-0.00011627102
5.09743264e-05
-4.49676144e-05
-0.000122133864
5.32277818e-05
-4.73540983e-05
-0.00012779262
5.54721443e-05
-4.98017134e-05
-0.000133143758
5.76692602e-05
-5.23055206e-05
-0.000138077813
5.98091786e-05
-5.48615773e-05
-0.000142503569
6.19004234e-05
-5.74600976e-05
-0.000146319607
6.38858239e-05
-6.00543928e-05
-0.000149343217
6.56863691e-05
-6.2646574e-05
-0.000151271918
6.7174809e-05
-6.52284847e-05
-0.000151806645
6.8313748e-05
-6.77598568e-05
-0.000150640981
6.90399244e-05
-7.01850839e-05
-0.000147431808
6.92291407e-05
-7.24162292e-05
-0.000141841316
6.87430967e-05
-7.43098468e-05
-0.000133491228
6.74626942e-05
-7.57873688e-05
-0.000121909828
6.52214031e-05
-7.67755876e-05
-0.000106575674
6.18460961e-05
-7.71512054e-05
-8.68894238e-05
5.70597634e-05
-7.67150136e-05
-6.23998622e-05
5.0820984e-05
-7.52774778e-05
-3.24474281e-05
4.27883359e-05
-7.27055241e-05
3.17774115e-06
3.31705974e-05
-6.87580456e-05
4.56124414e-05
2.06798446e-05
-6.30746792e-05
9.58955436e-05
5.20839978e-06
-5.54504888e-05
0.000155183619
-1.3361878e-05
-4.58832029e-05
0.000224941678
-3.56547427e-05
-3.40562752e-05
0.000306777495
-6.30036693e-05
-1.87809804e-05
0.000402438642
-9.57445213e-05
1.38083623e-07
0.000513526798
-0.000134336124
2.33060622e-05
0.000642693191
-0.000179693225
5.05887949e-05
0.000791366364
-0.00023294853
8.43417747e-05
0.000961788845
-0.000295132689
0.000124781813
0.0011566162
-0.000367108491
0.000172357605
0.00137792432
-0.000449355123
0.000228125188
0.00162825111
-0.000544080294
0.000293827313
0.00191316166
-0.000655439215
0.000370596767
0.00222580184
-0.000767237143
0.000454659537
0.0025667436
-0.000908002297
0.000567117365
0.00297799061
-0.00110755604
0.000696361199
0.00343625162
-0.00122743202
0.000769219561
0.00382881443
-0.00136081455
0.000968296339
0.00425157188
-0.00171844865
0.00129573332
0.00494437978
-0.00197733928
0.00128457099
0.00570190594
-0.00197191937
0.00121442787
0.00615306992
-0.00213308152
0.00168194646
0.00639479874
-0.00251239008
0.00227069139
0.00671837721
-0.00280080563
0.00247723088
-0.00294375423
0.0024736713
0.00718844539
-5.96167891e-08
3.7748505e-07
-2.40027732e-07
1.17837793e-06
-5.45586828e-07
2.04265358e-06
-9.804287e-07
2.96186381e-06
-1.54865271e-06
3.93070395e-06
-2.25457531e-06
4.94636459e-06
-3.10264671e-06
6.0077405e-06
-4.09742104e-06
7.11498483e-06
-5.24350172e-06
8.26904793e-06
-6.54547219e-06
9.47131326e-06
-8.00781107e-06
1.07233266e-05
-9.63479428e-06
1.20265982e-05
-1.14303807e-05
1.33824623e-05
-1.33980808e-05
1.4791982e-05
-1.55408183e-05
1.62558959e-05
-1.78607591e-05
1.77745782e-05
-2.03591373e-05
1.93480326e-05
-2.30360556e-05
2.09758805e-05
-2.589026e-05
2.26573556e-05
-2.89188988e-05
2.43912984e-05
-3.21172515e-05
2.617614e-05
-3.54784242e-05
2.80098695e-05
-3.89930225e-05
2.98900002e-05
-4.26487785e-05
3.18135049e-05
-4.64301338e-05
3.37767286e-05
-5.03177873e-05
3.57752954e-05
-5.42881733e-05
3.78039603e-05
-5.83128857e-05
3.98564489e-05
-6.23580659e-05
4.1925286e-05
-6.63839236e-05
4.40017314e-05
-7.03444612e-05
4.60757514e-05
-7.41872379e-05
4.81357078e-05
-7.78519324e-05
5.01670429e-05
-8.12620927e-05
5.21457732e-05
-8.43344412e-05
5.40565891e-05
-8.69804164e-05
5.58842625e-05
-8.91161937e-05
5.76190292e-05
-9.06269763e-05
5.91920401e-05
-9.13435513e-05
6.0538721e-05
-9.10049498e-05
6.157567e-05
-8.93481621e-05
6.2243819e-05
-8.6106281e-05
6.24604337e-05
-8.10315961e-05
6.21173294e-05
-7.38124878e-05
6.11130646e-05
-6.40675457e-05
5.9314717e-05
-5.14051328e-05
5.65878309e-05
-3.53788962e-05
5.27394158e-05
-1.55992064e-05
4.77070888e-05
8.41162988e-06
4.12362146e-05
3.68265071e-05
3.34586044e-05
7.05455529e-05
2.33700448e-05
0.000110459366
1.09379064e-05
0.000157531177
-4.25146203e-06
0.00021287728
-2.21409677e-05
0.000277815437
-4.42210151e-05
0.000353718542
-7.06548796e-05
0.000442295369
-0.000101896172
0.000545286165
-0.000138600077
0.000663948334
-0.000181617344
0.000799993941
-0.000231738139
0.000955505661
-0.000289792431
0.00113267508
-0.000356803697
0.00133372474
-0.000433935973
0.00156122542
-0.00052257176
0.00181790734
-0.000623734193
0.00210476025
-0.000736156726
0.00242082236
-0.00086009606
0.00277385501
-0.00100842961
0.00316506216
-0.00115840595
0.00356837177
-0.00131127664
0.00399577072
-0.00153492251
0.00452114861
-0.00175277922
0.00504884304
-0.00188847994
0.00543725713
-0.00210683436
0.00586903085
-0.00240908782
0.00646735337
-0.00257022014
0.00698113756
-0.00264684678
0.00722877587
-0.0027600079
0.00732977867
-0.0029017915
-0.00306141184
0.00744743745
-4.7381317e-08
4.25439187e-07
-1.90872767e-07
1.32268318e-06
-4.33620996e-07
2.28633957e-06
-7.78471124e-07
3.307766e-06
-1.22816047e-06
4.38155292e-06
-1.78528149e-06
5.50475003e-06
-2.45257634e-06
6.67640568e-06
-3.2327583e-06
7.89664681e-06
-4.12844567e-06
9.16633091e-06
-5.14207657e-06
1.04866626e-05
-6.275803e-06
1.18589028e-05
-7.53136795e-06
1.32841536e-05
-8.90996634e-06
1.47632019e-05
-1.04120879e-05
1.62964065e-05
-1.20373394e-05
1.78836238e-05
-1.37842526e-05
1.95241537e-05
-1.56500588e-05
2.12167006e-05
-1.76304513e-05
2.29593484e-05
-1.97193102e-05
2.47495191e-05
-2.19084022e-05
2.65839402e-05
-2.41870458e-05
2.84585969e-05
-2.65417412e-05
3.036866e-05
-2.89557598e-05
3.23084169e-05
-3.14086605e-05
3.42711278e-05
-3.38757244e-05
3.62488631e-05
-3.6327344e-05
3.82323589e-05
-3.87284346e-05
4.02108965e-05
-4.10378468e-05
4.21721344e-05
-4.32075338e-05
4.41017038e-05
-4.5181794e-05
4.59832279e-05
-4.6897504e-05
4.77992508e-05
-4.82859487e-05
4.95324404e-05
-4.92772841e-05
5.11671884e-05
-4.9781953e-05
5.26599282e-05
-4.96788151e-05
5.39636464e-05
-4.88143042e-05
5.50306694e-05
-4.69744348e-05
5.57908568e-05
-4.39470641e-05
5.61771905e-05
-3.95042571e-05
5.61094085e-05
-3.34008404e-05
5.54867943e-05
-2.53675653e-05
5.42261317e-05
-1.50950265e-05
5.22045894e-05
-2.24944253e-06
4.92896118e-05
1.35936729e-05
4.52890488e-05
3.28072392e-05
4.0121497e-05
5.55644252e-05
3.3852314e-05
8.21673239e-05
2.61597076e-05
0.000113654108
1.62446776e-05
0.000150812469
4.10333133e-06
0.000194559855
-1.02612984e-05
0.000245938903
-2.79793966e-05
0.000306159752
-4.92513956e-05
0.000376443303
-7.45013811e-05
0.000458533903
-0.000104195709
0.000553393099
-0.000139042056
0.000662472648
-0.000179693746
0.000787485845
-0.000226865936
0.000930268666
-0.000281336704
0.00109258045
-0.000343880503
0.00127623102
-0.000415337349
0.0014831333
-0.000496642048
0.0017150259
-0.000588645535
0.00197401919
-0.000692882983
0.00226198021
-0.000810490576
0.00258102504
-0.000942740898
0.00293183634
-0.00108693328
0.00330820179
-0.00123643015
0.00370742966
-0.00140762874
0.0041403669
-0.001591317
0.00459908475
-0.00176996993
0.00503229446
-0.00196810916
0.00547503093
-0.00219549413
0.00595004101
-0.00236347001
0.00632806692
-0.00248484122
0.00654738812
-0.00262838896
0.00674143857
-0.00276424386
0.00697346004
-0.00287884416
0.00720304262
-0.00298957244
0.00737915778
-0.00307788722
-0.00317024943
0.00748800911
-3.9318526e-08
4.65249554e-07
-1.57842198e-07
1.44190095e-06
-3.57300495e-07
2.4865942e-06
-6.38902038e-07
3.59025897e-06
-1.00374629e-06
4.74737946e-06
-1.45270765e-06
5.95478352e-06
-1.98630032e-06
7.21116232e-06
-2.60491673e-06
8.51652357e-06
-3.30877959e-06
9.87155686e-06
-4.0977198e-06
1.12770763e-05
-4.97104155e-06
1.27338173e-05
-5.92737785e-06
1.42422114e-05
-6.96451708e-06
1.58022021e-05
-8.07922013e-06
1.7413121e-05
-9.26701189e-06
1.90735896e-05
-1.05219439e-05
2.0781435e-05
-1.18363415e-05
2.25336365e-05
-1.32005125e-05
2.43262608e-05
-1.46024337e-05
2.61544003e-05
-1.60273708e-05
2.8012072e-05
-1.74574106e-05
2.98920834e-05
-1.88709433e-05
3.17859092e-05
-2.02421446e-05
3.36836233e-05
-2.15405769e-05
3.55738731e-05
-2.27303869e-05
3.74433165e-05
-2.37708892e-05
3.92778614e-05
-2.46163212e-05
4.10617152e-05
-2.52154672e-05
4.27770564e-05
-2.55133494e-05
4.44057578e-05
-2.54329713e-05
4.59094607e-05
-2.48823392e-05
4.72557179e-05
-2.37495861e-05
4.84072964e-05
-2.18913142e-05
4.93170759e-05
-1.91520563e-05
4.99294162e-05
-1.53591501e-05
5.01800942e-05
-1.0308495e-05
4.99900725e-05
-3.77182133e-06
4.9265001e-05
4.48424446e-06
4.79327051e-05
1.47245904e-05
4.58814531e-05
2.72362006e-05
4.29884322e-05
4.23914957e-05
3.90849823e-05
6.05349585e-05
3.40762554e-05
8.1810133e-05
2.80306802e-05
0.000106881836
2.02344956e-05
0.000136356736
1.06642606e-05
0.000170952183
-7.24523893e-07
0.000211542636
-1.44103868e-05
0.000259209439
-3.14000099e-05
0.000314968278
-5.16318621e-05
0.000380254947
-7.55226921e-05
0.000455916002
-0.000103613465
0.000543164157
-0.000136470727
0.000643387091
-0.000174693513
0.000758169812
-0.000218945395
0.000889071494
-0.000269908641
0.00103773501
-0.00032832023
0.00120585507
-0.000394946926
0.00139510521
-0.00047054547
0.00160721112
-0.000555944467
0.00184361347
-0.000651699803
0.00210544029
-0.000758432124
0.00239293128
-0.000876102611
0.0027065404
-0.0010064611
0.00304563979
-0.00114956144
0.00340937162
-0.00130644678
0.00379580525
-0.001473343
0.00420068163
-0.00164128479
0.0046098965
-0.00181682343
0.00501973795
-0.00200114036
0.00542311426
-0.00217333051
0.00577368767
-0.00231866853
0.00603529085
-0.00245708199
0.00624956582
-0.00257772726
0.00645443864
-0.00268969592
0.00662386819
-0.00279779643
0.00676133551
-0.00290168724
0.00688480754
-0.00300229626
0.00699954299
-0.00310428299
0.00712602973
-0.00320435626
-0.00330403764
0.00725982823
-3.6607021e-08
5.02472182e-07
-1.45697565e-07
1.55185877e-06
-3.2729034e-07
2.66918059e-06
-5.80764598e-07
3.8448431e-06
-9.05126652e-07
5.07296087e-06
-1.29920014e-06
6.35018339e-06
-1.76131258e-06
7.67470919e-06
-2.28917528e-06
9.04593206e-06
-2.88010994e-06
1.0464154e-05
-3.53079065e-06
1.19295429e-05
-4.23704453e-06
1.34419884e-05
-4.99366661e-06
1.50008907e-05
-5.7942156e-06
1.66049579e-05
-6.63078283e-06
1.82520547e-05
-7.49373516e-06
1.99390791e-05
-8.37143853e-06
2.16618575e-05
-9.24992152e-06
2.34150333e-05
-1.01124747e-05
2.51919354e-05
-1.09392177e-05
2.69844859e-05
-1.17067784e-05
2.8783211e-05
-1.23877909e-05
3.05769292e-05
-1.29510395e-05
3.23532642e-05
-1.3361159e-05
3.4098129e-05
-1.35783295e-05
3.57957266e-05
-1.35512502e-05
3.74212504e-05
-1.32202317e-05
3.89522054e-05
-1.25151303e-05
4.03623398e-05
-1.1352181e-05
4.1620225e-05
-9.62833751e-06
4.2688467e-05
-7.23457065e-06
4.35227062e-05
-4.04187228e-06
4.40705133e-05
1.04096922e-07
4.42693618e-05
5.38427891e-06
4.40455261e-05
1.19933934e-05
4.33295502e-05
2.01457348e-05
4.2037657e-05
3.00795414e-05
4.00668662e-05
4.20543516e-05
3.73015349e-05
5.64083971e-05
3.35907809e-05
7.34746771e-05
2.88281558e-05
9.34200575e-05
2.30569616e-05
0.000116870893
1.56487769e-05
0.000144394053
6.56846464e-06
0.000176660288
-4.21899802e-06
0.000214414321
-1.75017133e-05
0.000258552465
-3.34548395e-05
0.000310275461
-5.2427116e-05
0.000370695153
-7.48082525e-05
0.000440434843
-0.000101116361
0.000520677118
-0.000131849214
0.000612728005
-0.000167546923
0.000717949808
-0.000208806772
0.00083777338
-0.000256264042
0.000973687025
-0.000310575319
0.0011272014
-0.000372426301
0.0012998388
-0.000442510818
0.00149306416
-0.000521508344
0.00170824649
-0.000610091885
0.00194643724
-0.000708701064
0.00220826625
-0.000817741055
0.00249359812
-0.000937001689
0.00280163745
-0.00106644392
0.00312978864
-0.00120422835
0.00347544173
-0.00135209085
0.00383418201
-0.00150828013
0.00420289002
-0.00167513507
0.00457455926
-0.00184499419
0.00494032076
-0.00200703073
0.00527391543
-0.00215040456
0.00555365268
-0.00228086575
0.00577651334
-0.00239617938
0.00596119012
-0.00250333177
0.00611152365
-0.00260740343
0.0062434413
-0.00270963234
0.00636528012
-0.00281151797
0.00647821353
-0.00291071483
0.00658182442
-0.00300528213
0.0066771217
-0.00309757761
0.00676572055
-0.00319286786
0.00685281121
-0.00329143559
-0.00340088785
0.00694966953
-3.81702059e-08
5.41118411e-07
-1.50003841e-07
1.66436174e-06
-3.33590932e-07
2.85353391e-06
-5.86194297e-07
4.09830297e-06
-9.0449704e-07
5.39220615e-06
-1.28461729e-06
6.73133158e-06
-1.72226991e-06
8.11347819e-06
-2.21234346e-06
9.53721503e-06
-2.74848886e-06
1.10016076e-05
-3.32351556e-06
1.25059839e-05
-3.92892482e-06
1.40489266e-05
-4.55467551e-06
1.56282941e-05
-5.1889165e-06
1.72409855e-05
-5.81769149e-06
1.88827607e-05
-6.42459001e-06
2.05480647e-05
-6.99038538e-06
2.22299075e-05
-7.49272866e-06
2.39198126e-05
-7.90589733e-06
2.5607736e-05
-8.20059242e-06
2.72820172e-05
-8.34154084e-06
2.89272128e-05
-8.28759318e-06
3.05262727e-05
-7.99106276e-06
3.20602779e-05
-7.39610742e-06
3.35069893e-05
-6.43693639e-06
3.48406587e-05
-5.04236759e-06
3.60310918e-05
-3.12650411e-06
3.70410774e-05
-5.87297242e-07
3.78282148e-05
2.69572739e-06
3.83426705e-05
6.86466463e-06
3.85254171e-05
1.20690001e-05
3.83246827e-05
1.84798874e-05
3.76663938e-05
2.62909592e-05
3.64655418e-05
3.57176139e-05
3.46266372e-05
4.70135692e-05
3.20419052e-05
6.04855637e-05
2.85745435e-05
7.64517371e-05
2.41101991e-05
9.51021857e-05
1.86612728e-05
0.000117012147
1.16915436e-05
0.000142700888
3.15068431e-06
0.00017276515
-6.99516712e-06
0.000207880595
-1.94535781e-05
0.000248843749
-3.43806846e-05
0.00029673717
-5.2097441e-05
0.000352236302
-7.29848352e-05
0.000416274727
-9.74761518e-05
0.000489902787
-0.000126036874
0.000574288734
-0.0001591746
0.0006706311
-0.000197437724
0.000780203222
-0.000241398979
0.000904331806
-0.000291651828
0.00104434983
-0.000348799805
0.00120155597
-0.000413443818
0.00137717213
-0.000486163592
0.00157229912
-0.000567523632
0.00178782755
-0.00065800934
0.00202426502
-0.00075791746
0.00228165573
-0.000867456111
0.00255933263
-0.000986353174
0.00285585666
-0.00111424202
0.00316848971
-0.00124961314
0.00349370203
-0.00139163616
0.00382630071
-0.0015368081
0.00416106454
-0.00168683711
0.00449245553
-0.00183965495
0.00480287669
-0.00198554244
0.00507412978
-0.00211623517
0.00529945933
-0.00223234788
0.00548191045
-0.00233284309
0.00563366055
-0.00243260611
0.00576394824
-0.00252645645
0.00588329669
-0.0026226695
0.00599142873
-0.00271552682
0.0060889369
-0.0028071298
0.00617557775
-0.00289814868
0.00625417031
-0.00298929739
0.00633496426
-0.00308606468
0.00642406547
-0.00318666912
0.00651738801
-0.00328618167
0.00661027883
-0.00338431994
-0.00349032145
0.00669971617
-4.15896468e-08
5.83299692e-07
-1.61420225e-07
1.78502231e-06
-3.55229031e-07
3.04829095e-06
-6.17733494e-07
4.36186468e-06
-9.42807149e-07
5.71843946e-06
-1.32344982e-06
7.11323349e-06
-1.75169155e-06
8.5430802e-06
-2.21863706e-06
1.00056261e-05
-2.71375158e-06
1.14982977e-05
-3.22478249e-06
1.30187062e-05
-3.73765242e-06
1.4563611e-05
-4.23604634e-06
1.61286336e-05
-4.70105291e-06
1.77080773e-05
-5.11078377e-06
1.92947268e-05
-5.44012215e-06
2.08797992e-05
-5.65975611e-06
2.24521032e-05
-5.73572524e-06
2.39985203e-05
-5.62845916e-06
2.55034067e-05
-5.29227977e-06
2.69489804e-05
-4.67630184e-06
2.83145913e-05
-3.72146936e-06
2.95750288e-05
-2.358035e-06
3.07006786e-05
-5.04084737e-07
3.16571488e-05
1.93689759e-06
3.24040811e-05
5.07115002e-06
3.29015522e-05
9.01927753e-06
3.30979921e-05
1.39186448e-05
3.2934245e-05
1.99250144e-05
3.23420777e-05
2.72134836e-05
3.12431309e-05
3.59958496e-05
2.95489324e-05
4.65105007e-05
2.71588232e-05
5.90350631e-05
2.39485489e-05
7.3870034e-05
1.97997791e-05
9.12134014e-05
1.47072439e-05
0.000111582697
8.214447e-06
0.000135446155
2.56442224e-07
0.000163328713
-9.21082372e-06
0.000195833474
-2.08019118e-05
0.000233659288
-3.4663006e-05
0.000277762491
-5.10853753e-05
0.000328753263
-7.04304274e-05
0.000387478489
-9.3090995e-05
0.000454889652
-0.000119492627
0.000532020972
-0.000150099017
0.000619970698
-0.000185407512
0.000719891679
-0.000225938279
0.000832962532
-0.000272224702
0.000960350314
-0.000324803559
0.00110317452
-0.000384200056
0.00126245852
-0.00045091146
0.0014390714
-0.000525386954
0.00163368105
-0.000608026142
0.00184667656
-0.000699131487
0.0020780151
-0.000798835885
0.00232707669
-0.000907046292
0.00259248517
-0.0010233028
0.00287215498
-0.00114710428
0.00316307887
-0.00127725669
0.00346120546
-0.0014123495
0.00376092839
-0.00154931805
0.00405758217
-0.00168827297
0.00434478642
-0.0018239968
0.00460927814
-0.00195131531
0.00483821462
-0.00206857869
0.0050235341
-0.002170849
0.00517134169
-0.00226402824
0.00529630193
-0.00235729652
0.0054092869
-0.00244581795
0.0055125549
-0.00253586437
0.00560931567
-0.00262320936
0.00569493114
-0.00270827843
0.00577711793
-0.00279770629
0.00585682319
-0.0028868276
0.00593437982
-0.00297569923
0.00601271379
-0.00306762505
0.0060934439
-0.00316678853
0.00618400165
-0.00327722129
0.00628153785
-0.00338371275
0.0063840886
-0.00348686838
-0.00359584224
0.00648960921
-4.40322758e-08
6.27767548e-07
-1.68148849e-07
1.90975e-06
-3.6510074e-07
3.24594147e-06
-6.26350939e-07
4.62389522e-06
-9.42171423e-07
6.03511843e-06
-1.3015513e-06
7.47354932e-06
-1.69203349e-06
8.93457803e-06
-2.09950254e-06
1.04141957e-05
-2.5081738e-06
1.19081607e-05
-2.89949107e-06
1.34113125e-05
-3.25216076e-06
1.49176751e-05
-3.54166576e-06
1.64196467e-05
-3.73978523e-06
1.79078254e-05
-3.81397406e-06
1.93706773e-05
-3.72656316e-06
2.07942956e-05
-3.43484574e-06
2.21624436e-05
-2.88972491e-06
2.34556193e-05
-2.03452563e-06
2.46506077e-05
-8.02781841e-07
2.57198318e-05
8.81035004e-07
2.66335736e-05
3.10324502e-06
2.7355837e-05
5.96177522e-06
2.78454032e-05
9.56785494e-06
2.80545774e-05
1.40469986e-05
2.7928715e-05
1.95476319e-05
2.74049841e-05
2.62387851e-05
2.64112101e-05
3.43124627e-05
2.4865265e-05
4.39857255e-05
2.26738599e-05
5.55098849e-05
1.97243827e-05
6.91654501e-05
1.58991789e-05
8.51518053e-05
1.11787178e-05
0.000103928623
5.17835483e-06
0.000125912893
-2.17748767e-06
0.000151574067
-1.09463792e-05
0.000181449949
-2.1653281e-05
0.000216152998
-3.44378697e-05
0.000256515231
-4.95636966e-05
0.00030309176
-6.73684193e-05
0.000356646995
-8.82075122e-05
0.000418041464
-0.000112468359
0.000488196333
-0.000140572987
0.000568090497
-0.000172971973
0.000658748612
-0.000210136688
0.000761216037
-0.000252551517
0.000876527239
-0.0003007029
0.00100567013
-0.000355064437
0.00114954215
-0.000416079075
0.00130889508
-0.000484137863
0.00148427463
-0.000559559905
0.00167595411
-0.000642569973
0.00188385968
-0.000733271061
0.00210744636
-0.000831592015
0.00234558142
-0.000937246807
0.00259640632
-0.00104964204
0.0028572936
-0.00116791582
0.00312472855
-0.00129072081
0.00339449244
-0.00141685208
0.00366241893
-0.00154516769
0.00392413282
-0.0016740487
0.00417220324
-0.00179737475
0.00439510364
-0.00191116121
0.00458743132
-0.00201631314
0.0047463894
-0.00211025998
0.0048716359
-0.00219381318
0.00497962414
-0.00227882796
0.0050772067
-0.00236159974
0.00516536806
-0.00244544841
0.00524818418
-0.00252862762
0.00532492159
-0.00261259497
0.0053991767
-0.0026974584
0.0054720444
-0.00278114174
0.00554439894
-0.00287005657
0.00561947315
-0.0029618985
0.00569963199
-0.00305585527
0.00578460958
-0.00315260064
0.00587175879
-0.00325393622
0.00596184496
-0.00336730684
0.00606035069
-0.0034822187
0.0061689771
-0.0035954978
-0.0037034688
0.00627659949
-4.22044166e-08
6.70511904e-07
-1.57569075e-07
2.02587127e-06
-3.35099106e-07
3.42433524e-06
-5.62210198e-07
4.85196886e-06
-8.24703864e-07
6.29866762e-06
-1.10657385e-06
7.75656536e-06
-1.3897193e-06
9.21896056e-06
-1.65356814e-06
1.0679376e-05
-1.87473088e-06
1.21307555e-05
-2.02646496e-06
1.35645848e-05
-2.07795726e-06
1.4970818e-05
-1.993852e-06
1.63373111e-05
-1.73363214e-06
1.76495001e-05
-1.2509814e-06
1.88900567e-05
-4.92563928e-07
2.0038055e-05
6.02746069e-07
2.10694649e-05
2.10488089e-06
2.19559818e-05
4.09327893e-06
2.2664883e-05
6.65837667e-06
2.31575952e-05
9.9044657e-06
2.33905489e-05
1.39505997e-05
2.33129851e-05
1.89322682e-05
2.28672481e-05
2.50031865e-05
2.19874203e-05
3.2337117e-05
2.05988107e-05
4.11320992e-05
1.86143128e-05
5.16151521e-05
1.59327693e-05
6.40446137e-05
1.24407486e-05
7.86174153e-05
8.10636924e-06
9.57385974e-05
2.60883497e-06
0.000115778602
-4.13485759e-06
0.000139156851
-1.21930959e-05
0.000166350656
-2.2008501e-05
0.000197894526
-3.37138989e-05
0.000234512731
-4.7556578e-05
0.000276707414
-6.38393705e-05
0.000325161814
-8.28830462e-05
0.000380645725
-0.000105037708
0.0004439726
-0.000130684655
0.00051600727
-0.000160230761
0.000597653823
-0.000194102702
0.000689834065
-0.000232740227
0.000793462166
-0.000276586255
0.00090941404
-0.000326073913
0.00103848809
-0.000381610068
0.00118135741
-0.000443555862
0.00133851522
-0.000512205033
0.00151021531
-0.000587760998
0.00169640541
-0.000670308677
0.00189666922
-0.000759803767
0.00211011678
-0.000855997914
0.00233527257
-0.000958408207
0.0025699913
-0.00106629301
0.00281145498
-0.00117869368
0.00305610234
-0.00129427336
0.00329985899
-0.00141165717
0.0035381095
-0.00152895658
0.00376726247
-0.00164599099
0.00398006893
-0.00175796151
0.00416731862
-0.00186128692
0.00432785961
-0.001957904
0.00446086992
-0.00204416149
0.00457068902
-0.00212612151
0.00466556383
-0.00220512359
0.00475455818
-0.00228279825
0.00483607137
-0.00236033267
0.00491288371
-0.00243840341
0.00498348714
-0.00251604491
0.0050480792
-0.00259321405
0.00511092933
-0.00267543938
0.00517474771
-0.00276127192
0.00524353387
-0.00284992426
0.00531476517
-0.00294128524
0.00538945895
-0.00303659101
0.00546863869
-0.00313503482
0.00555305855
-0.00323702166
0.00564160281
-0.00334248266
0.00572689151
-0.00345259898
0.00581589108
-0.00357122292
0.00591248633
-0.00369209993
-0.00380032045
0.00600933066
-3.4749565e-08
7.05647413e-07
-1.2373228e-07
2.11539499e-06
-2.5121792e-07
3.55243908e-06
-3.99417738e-07
5.00085902e-06
-5.4833518e-07
6.44834452e-06
-6.75421123e-07
7.88448e-06
-7.55137529e-07
9.29957702e-06
-7.58440496e-07
1.0683654e-05
-6.52143608e-07
1.20255147e-05
-3.98523564e-07
1.33121085e-05
4.55520932e-08
1.45279801e-05
7.29256049e-07
1.56549466e-05
1.70872612e-06
1.66714801e-05
3.04810992e-06
1.75522428e-05
4.82018136e-06
1.82676823e-05
7.10836363e-06
1.87831189e-05
1.00076733e-05
1.90586582e-05
1.36263758e-05
1.90483299e-05
1.80876646e-05
1.86986309e-05
2.35314924e-05
1.79492324e-05
3.01162814e-05
1.67309082e-05
3.80234735e-05
1.49629816e-05
4.74605359e-05
1.25535098e-05
5.86153662e-05
9.44738304e-06
7.17425656e-05
5.49079031e-06
8.71772471e-05
5.0201459e-07
0.000105244178
-5.62199744e-06
0.000126313622
-1.29585483e-05
0.000150806096
-2.1878743e-05
0.000179187097
-3.25105923e-05
0.000212084168
-4.50845051e-05
0.000249951172
-5.98694229e-05
0.000293396427
-7.71526235e-05
0.00034309522
-9.72483614e-05
0.000399761945
-0.000120498569
0.000464155485
-0.000147268512
0.00053706882
-0.000177942418
0.00061931097
-0.00021291762
0.000711686052
-0.000252596086
0.000814967398
-0.000297373702
0.000929864218
-0.000347626105
0.00105698109
-0.000403691572
0.00119676987
-0.000465850523
0.00134947506
-0.000534302456
0.0015150746
-0.000609141975
0.00169322304
-0.00069033929
0.00188320241
-0.000777725384
0.00208386458
-0.000870955745
0.00229353085
-0.000969455562
0.00250992327
-0.00107237645
0.00273015446
-0.00117862613
0.00295075996
-0.00128688575
0.00316782158
-0.00139574306
0.00337714728
-0.00150358707
0.00357479458
-0.00160929291
0.00375649302
-0.00171064454
0.00391410585
-0.00180359402
0.00404591139
-0.00188975716
0.00415291445
-0.00196827926
0.00424360196
-0.00204858141
0.00432768169
-0.0021282322
0.0044062916
-0.00220472271
0.00447731785
-0.00227614073
0.00454398034
-0.00234945174
0.00460772917
-0.00242407522
0.00467003059
-0.0025006981
0.00473357793
-0.00257958646
0.00479718249
-0.00265681449
0.00486018292
-0.00273843631
0.00492597665
-0.00282706313
0.00499404098
-0.00291798741
0.00506498354
-0.0030122278
0.00513745331
-0.00310906229
0.00520978691
-0.00320737127
0.00528434529
-0.00331158445
0.00536409644
-0.00342223955
0.00544396205
-0.00353247158
0.00552195451
-0.00364922348
0.00560531961
-0.00377547496
-0.00389150236
0.00569649156
-2.07928217e-08
7.26924627e-07
-6.32230608e-08
2.15850355e-06
-1.05392742e-07
3.59538294e-06
-1.22694549e-07
5.01902341e-06
-8.75155575e-08
6.41411143e-06
3.12355462e-08
7.7667566e-06
2.68719007e-07
9.06320392e-06
6.64800313e-07
1.02887682e-05
1.26466032e-06
1.14269396e-05
2.11956016e-06
1.24585882e-05
3.28769005e-06
1.33613307e-05
4.83529115e-06
1.41089336e-05
6.83757886e-06
1.46708945e-05
9.38044148e-06
1.50112038e-05
1.25614379e-05
1.50886416e-05
1.6491448e-05
1.4855206e-05
2.12961727e-05
1.42561815e-05
2.71180339e-05
1.32288779e-05
3.41184663e-05
1.17007793e-05
4.24785922e-05
9.59187445e-06
5.23709628e-05
6.8415128e-06
6.40566424e-05
3.28047741e-06
7.7794744e-05
-1.18122744e-06
9.38777074e-05
-6.63197755e-06
0.000112638044
-1.32656527e-05
0.000134443101
-2.12988528e-05
0.000159697937
-3.0872338e-05
0.000188941943
-4.21977263e-05
0.000222582618
-5.55142336e-05
0.000261156821
-7.10792282e-05
0.000305252273
-8.91739785e-05
0.000355492982
-0.000110103706
0.000412541838
-0.000134194576
0.000477091516
-0.000161790645
0.000549850006
-0.000193249165
0.000631523319
-0.000228933411
0.000722793916
-0.000269204067
0.000824293148
-0.000314407352
0.000936567754
-0.000364860634
0.0010600397
-0.00042083502
0.00119496001
-0.000482535218
0.00134135717
-0.000550076959
0.00149898188
-0.000623462916
0.00166725158
-0.000702559206
0.00184520181
-0.000787078588
0.00203146637
-0.000876589775
0.00222422907
-0.000970474273
0.00242118601
-0.00106789944
0.00261953531
-0.00116779223
0.00281610141
-0.00126893046
0.00300740127
-0.00136991444
0.0031898236
-0.00146929696
0.00335965758
-0.00156556641
0.0035144056
-0.00165832496
0.00365009223
-0.00174496978
0.00376496037
-0.00182550282
0.00386069487
-0.00189931997
0.00394330898
-0.00197236405
0.00401804007
-0.0020430029
0.00408263591
-0.00211316913
0.00414012409
-0.00218571343
0.00419430854
-0.00225889988
0.0042491033
-0.00233092775
0.00430205382
-0.00240239545
0.00435443487
-0.00247645069
0.0044063707
-0.00255262827
0.00445858779
-0.00263179787
0.00451487081
-0.00271309365
0.00457280864
-0.00279637148
0.00463381647
-0.00288806914
0.00469913719
-0.0029833079
0.00476744952
-0.00308054139
0.0048401677
-0.00318178355
0.00491708107
-0.00328428943
0.00499467108
-0.00338918122
0.00507377119
-0.00350134799
0.00515945713
-0.00361816648
0.00524355725
-0.0037333336
0.00533045767
-0.003862386
-0.00398500661
0.00542395296
1.4631561e-10
7.27111656e-07
2.64196092e-08
2.13269682e-06
1.08443423e-07
3.51389195e-06
2.79376844e-07
4.84868511e-06
5.76334684e-07
6.11780881e-06
1.0409805e-06
7.30282618e-06
1.72019962e-06
8.38476247e-06
2.66692475e-06
9.34288664e-06
3.94106697e-06
1.01537119e-05
5.61050342e-06
1.0790143e-05
7.75199871e-06
1.12209092e-05
1.04529613e-05
1.14091342e-05
1.38123499e-05
1.13127677e-05
1.79422488e-05
1.0882674e-05
2.2969366e-05
1.0063009e-05
2.90369724e-05
8.7892087e-06
3.63069698e-05
6.98792936e-06
4.49390861e-05
4.59865549e-06
5.51566861e-05
1.48522121e-06
6.71899484e-05
-2.43918873e-06
8.12958159e-05
-7.26196795e-06
9.7762443e-05
-1.31835617e-05
0.000116906605
-2.03225923e-05
0.000139126299
-2.88486475e-05
0.000164815309
-3.89513962e-05
0.000194359819
-5.08398343e-05
0.000228233155
-6.4741869e-05
0.000266946951
-8.0907419e-05
0.000311044893
-9.9607754e-05
0.000361103683
-0.000121133256
0.000417725953
-0.000145791137
0.000481529428
-0.000173901711
0.000553133217
-0.000205792527
0.000633140312
-0.000241791521
0.000722115127
-0.000282217371
0.000820556342
-0.000327367619
0.000928863911
-0.000377504229
0.00104730107
-0.000432836699
0.00117595141
-0.000493502756
0.00131467268
-0.000559547667
0.00146304885
-0.000630902384
0.00162034376
-0.000707362472
0.00178546052
-0.000788569862
0.00195691279
-0.000874001173
0.00213282712
-0.000962982448
0.00231093317
-0.00105468559
0.002488564
-0.00114809529
0.00266277286
-0.00124209885
0.00283047718
-0.00133548747
0.0029887198
-0.00142716431
0.00313504401
-0.00151623026
0.00326702558
-0.00160127042
0.00338280281
-0.00168133594
0.00348154407
-0.00175705859
0.00356456399
-0.00182798218
0.00363549381
-0.00189642614