/*--------------------------------*- C++ -*----------------------------------*\
  =========                 |
  \\      /  F ield         | OpenFOAM: The Open Source CFD Toolbox
   \\    /   O peration     | Website:  https://openfoam.org
    \\  /    A nd           | Version:  8
     \\/     M anipulation  |
\*---------------------------------------------------------------------------*/
FoamFile
{
    version     2.0;
    format      ascii;
    class       volVectorField;
    location    "0.083";
    object      U;
}
// * * * * * * * * * * * * * * * * * * * * * * * * * * * * * * * * * * * * * //

dimensions      [0 1 -1 0 0 0 0];

internalField   nonuniform List<vector> 
42400
(
(-0.0172508151 0.0164906641 -1.07330069e-26)
(-0.0532797586 0.0498042475 3.46013254e-26)
(-0.0909274518 0.0833000694 3.6161952e-26)
(-0.129566059 0.116315951 0)
(-0.168747757 0.148441078 0)
(-0.208202546 0.179408108 8.39516173e-28)
(-0.247783491 0.20905899 0)
(-0.287422023 0.237312516 -9.41654237e-28)
(-0.327096264 0.264134732 0)
(-0.36680886 0.289517308 -1.05453142e-27)
(-0.406571953 0.313463505 -1.11530302e-27)
(-0.446397669 0.335979747 1.17913459e-27)
(-0.486292614 0.357071075 -1.93089541e-26)
(-0.526255204 0.37673936 -1.67629193e-26)
(-0.566274942 0.394983406 1.39036192e-27)
(-0.606332876 0.411800233 0)
(-0.646402698 0.427186961 0)
(-0.686452029 0.441142895 0)
(-0.726443643 0.453671532 0)
(-0.766336458 0.464782346 0)
(-0.806086203 0.474492253 0)
(-0.845645719 0.482826723 4.03539132e-27)
(-0.884964877 0.489820537 1.28762572e-26)
(-0.923990097 0.495518195 2.66913492e-26)
(-0.962663477 0.49997398 1.33781069e-26)
(-1.00092156 0.503251689 4.95493486e-27)
(-1.03869365 0.505424063 5.21126451e-27)
(-1.07589957 0.506571925 -1.09577579e-26)
(-1.11244706 0.506782984 0)
(-1.14822872 0.506150387 0)
(-1.18311841 0.504771255 -2.06694733e-26)
(-1.21696721 0.502745535 -2.06564895e-26)
(-1.2495994 0.500175476 -1.3995293e-26)
(-1.2808106 0.497164965 1.91674675e-26)
(-1.31037005 0.493816916 3.27115373e-26)
(-1.33801368 0.490221625 0)
(-1.36343712 0.486448881 0)
(-1.38639287 0.482648563 0)
(-1.40675722 0.479128125 0)
(-1.42373178 0.477036352 1.29585232e-25)
(-1.43692235 0.47439924 1.94427927e-25)
(-1.44494454 0.472335936 1.30296824e-25)
(-1.44808033 0.468793103 -1.21521753e-25)
(-1.4434813 0.468201763 4.41343909e-26)
(-1.43145531 0.468866664 1.47869475e-25)
(-1.40968742 0.470104488 1.81266831e-25)
(-1.37389291 0.472705567 -4.68088113e-26)
(-1.32503868 0.474271708 1.37581824e-25)
(-1.25995173 0.476723155 -5.3199213e-26)
(-1.17665913 0.480120451 1.14617407e-25)
(-1.07252873 0.484420564 -3.27270769e-33)
(-0.945501586 0.490000374 -3.95293317e-25)
(-0.793521573 0.4969143 3.52594338e-26)
(-0.615055039 0.50455618 -1.51462246e-25)
(-0.404502698 0.513410962 0)
(-0.160151647 0.525033833 0)
(0.115992633 0.543140151 0)
(0.430001681 0.56511655 1.69970765e-25)
(0.807770083 0.586108304 1.82341653e-25)
(1.24701518 0.606000638 0)
(1.74763799 0.628611553 2.44650162e-24)
(2.31898531 0.656050521 2.47342305e-24)
(2.96939857 0.687044037 -2.82235263e-24)
(3.7017304 0.721288129 -3.30582566e-24)
(4.51993313 0.760122748 0)
(5.42711659 0.804391883 0)
(6.43099822 0.84817571 -5.28161649e-24)
(7.54391681 0.903554575 -4.64407913e-24)
(8.68443146 1.00543009 6.58367889e-25)
(10.0532919 0.954791554 0)
(11.6051835 0.863955891 0)
(12.5827695 1.45569561 1.02566435e-24)
(14.1985345 1.4848306 8.46682258e-25)
(16.7288073 0.0393350662 0)
(17.7184376 0.515204549 1.32710138e-24)
(17.83439 3.11331222 -6.00786341e-24)
(19.5633113 3.11471661 4.41423192e-24)
(21.859847 0.771043151 -3.02809587e-24)
(22.8909831 -0.0513920511 -3.98576158e-23)
(23.0385934 0.226975751 -4.03391513e-23)
(-0.0220807322 0.0195471375 0)
(-0.0673366009 0.0587131734 2.857933e-26)
(-0.113873527 0.0979261151 3.01585272e-26)
(-0.161020601 0.136544815 0)
(-0.208326055 0.174182179 0)
(-0.255514542 0.210589875 2.71839725e-26)
(-0.302437491 0.245624022 2.54666395e-26)
(-0.349025585 0.27921265 -7.02477475e-28)
(-0.395255306 0.311326872 0)
(-0.441125674 0.341960071 -7.92795527e-28)
(-0.486642551 0.371114482 -8.41772104e-28)
(-0.531808727 0.398793162 -1.68929941e-26)
(-0.576618175 0.424995752 -3.02153243e-26)
(-0.621053308 0.449716924 -1.22213229e-26)
(-0.665084274 0.472946696 1.07414459e-26)
(-0.708669516 0.494671919 4.74656106e-27)
(-0.751756985 0.51487838 0)
(-0.79428555 0.533553115 -2.54184307e-27)
(-0.836186312 0.550686678 0)
(-0.877383631 0.566275183 0)
(-0.917795765 0.580322045 0)
(-0.957335055 0.59283937 1.30084734e-26)
(-0.995907631 0.603848969 2.82341395e-26)
(-1.03341264 0.613383031 1.48832993e-26)
(-1.06974102 0.621484473 0)
(-1.10477377 0.628207027 8.04327184e-27)
(-1.13837992 0.633615146 4.26523527e-27)
(-1.17041385 0.637783706 -9.03412936e-27)
(-1.20071223 0.640797473 2.33745572e-26)
(-1.22909057 0.642749593 2.40106946e-26)
(-1.25533936 0.643737602 1.06966294e-26)
(-1.27921659 0.643856442 1.13215495e-26)
(-1.30043532 0.643196442 -1.37250535e-28)
(-1.31869416 0.64188705 2.17452301e-26)
(-1.33373088 0.640089226 -4.12582627e-27)
(-1.34533632 0.6379539 -2.53382855e-26)
(-1.35284312 0.636242761 0)
(-1.35571948 0.633769268 -1.59812085e-26)
(-1.35292123 0.631377449 0)
(-1.34528725 0.628129271 -3.51336538e-26)
(-1.329355 0.626858824 -1.83336808e-25)
(-1.30473469 0.625444407 -1.12181794e-25)
(-1.26800942 0.624571642 -3.97300942e-26)
(-1.21965963 0.622665846 4.34505886e-26)
(-1.15717537 0.621284798 -9.48447107e-26)
(-1.07894359 0.62059092 5.14714054e-26)
(-0.982937523 0.620721482 -5.53697591e-26)
(-0.867052974 0.621562485 1.04251389e-25)
(-0.729073329 0.622969476 -5.71351942e-26)
(-0.567743944 0.624347717 0)
(-0.378068196 0.62661125 7.12916354e-26)
(-0.163238865 0.630787191 -1.51179832e-25)
(0.0885116518 0.641319263 5.9494702e-25)
(0.362153705 0.656232461 -6.43835296e-26)
(0.695856605 0.670768982 -1.85932941e-25)
(1.08244793 0.684240223 6.45506648e-25)
(1.52540947 0.700395808 1.17940016e-24)
(2.03060144 0.721231633 2.10371863e-25)
(2.60537649 0.746347526 2.34095542e-25)
(3.25288412 0.775289558 1.74897467e-24)
(3.97736756 0.808299491 2.2373747e-24)
(4.78386456 0.845762228 -2.82427335e-25)
(5.67853069 0.887652934 2.94805568e-25)
(6.66616815 0.933940674 0)
(7.74775395 0.988818374 -3.78262629e-24)
(8.91155029 1.06004022 -9.17439238e-24)
(10.1568023 1.12405445 -4.95247468e-24)
(11.5296866 1.15871938 0)
(12.8261739 1.31430169 2.53741649e-26)
(14.2166251 1.44563419 7.35409473e-25)
(16.0233418 1.09489585 1.0034582e-23)
(17.3163774 1.23975454 7.42439605e-24)
(18.212262 2.15262919 -6.99631523e-24)
(19.9284361 1.73452808 -1.04637446e-23)
(21.7147822 0.50082963 5.55656061e-26)
(22.5893441 1.01817534 1.24581051e-23)
(22.861628 2.1116549 1.95598927e-23)
(23.0477455 2.40110904 -3.53908304e-24)
(23.1369089 1.88702881 -2.34736031e-23)
(23.1353065 1.28876445 -1.18118922e-23)
(-0.0262933253 0.0215216228 3.52004273e-27)
(-0.0796120297 0.0644714535 -1.8099029e-28)
(-0.133921503 0.10739574 1.89267516e-28)
(-0.188517447 0.149681571 -2.05386676e-28)
(-0.242912529 0.190949558 0)
(-0.296836525 0.230974748 -2.05403656e-26)
(-0.350133836 0.269628699 -4.58360496e-34)
(-0.402730556 0.306848748 1.79886186e-26)
(-0.454597327 0.342611246 1.63657693e-26)
(-0.505724627 0.376911581 2.90425023e-26)
(-0.556106407 0.409751292 1.18233604e-26)
(-0.605729784 0.441130428 -6.72422943e-28)
(-0.654569083 0.471043612 -7.16680297e-28)
(-0.702583009 0.499478708 5.00059303e-27)
(-0.749713957 0.526417322 2.12055961e-27)
(-0.795888649 0.551836422 -2.60545021e-27)
(-0.841019411 0.57571058 5.99637706e-27)
(-0.885005664 0.598014421 1.49788208e-26)
(-0.927735262 0.618725032 1.09460602e-26)
(-0.969085501 0.637824174 -2.24488967e-27)
(-1.00892369 0.655300203 2.39672189e-27)
(-1.04710721 0.671149668 2.56036206e-27)
(-1.08348305 0.685378568 0)
(-1.11788672 0.698003278 -5.87291216e-27)
(-1.15014039 0.709051271 -3.22150094e-26)
(-1.18005064 0.718561696 2.18147363e-29)
(-1.20740553 0.7265852 3.87385896e-26)
(-1.23197044 0.733183041 4.17930527e-26)
(-1.25348208 0.738426814 4.45030473e-26)
(-1.27165558 0.742401967 -5.48374471e-26)
(-1.28620727 0.745204003 9.69091925e-27)
(-1.29686309 0.746930769 1.36405022e-25)
(-1.30314634 0.747959316 6.167119e-26)
(-1.30471177 0.747799695 0)
(-1.30097169 0.746998264 0)
(-1.29139483 0.746098061 1.35226712e-26)
(-1.27628302 0.74443064 0)
(-1.25232158 0.743334682 -3.00749925e-26)
(-1.21883135 0.741410347 -2.65340264e-26)
(-1.1729762 0.739201083 -6.87249192e-26)
(-1.11520562 0.736037594 -1.29036336e-25)
(-1.04341273 0.733017462 0)
(-0.956048611 0.73028553 0)
(-0.850930735 0.727783282 8.82794611e-26)
(-0.725727393 0.725428076 -1.36795954e-27)
(-0.579158795 0.722762867 -6.09012998e-26)
(-0.408573217 0.720298779 0)
(-0.216438575 0.719297118 0)
(0.00678047424 0.723734132 3.84614174e-25)
(0.249536076 0.732589876 8.85453171e-26)
(0.544320288 0.741243828 8.26851832e-26)
(0.886251416 0.748767629 0)
(1.27971987 0.758385161 -6.37617427e-25)
(1.72798963 0.772412763 -5.14251254e-25)
(2.23846684 0.791254161 -1.17623574e-24)
(2.81437143 0.814579606 -1.51307518e-24)
(3.45983395 0.842811322 -1.54080971e-24)
(4.17970322 0.876680221 3.19297971e-32)
(4.97885448 0.917174223 -4.22844243e-32)
(5.86073343 0.96485791 -4.57804353e-24)
(6.8275504 1.01971129 -2.70063456e-24)
(7.87910376 1.08127645 3.20652233e-24)
(9.01674967 1.14699182 4.13870184e-24)
(10.2399259 1.21434855 0)
(11.5418762 1.28159227 5.80995673e-24)
(12.8890116 1.37649486 1.02093991e-23)
(14.2317029 1.49705336 5.69213434e-24)
(15.6931642 1.5378497 0)
(17.0725583 1.59095869 -2.94533528e-26)
(18.2827987 1.86924005 7.18210295e-24)
(19.6726062 1.8870954 7.36213355e-24)
(21.1431601 1.49539662 0)
(22.1534195 1.69442439 0)
(22.7110723 2.16861859 1.10723719e-24)
(23.1493949 1.99525857 -1.02464987e-24)
(23.2220742 1.71407372 8.31837176e-24)
(23.245345 1.79326596 1.59997637e-23)
(23.2325754 1.88617067 0)
(23.1654505 2.09818017 -8.88660305e-25)
(23.1092632 2.02370601 1.9062336e-23)
(-0.0299704762 0.0226409966 -7.97442289e-29)
(-0.0903386906 0.0676888593 -1.24083415e-28)
(-0.15144904 0.112631744 9.58815551e-27)
(-0.212551286 0.156882401 -9.25990328e-27)
(-0.27315189 0.20008585 -8.41831974e-27)
(-0.33293374 0.242021429 0)
(-0.391756059 0.282581432 -1.36947078e-26)
(-0.449533069 0.321717155 -1.14705627e-26)
(-0.506224947 0.359412122 -9.73482319e-27)
(-0.561809083 0.395665565 -7.33262897e-27)
(-0.616261997 0.430480455 -5.52904003e-27)
(-0.669548705 0.463856255 -1.16698503e-34)
(-0.72161666 0.495785253 -5.16216898e-28)
(-0.772392899 0.526251481 -7.10760445e-34)
(-0.821783385 0.555231384 5.9392704e-28)
(-0.869673685 0.582695573 1.21955618e-26)
(-0.915930305 0.60861114 -1.66240101e-26)
(-0.960402187 0.632944173 1.49296624e-27)
(-1.00292205 0.655662237 2.79218126e-26)
(-1.04330733 0.676736715 -1.74299991e-27)
(-1.08136043 0.696145054 3.74923282e-27)
(-1.11686843 0.713873007 -4.47646735e-26)
(-1.14960246 0.729916482 -5.08874911e-26)
(-1.17931615 0.744282477 -2.4007517e-27)
(-1.20573604 0.756984836 0)
(-1.22856327 0.768043584 -2.82270569e-27)
(-1.24748435 0.77748205 0)
(-1.26217434 0.785327526 7.83154299e-26)
(-1.27225375 0.791674329 1.88601587e-25)
(-1.27739929 0.796543201 1.03475545e-25)
(-1.27716235 0.800143584 -1.29530312e-25)
(-1.27109919 0.802851332 -1.21816209e-25)
(-1.25910603 0.804637206 -2.00118488e-26)
(-1.2394751 0.805879714 -1.0784543e-26)
(-1.21090606 0.806077523 -6.56022966e-26)
(-1.17208719 0.805018388 -7.49080649e-26)
(-1.12074391 0.803048344 0)
(-1.0571984 0.800171141 1.48375592e-25)
(-0.979640662 0.79704872 1.65731462e-25)
(-0.886515424 0.793775667 -3.73821091e-26)
(-0.775744888 0.79034758 -4.03554062e-26)
(-0.645114012 0.786719086 0)
(-0.49331746 0.782319582 0)
(-0.316790873 0.777622412 0)
(-0.11539855 0.776271784 -5.37437153e-26)
(0.105253688 0.781781018 2.12407605e-25)
(0.353401714 0.789455178 -3.72325974e-26)
(0.659700631 0.794226623 0)
(1.00981687 0.798107736 0)
(1.40961069 0.805811902 4.49751967e-25)
(1.86440573 0.818261859 5.11716535e-25)
(2.37797252 0.835399386 4.35449204e-25)
(2.95454563 0.857615857 5.00948358e-25)
(3.59890743 0.885726976 2.18080689e-25)
(4.31610344 0.920578505 -4.71345642e-25)
(5.10997141 0.963214034 -1.05793193e-24)
(5.98315866 1.01423085 -1.81862253e-24)
(6.93674283 1.07412678 -2.3919022e-24)
(7.97022526 1.14291906 0)
(9.08002927 1.22139292 -3.20122827e-25)
(10.261789 1.30935647 -3.2496568e-24)
(11.5042752 1.40387476 -7.1469236e-24)
(12.8052415 1.49812935 3.17800371e-25)
(14.1499733 1.58874856 3.21242543e-25)
(15.5274213 1.66866509 -6.38638822e-24)
(16.8961731 1.75879674 5.83672303e-24)
(18.1495999 1.90319107 6.00848462e-24)
(19.4012654 2.03507053 -7.06570303e-25)
(20.5954586 2.03297915 -2.64839124e-24)
(21.7138259 2.06007334 -9.31895578e-24)
(22.5531784 2.17466001 8.23190359e-26)
(23.1096907 2.14853622 -1.68012539e-23)
(23.2416341 2.06300288 -7.84835689e-24)
(23.2707328 2.12468158 0)
(23.266188 2.20211396 -7.08202008e-24)
(23.2164219 2.11176375 -3.83994186e-23)
(23.2123119 2.08287277 9.97698443e-25)
(23.2289321 1.98257447 1.07009161e-23)
(23.2536064 1.99347192 1.18167169e-23)
(23.232063 2.0496503 9.88317181e-24)
(-0.0334105598 0.0232428996 2.59461728e-27)
(-0.100344902 0.0693073826 0)
(-0.167760613 0.115120366 0)
(-0.234861858 0.16012222 2.31724886e-30)
(-0.301128733 0.203985214 0)
(-0.366253907 0.246513247 0)
(-0.430032431 0.287598326 0)
(-0.492385601 0.327205156 3.96340964e-28)
(-0.553273009 0.365335296 0)
(-0.612650511 0.401997542 -2.30825633e-28)
(-0.670470701 0.437199149 3.00530292e-27)
(-0.726669195 0.470942517 -3.39947852e-34)
(-0.781158283 0.503221974 -1.26422546e-26)
(-0.833824125 0.534022751 0)
(-0.884526112 0.563321773 3.57304397e-28)
(-0.933097532 0.591089539 -7.76284618e-28)
(-0.979346849 0.617292592 0)
(-1.02305906 0.641896387 4.26520571e-26)
(-1.06399702 0.664868268 -1.02264695e-27)
(-1.10190221 0.686179563 -1.17559256e-25)
(-1.13648725 0.705803671 -6.54541034e-26)
(-1.16743482 0.723716638 -1.40513667e-27)
(-1.19440644 0.739899554 0)
(-1.21707563 0.754291504 -8.59465144e-26)
(-1.23500446 0.766976121 -9.58683323e-26)
(-1.24789147 0.777999897 -1.12448221e-25)
(-1.2553595 0.787508112 -1.27057459e-25)
(-1.2569846 0.795679954 1.38948179e-25)
(-1.2524659 0.802640153 1.44728452e-25)
(-1.24025153 0.8081872 0)
(-1.21954452 0.812230442 -1.51062549e-25)
(-1.18924891 0.814745127 -1.63375301e-25)
(-1.14786253 0.815814374 -8.70541972e-27)
(-1.09470981 0.815746015 -2.22749483e-25)
(-1.02885995 0.814901951 -2.25086976e-25)
(-0.948772628 0.813448976 2.41346468e-26)
(-0.852835279 0.811472535 -1.30531948e-26)
(-0.739038669 0.80906074 -2.4542465e-25)
(-0.605249382 0.806304611 -2.25803106e-25)
(-0.450005648 0.802838853 2.4644209e-25)
(-0.27000714 0.799185181 8.04552211e-25)
(-0.0642148676 0.798907224 3.95664949e-25)
(0.158903134 0.802480963 0)
(0.42702478 0.806116939 4.97933397e-26)
(0.735700277 0.809033049 -3.46440476e-25)
(1.08975447 0.814256305 5.40371995e-26)
(1.49292095 0.823659293 -1.18314532e-32)
(1.95023239 0.837429443 -4.8295404e-25)
(2.4646349 0.85558925 0)
(3.04073692 0.879131928 7.91618353e-26)
(3.6834204 0.908953294 -3.98445536e-25)
(4.39679183 0.94593885 -6.40730512e-25)
(5.18403192 0.991036409 4.04022013e-25)
(6.04722377 1.04493911 -3.91681965e-25)
(6.98703661 1.10821262 -9.64011459e-25)
(8.00266612 1.18136653 -1.13984955e-24)
(9.09137461 1.2644638 -4.33165053e-24)
(10.2476786 1.35835035 -3.31040025e-24)
(11.4642627 1.46251127 -3.3549325e-24)
(12.7265811 1.57511269 -4.01777778e-24)
(14.021779 1.69704667 0)
(15.3188974 1.82452623 3.16144581e-25)
(16.6196387 1.94801412 -4.18601599e-24)
(17.8917457 2.05499528 -5.43352647e-24)
(19.1341501 2.14562212 -2.81303586e-26)
(20.2995774 2.21959923 0)
(21.3337684 2.29160929 8.46455501e-24)
(22.2197219 2.38010939 1.18223039e-23)
(22.8963296 2.4235326 8.60326942e-25)
(23.1742537 2.41933256 -8.72510053e-25)
(23.2227308 2.46615712 -1.09642993e-26)
(23.2352631 2.46166891 -1.29367603e-24)
(23.23105 2.43333027 -8.24085896e-24)
(23.2258498 2.35396885 -1.32792771e-23)
(23.2363243 2.28915118 -6.02278127e-25)
(23.2392975 2.27419757 0)
(23.2361665 2.25931559 -7.9184927e-24)
(23.2306781 2.22280828 -1.05055164e-23)
(23.2473287 2.18169715 0)
(23.2711853 2.05137926 -1.13094513e-23)
(-0.036936226 0.0235987495 -5.31322802e-27)
(-0.110511428 0.0701055291 -8.42176095e-27)
(-0.184215804 0.116121628 -8.14569991e-27)
(-0.257208644 0.161117711 -1.41394137e-29)
(-0.328943342 0.204795321 5.63900591e-27)
(-0.399091828 0.246987241 -2.4713344e-29)
(-0.467469348 0.287609877 -2.91359005e-27)
(-0.533936426 0.326635119 -1.01312401e-27)
(-0.598444659 0.364071081 2.01555015e-29)
(-0.66092918 0.399940738 3.01111158e-29)
(-0.721309782 0.434261838 -6.26335756e-27)
(-0.779483782 0.467044569 -2.75095591e-26)
(-0.835318121 0.498290643 -2.47516109e-26)
(-0.888646322 0.527992733 -3.18087423e-26)
(-0.939267862 0.556135455 -3.37609027e-29)
(-0.986948933 0.582697553 4.77333844e-26)
(-1.03142333 0.607654883 0)
(-1.07238632 0.630981292 0)
(-1.10949568 0.652647242 7.45805715e-26)
(-1.14241796 0.672571959 1.61178174e-25)
(-1.17070443 0.690837054 9.03092997e-26)
(-1.1940301 0.707423727 1.04101019e-25)
(-1.21200256 0.722396515 -2.11318932e-34)
(-1.22417628 0.735940829 -1.42608714e-25)
(-1.2297402 0.747751495 1.6045665e-25)
(-1.22794923 0.757903717 3.42015906e-25)
(-1.2180058 0.766415969 1.84602355e-25)
(-1.19896283 0.773265159 1.54389914e-27)
(-1.16958283 0.778477725 -1.79210905e-27)
(-1.12952525 0.782512207 4.15005611e-27)
(-1.07754135 0.785463367 0)
(-1.01228664 0.787408438 2.57500331e-25)
(-0.932299801 0.788446218 6.30770156e-27)
(-0.835935197 0.78870592 -2.93494126e-25)
(-0.721180961 0.788347206 0)
(-0.585950796 0.787530278 -2.85983011e-25)
(-0.428614776 0.786022402 -3.41648647e-25)
(-0.246106838 0.784286789 0)
(-0.0367588753 0.785492523 0)
(0.191381521 0.789962779 -3.280063e-25)
(0.464547397 0.79464891 -2.93589275e-25)
(0.77781053 0.79902589 -6.60293273e-26)
(1.13547773 0.806039857 0)
(1.5411518 0.817042418 5.24098477e-25)
(1.99863863 0.832460943 1.02212584e-24)
(2.51212087 0.852978387 5.61660508e-25)
(3.08611165 0.879384132 -5.19793464e-26)
(3.72500648 0.912395451 -1.41949049e-27)
(4.43231216 0.952862598 0)
(5.21074713 1.00168391 -6.23995667e-25)
(6.06202418 1.05962141 1.51239852e-25)
(6.98654503 1.12740121 9.03516316e-25)
(7.98303801 1.20556589 1.85231108e-25)
(9.04853981 1.2944532 -1.00966729e-24)
(10.1777705 1.3937639 -3.08478782e-24)
(11.3635528 1.50354575 2.90710755e-32)
(12.5959652 1.62244228 1.75309636e-24)
(13.8594074 1.74844076 0)
(15.138501 1.8811383 0)
(16.4058598 2.01748198 2.75056126e-25)
(17.6445798 2.15722717 2.91344533e-25)
(18.809666 2.29744811 0)
(19.9141416 2.42556824 5.40114871e-24)
(20.9244528 2.52919437 5.00611014e-24)
(21.869893 2.58255674 -7.78527557e-24)
(22.6288403 2.61479901 -2.78506818e-23)
(23.0947201 2.64588743 -1.03824024e-23)
(23.1972218 2.66146206 -3.97050999e-24)
(23.209322 2.71626963 -3.71042114e-24)
(23.20408 2.73824709 -6.1485891e-25)
(23.1988207 2.65379967 1.30912064e-23)
(23.1995645 2.64424039 6.88889981e-24)
(23.2078067 2.60477356 -9.80948576e-24)
(23.2214655 2.54033633 -8.97432558e-24)
(23.235317 2.50292547 -6.8106285e-24)
(23.2344563 2.44086013 -1.04758873e-23)
(23.2401496 2.41262124 -8.89534904e-24)
(23.2448324 2.38005036 7.3188715e-32)
(23.2558597 2.37373961 1.67496895e-23)
(23.2473584 2.2947161 2.333983e-23)
(-0.0407626647 0.0238407127 2.79796702e-27)
(-0.121405946 0.0704805964 1.22690726e-28)
(-0.201661427 0.116307572 8.02307301e-27)
(-0.280644592 0.160828128 -2.1167136e-34)
(-0.357781345 0.203777728 -4.70960732e-27)
(-0.432723822 0.245017048 -3.12966727e-27)
(-0.50526524 0.284490223 -1.62594382e-27)
(-0.575278569 0.322185625 1.22674558e-27)
(-0.642625249 0.35812379 4.52747996e-27)
(-0.707241545 0.392334886 7.83235202e-27)
(-0.768997442 0.424855325 1.13151561e-26)
(-0.827736538 0.455706995 1.47613982e-26)
(-0.883263917 0.484903272 1.93532083e-26)
(-0.93534232 0.512450243 2.44026568e-26)
(-0.983686903 0.538347863 3.7686205e-28)
(-1.02796761 0.562592013 3.76331131e-28)
(-1.06784157 0.585130409 7.48475196e-26)
(-1.10288375 0.606035034 8.73606687e-26)
(-1.13270955 0.625337823 -6.87869792e-28)
(-1.15674443 0.642989434 -7.21882589e-28)
(-1.17443712 0.658932416 1.44512121e-25)
(-1.18509225 0.673215345 1.59856218e-25)
(-1.18795771 0.685830988 0)
(-1.18216027 0.69673621 4.74978752e-28)
(-1.16712611 0.70624645 0)
(-1.14186717 0.714366693 0)
(-1.10529956 0.721161459 1.63926865e-28)
(-1.05622479 0.726717213 -2.62368178e-25)
(-0.993330259 0.731130829 -2.82188627e-25)
(-0.915151115 0.734547916 3.03887233e-25)
(-0.820011734 0.73715667 3.24596305e-25)
(-0.705961175 0.739153772 -1.97174502e-27)
(-0.570953348 0.740745396 2.84912715e-27)
(-0.413252594 0.741808452 0)
(-0.230011434 0.742758525 -3.39161337e-27)
(-0.0191130758 0.746259352 0)
(0.212391992 0.752473429 0)
(0.488217108 0.75916377 -6.23067144e-27)
(0.803495165 0.76606449 0)
(1.16187558 0.776024852 0)
(1.56742082 0.790166721 5.32990737e-25)
(2.02365304 0.808821333 5.17348399e-25)
(2.53457314 0.832696492 0)
(3.10438985 0.862576084 0)
(3.73695374 0.899331629 0)
(4.43555268 0.943893308 -3.41502906e-26)
(5.20272286 0.997215727 -4.00948603e-26)
(6.0399592 1.06014811 8.18197003e-25)
(6.94739229 1.13345018 8.56240305e-25)
(7.92352027 1.21770393 9.61316613e-25)
(8.96496255 1.31319622 1.09699379e-24)
(10.0664583 1.41986658 1.32868612e-24)
(11.2204706 1.53697989 1.54991415e-24)
(12.4180325 1.66370983 0)
(13.6467123 1.79816906 0)
(14.8896319 1.93756524 -1.79083459e-24)
(16.1299099 2.079717 -4.14893985e-24)
(17.3432943 2.2209789 -2.39097358e-24)
(18.5098325 2.35957019 -2.60515011e-24)
(19.5958564 2.49344484 -2.33290224e-24)
(20.5877838 2.6144331 6.17550886e-24)
(21.4538013 2.72888032 1.2238526e-23)
(22.2055715 2.8004814 3.54983393e-25)
(22.8373916 2.86112252 -1.11506014e-23)
(23.1287016 2.88144916 3.40678705e-25)
(23.1925023 2.91103203 -6.84674926e-25)
(23.1908035 2.91076291 6.05593675e-24)
(23.1824944 2.93221782 -4.66752338e-32)
(23.1845531 2.85258509 -1.18804347e-23)
(23.1859049 2.84486759 -4.92737422e-25)
(23.1926649 2.81859571 1.01860674e-23)
(23.2053479 2.77478786 5.17657833e-24)
(23.2094363 2.73533955 0)
(23.2068166 2.71824111 4.71951601e-25)
(23.215277 2.69652933 0)
(23.2453166 2.6315607 1.06762298e-23)
(23.3094769 2.57684243 2.05739708e-23)
(23.3362233 2.55090141 1.04304789e-23)
(23.3423052 2.56671052 8.76013722e-24)
(23.350214 2.52570248 2.40042218e-23)
(-0.0449404422 0.0239657934 2.82946793e-27)
(-0.133106659 0.0704484237 8.7123691e-27)
(-0.220126979 0.115743698 -2.83656214e-28)
(-0.305072525 0.159400441 -5.43795572e-27)
(-0.387339113 0.201192366 -3.1007973e-27)
(-0.466554785 0.241011396 -8.86328817e-28)
(-0.542488176 0.278828318 -6.92611545e-28)
(-0.614981016 0.314657364 -6.04215441e-27)
(-0.68387693 0.348535006 -9.68817367e-27)
(-0.749016007 0.38050449 -1.39599813e-26)
(-0.810229811 0.410610924 0)
(-0.867287743 0.43890056 -1.71504442e-27)
(-0.919909454 0.465407229 8.97579296e-28)
(-0.967775524 0.490122066 0)
(-1.01047756 0.513158479 0)
(-1.0475939 0.534438462 0)
(-1.07857715 0.554062276 0)
(-1.10286258 0.571964103 -1.03621384e-27)
(-1.11975418 0.58814651 0)
(-1.1286059 0.602778305 -8.1478101e-26)
(-1.12863984 0.615857839 -9.08640599e-26)
(-1.11896481 0.627431468 1.94695087e-25)
(-1.09858352 0.637579529 2.16828545e-25)
(-1.06642595 0.646369713 -2.35920205e-25)
(-1.02129756 0.653915153 -2.62788643e-25)
(-0.961869222 0.660361196 -2.83605405e-25)
(-0.886664385 0.665874199 -3.05238472e-25)
(-0.79403824 0.670642273 -3.3612692e-25)
(-0.682105183 0.67487672 -7.07491497e-25)
(-0.548853305 0.678817457 -3.62864221e-25)
(-0.39246387 0.682426958 0)
(-0.210269535 0.686072068 -3.71443042e-27)
(0.00025334484 0.691965779 -3.36029821e-27)
(0.232718852 0.700250676 0)
(0.508494131 0.709391693 1.89952716e-27)
(0.823047138 0.71929493 0)
(1.1794367 0.732574442 0)
(1.58201019 0.750139139 5.74776674e-25)
(2.03405843 0.772288343 -2.00189013e-28)
(2.53936689 0.799783681 -6.13451044e-25)
(3.10187043 0.833464184 6.3928609e-25)
(3.72513457 0.874241079 6.71962726e-25)
(4.4122212 0.923079059 -3.76812167e-27)
(5.16548782 0.980943444 0)
(5.98630091 1.04872158 8.14022018e-25)
(6.87474913 1.12721633 8.40998406e-25)
(7.82935929 1.21706833 0)
(8.84683701 1.31867813 0)
(9.92186779 1.43210751 -1.11773301e-24)
(11.0470205 1.55700121 -1.25509082e-24)
(12.2126228 1.69236796 1.48156181e-24)
(13.4074212 1.83674367 1.68434029e-24)
(14.6174527 1.98762071 -1.6840734e-24)
(15.8252652 2.14183414 1.93544782e-32)
(17.0116079 2.29705842 2.0844607e-24)
(18.1523181 2.44790622 1.11094363e-26)
(19.2296486 2.5912321 0)
(20.2202103 2.72128024 1.54667733e-25)
(21.1111978 2.84142869 -2.418329e-24)
(21.8671964 2.94071139 2.82305918e-25)
(22.512754 3.025467 3.74232783e-24)
(22.9666924 3.05926298 0)
(23.1877435 3.13237813 2.38759713e-25)
(23.1968381 3.13741237 0)
(23.1881207 3.15634687 1.29766198e-25)
(23.1656429 3.14331724 -2.13250434e-25)
(23.1724638 3.10051653 -6.72660765e-25)
(23.1817865 3.06656216 -6.12839631e-24)
(23.1889133 3.04449231 -5.728822e-24)
(23.1945785 2.998226 -6.98415826e-25)
(23.1881396 2.99609732 -6.15249295e-24)
(23.2141083 2.95011497 -8.81864402e-24)
(23.2358211 2.92067101 -9.09841911e-24)
(23.2506624 2.8973957 -9.70071133e-24)
(23.2725931 2.88036303 -1.04276054e-23)
(23.3089937 2.8535595 -1.04713502e-23)
(23.4081338 2.80104077 1.00568059e-23)
(23.4655842 2.7594572 1.03137835e-23)
(23.511818 2.77317005 -1.44403363e-24)
(23.5423327 2.75781528 1.67176398e-24)
(-0.0492485762 0.0238317235 2.53867809e-27)
(-0.144904953 0.0696298923 -8.05036728e-27)
(-0.238361058 0.113863437 -4.87470038e-28)
(-0.328643083 0.156131383 -4.99536106e-34)
(-0.415113604 0.196248446 -2.77679016e-28)
(-0.497369016 0.234139876 -5.64331634e-28)
(-0.575142207 0.269804551 6.61927904e-27)
(-0.648230047 0.303286214 9.39152977e-34)
(-0.716449257 0.334639677 -2.83372e-26)
(-0.779543764 0.363949273 -1.99951649e-26)
(-0.837256509 0.391254603 1.42798835e-27)
(-0.889249166 0.416625909 -3.31948788e-26)
(-0.935125255 0.440117495 -3.72509682e-26)
(-0.974403555 0.461816879 -4.62997295e-26)
(-1.00655227 0.481675061 -5.35588669e-26)
(-1.03093979 0.499847423 6.11973907e-26)
(-1.04687674 0.516353437 6.99574593e-26)
(-1.05357081 0.531256523 -1.83585441e-27)
(-1.05013138 0.544632628 0)
(-1.03560299 0.556546583 -9.74616663e-26)
(-1.00886584 0.56713249 -1.10604662e-25)
(-0.96875283 0.576499695 -4.27654615e-27)
(-0.913942485 0.58480634 1.34256456e-25)
(-0.842985136 0.59222438 1.51196016e-25)
(-0.754257459 0.598946059 -9.0857314e-27)
(-0.645948057 0.605207682 0)
(-0.516092514 0.611276434 4.74940306e-27)
(-0.36282641 0.617194682 2.40358853e-28)
(-0.183643065 0.623301514 -4.77460723e-25)
(0.0242539274 0.63142076 -4.91994485e-25)
(0.255228123 0.641714003 4.35113793e-25)
(0.528168626 0.653258378 4.479377e-25)
(0.838950466 0.666060932 -2.03534448e-26)
(1.19076328 0.682362451 -5.81429569e-25)
(1.58759564 0.702982658 -6.98387093e-33)
(2.03259718 0.728281212 6.23156157e-25)
(2.52934558 0.759063603 -6.64728345e-25)
(3.0815156 0.796202608 -6.8718165e-25)
(3.69242519 0.840609904 -1.76315045e-26)
(4.36495113 0.893238233 8.5733382e-27)
(5.10133716 0.955033522 6.61995351e-27)
(5.90292473 1.02687845 -8.53142424e-25)
(6.7698984 1.10957517 -1.81998217e-24)
(7.70101154 1.20377715 -9.81892327e-25)
(8.69332145 1.30992215 -1.06349953e-24)
(9.74194994 1.42815673 -1.16542356e-24)
(10.8399031 1.55826799 0)
(11.9779396 1.69958766 1.43980847e-24)
(13.1447004 1.85091196 1.61400517e-24)
(14.3268596 2.01049522 1.74926748e-24)
(15.5090306 2.17592465 3.60312418e-24)
(16.6731065 2.34382338 3.71154417e-24)
(17.7997422 2.51078652 3.83905833e-24)
(18.8670306 2.67154464 4.02595055e-24)
(19.856491 2.82511384 2.1055231e-24)
(20.7452281 2.96378946 -2.81887678e-25)
(21.5239287 3.08306413 0)
(22.1943848 3.17161663 -2.72768509e-24)
(22.7455802 3.24246968 -4.47122075e-24)
(23.0868124 3.28736487 0)
(23.1977911 3.32616816 -3.88340312e-24)
(23.2298257 3.3631966 -1.34216268e-24)
(23.217814 3.33111795 0)
(23.1833153 3.36696055 -2.15151864e-25)
(23.1734964 3.33668751 0)
(23.172437 3.32642354 -7.47769119e-24)
(23.1703051 3.30620897 -8.35568557e-25)
(23.1733384 3.29120858 5.79174957e-24)
(23.1861925 3.24417048 -5.72610571e-25)
(23.2055913 3.20701694 -6.41836573e-25)
(23.2300223 3.17238216 -8.19028214e-24)
(23.2587813 3.1480176 -7.96726197e-24)
(23.3016237 3.10898858 -6.81224291e-25)
(23.3514767 3.08016509 -6.80026297e-25)
(23.3944181 3.0587498 -4.86989049e-26)
(23.4405866 3.04443468 -7.21151994e-25)
(23.5202661 3.01494551 1.09658267e-23)
(23.6017987 2.95222182 2.11501964e-23)
(23.6779014 2.93099231 1.05393326e-23)
(23.6589975 2.94986349 -1.49248627e-24)
(-0.0532612223 0.0232463169 0)
(-0.155514643 0.0674986013 -6.96975785e-28)
(-0.254195198 0.109855772 7.32045775e-28)
(-0.348283995 0.149977155 -1.38276462e-27)
(-0.437105489 0.187722157 8.09877247e-28)
(-0.520212904 0.223052576 8.50917319e-28)
(-0.597281714 0.25600655 -1.34716702e-26)
(-0.668039822 0.286641095 0)
(-0.7321917 0.315049627 1.95308673e-27)
(-0.789407896 0.341305045 -2.9827163e-26)
(-0.839274333 0.365520962 -3.40140365e-26)
(-0.881328723 0.387772979 4.33757558e-26)
(-0.915016459 0.408151661 2.36344457e-27)
(-0.939692724 0.426747336 -1.16691325e-25)
(-0.954616868 0.443650259 -1.37416862e-25)
(-0.958944141 0.458964961 -7.57544902e-26)
(-0.95173631 0.472785778 -2.79333217e-27)
(-0.931954587 0.485243621 -9.88615296e-26)
(-0.89837397 0.496481609 -1.07436167e-25)
(-0.849731288 0.50664449 3.06892913e-27)
(-0.784592878 0.515928459 -3.26751303e-27)
(-0.701371925 0.524555299 -1.33680762e-26)
(-0.598339255 0.532799271 -1.59157813e-25)
(-0.473743376 0.540845053 -3.390707e-25)
(-0.325621785 0.548844384 -1.87505104e-25)
(-0.151532384 0.557246011 -7.76065263e-27)
(0.0514050256 0.567488307 -2.17623399e-25)
(0.278437972 0.579720271 7.7790103e-27)
(0.545925526 0.593512112 -8.13190394e-27)
(0.850303774 0.60895146 -2.63767956e-25)
(1.1948969 0.627934008 0)
(1.58329127 0.651239255 -6.07450796e-25)
(2.01849325 0.679311532 -1.7913565e-26)
(2.5038599 0.712974749 6.84023461e-25)
(3.04280509 0.753100419 7.22483243e-25)
(3.63844092 0.80058958 7.63239594e-25)
(4.29349651 0.856373598 -1.88535836e-26)
(5.01013672 0.921374763 0)
(5.78971296 0.996460405 -3.72071964e-26)
(6.63254054 1.08241728 -9.48243133e-25)