/*--------------------------------*- C++ -*----------------------------------*\
  =========                 |
  \\      /  F ield         | OpenFOAM: The Open Source CFD Toolbox
   \\    /   O peration     | Website:  https://openfoam.org
    \\  /    A nd           | Version:  8
     \\/     M anipulation  |
\*---------------------------------------------------------------------------*/
FoamFile
{
    version     2.0;
    format      ascii;
    class       volScalarField;
    location    "0.003";
    object      p;
}
// * * * * * * * * * * * * * * * * * * * * * * * * * * * * * * * * * * * * * //

dimensions      [1 -1 -2 0 0 0 0];

internalField   nonuniform List<scalar> 
42400
(
101327.723
101327.695
101327.666
101327.643
101327.626
101327.614
101327.607
101327.607
101327.612
101327.623
101327.64
101327.664
101327.696
101327.734
101327.779
101327.833
101327.894
101327.963
101328.039
101328.126
101328.222
101328.326
101328.443
101328.574
101328.715
101328.868
101329.024
101329.184
101329.356
101329.545
101329.752
101329.972
101330.207
101330.455
101330.715
101330.99
101331.279
101331.582
101331.899
101332.228
101332.57
101332.924
101333.288
101333.659
101334.038
101334.424
101334.817
101335.213
101335.609
101336.002
101336.393
101336.779
101337.161
101337.533
101337.895
101338.243
101338.57
101338.878
101339.172
101339.456
101339.737
101340.013
101340.305
101340.607
101340.936
101341.309
101341.665
101342.04
101342.52
101343.029
101343.637
101344.15
101344.884
101345.415
101346.124
101346.821
101347.225
101348.305
101349.007
101349.492
101322.135
101322.107
101322.079
101322.057
101322.041
101322.031
101322.026
101322.026
101322.033
101322.046
101322.066
101322.093
101322.127
101322.169
101322.218
101322.276
101322.343
101322.419
101322.506
101322.606
101322.719
101322.843
101322.971
101323.103
101323.246
101323.402
101323.576
101323.77
101323.977
101324.196
101324.431
101324.681
101324.946
101325.227
101325.523
101325.835
101326.162
101326.504
101326.86
101327.228
101327.608
101328
101328.402
101328.815
101329.234
101329.658
101330.085
101330.515
101330.946
101331.377
101331.806
101332.232
101332.652
101333.062
101333.457
101333.834
101334.197
101334.554
101334.906
101335.257
101335.611
101335.981
101336.367
101336.761
101337.225
101337.753
101338.145
101338.695
101339.806
101340.533
101341.005
101341.922
101342.724
101342.896
101343.547
101344.61
101345.215
101345.636
101346.628
101347.175
101315.771
101315.745
101315.719
101315.7
101315.686
101315.678
101315.675
101315.678
101315.688
101315.704
101315.727
101315.756
101315.794
101315.841
101315.896
101315.961
101316.036
101316.123
101316.218
101316.319
101316.428
101316.548
101316.685
101316.84
101317.008
101317.191
101317.388
101317.601
101317.83
101318.076
101318.338
101318.617
101318.913
101319.226
101319.556
101319.901
101320.263
101320.639
101321.031
101321.437
101321.856
101322.285
101322.724
101323.172
101323.63
101324.094
101324.565
101325.041
101325.521
101326.004
101326.488
101326.971
101327.445
101327.909
101328.363
101328.816
101329.267
101329.723
101330.183
101330.656
101331.129
101331.652
101332.156
101332.727
101333.303
101334.034
101334.708
101335.342
101336.316
101336.833
101337.264
101338.12
101339.219
101339.942
101340.579
101341.28
101342.257
101343.111
101344.121
101344.696
101308.612
101308.59
101308.568
101308.553
101308.543
101308.539
101308.541
101308.548
101308.562
101308.582
101308.609
101308.644
101308.686
101308.737
101308.797
101308.864
101308.94
101309.025
101309.121
101309.231
101309.358
101309.498
101309.653
101309.822
101310.006
101310.206
101310.422
101310.656
101310.907
101311.176
101311.463
101311.769
101312.092
101312.433
101312.792
101313.169
101313.563
101313.973
101314.398
101314.837
101315.292
101315.76
101316.242
101316.737
101317.243
101317.761
101318.291
101318.831
101319.383
101319.943
101320.507
101321.068
101321.626
101322.186
101322.753
101323.33
101323.918
101324.518
101325.136
101325.765
101326.398
101327.117
101327.728
101328.587
101329.293
101329.766
101330.691
101331.517
101332.308
101333.386
101334.249
101335.092
101336.127
101337.024
101337.886
101338.805
101339.823
101340.725
101341.782
101342.575
101300.678
101300.662
101300.647
101300.637
101300.633
101300.635
101300.641
101300.653
101300.672
101300.696
101300.728
101300.766
101300.812
101300.866
101300.928
101301.002
101301.087
101301.184
101301.293
101301.415
101301.551
101301.701
101301.867
101302.048
101302.247
101302.462
101302.696
101302.948
101303.219
101303.509
101303.818
101304.147
101304.496
101304.863
101305.25
101305.655
101306.079
101306.522
101306.985
101307.465
101307.965
101308.483
101309.02
101309.576
101310.152
101310.747
101311.363
101312
101312.656
101313.323
101313.996
101314.677
101315.371
101316.079
101316.808
101317.551
101318.319
101319.088
101319.907
101320.704
101321.63
101322.542
101323.175
101324.061
101324.965
101325.883
101326.885
101327.897
101328.846
101329.888
101330.972
101332.02
101333.025
101334.014
101334.989
101335.951
101337.278
101338.654
101339.621
101340.242
101292.022
101292.013
101292.005
101292.003
101292.006
101292.014
101292.027
101292.046
101292.07
101292.1
101292.137
101292.181
101292.233
101292.294
101292.364
101292.445
101292.536
101292.639
101292.755
101292.885
101293.029
101293.189
101293.365
101293.558
101293.769
101293.999
101294.249
101294.517
101294.806
101295.116
101295.446
101295.797
101296.169
101296.564
101296.98
101297.42
101297.882
101298.368
101298.878
101299.413
101299.974
101300.562
101301.177
101301.822
101302.496
101303.202
101303.943
101304.714
101305.509
101306.325
101307.164
101308.025
101308.912
101309.81
101310.737
101311.664
101312.635
101313.603
101314.672
101315.696
101316.501
101317.518
101318.607
101319.665
101320.752
101321.854
101322.915
101324.076
101325.238
101326.414
101327.414
101328.496
101329.698
101330.901
101332.099
101333.107
101334.292
101336.012
101337.494
101338.148
101282.687
101282.686
101282.689
101282.696
101282.707
101282.723
101282.744
101282.769
101282.801
101282.838
101282.881
101282.932
101282.99
101283.057
101283.133
101283.22
101283.317
101283.427
101283.551
101283.688
101283.841
101284.01
101284.197
101284.401
101284.625
101284.869
101285.133
101285.418
101285.726
101286.056
101286.41
101286.788
101287.192
101287.622
101288.08
101288.566
101289.083
101289.63
101290.211
101290.825
101291.476
101292.164
101292.89
101293.657
101294.467
101295.32
101296.218
101297.149
101298.112
101299.12
101300.188
101301.314
101302.505
101303.684
101304.857
101305.95
101307.16
101308.229
101309.154
101310.315
101311.57
101312.798
101314.033
101315.263
101316.536
101317.781
101319.082
101320.308
101321.51
101323.053
101324.223
101325.274
101326.629
101327.934
101329.309
101330.501
101331.431
101333.191
101335.207
101336.952
101272.739
101272.748
101272.761
101272.778
101272.799
101272.824
101272.853
101272.887
101272.926
101272.971
101273.021
101273.079
101273.144
101273.217
101273.299
101273.392
101273.496
101273.613
101273.744
101273.889
101274.051
101274.23
101274.427
101274.644
101274.882
101275.141
101275.422
101275.729
101276.06
101276.419
101276.806
101277.224
101277.674
101278.157
101278.677
101279.234
101279.832
101280.473
101281.158
101281.89
101282.67
101283.499
101284.377
101285.304
101286.279
101287.297
101288.344
101289.397
101290.427
101291.431
101292.366
101293.399
101294.948
101296.921
101298.664
101300.142
101301.631
101302.885
101304.184
101305.5
101306.834
101308.189
101309.588
101310.951
101312.409
101313.957
101315.346
101316.612
101318.11
101319.751
101321.34
101322.762
101324.247
101325.865
101327.635
101329.603
101331.304
101332.528
101334.015
101335.752
101262.251
101262.271
101262.296
101262.323
101262.354
101262.389
101262.427
101262.47
101262.517
101262.569
101262.627
101262.691
101262.763
101262.843
101262.932
101263.031
101263.142
101263.266
101263.405
101263.559
101263.731
101263.921
101264.131
101264.362
101264.617
101264.896
101265.203
101265.538
101265.905
101266.306
101266.742
101267.218
101267.737
101268.3
101268.912
101269.577
101270.296
101271.074
101271.912
101272.812
101273.777
101274.805
101275.896
101277.048
101278.258
101279.518
101280.825
101282.169
101283.545
101285.004
101286.846
101288.904
101290.395
101291.414
101292.474
101293.49
101294.683
101296.403
101298.213
101299.954
101301.661
101303.334
101305.012
101306.646
101308.377
101310.124
101311.614
101313.225
101314.932
101316.541
101318.259
101320.072
101321.811
101323.576
101325.426
101327.604
101329.377
101330.868
101332.267
101333.475
101251.309
101251.339
101251.376
101251.415
101251.456
101251.5
101251.548
101251.599
101251.655
101251.715
101251.78
101251.851
101251.929
101252.015
101252.11
101252.216
101252.334
101252.466
101252.613
101252.777
101252.96
101253.162
101253.388
101253.638
101253.916
101254.223
101254.564
101254.941
101255.357
101255.817
101256.324
101256.884
101257.499
101258.176
101258.919
101259.733
101260.621
101261.587
101262.635
101263.767
101264.983
101266.283
101267.666
101269.129
101270.665
101272.272
101273.949
101275.661
101277.645
101279.569
101280.807
101282.003
101283.429
101284.981
101286.437
101288.052
101289.977
101291.842
101293.638
101295.41
101297.194
101298.926
101300.811
101302.783
101304.52
101306.3
101308.082
101309.807
101311.624
101313.423
101315.171
101317.055
101318.969
101320.765
101322.563
101324.408
101326.142
101327.96
101330.258
101331.724
101240.014
101240.057
101240.106
101240.156
101240.207
101240.261
101240.318
101240.378
101240.441
101240.508
101240.579
101240.656
101240.74
101240.833
101240.934
101241.047
101241.172
101241.312
101241.468
101241.642
101241.838
101242.056
101242.301
101242.576
101242.883
101243.227
101243.611
101244.04
101244.519
101245.053
101245.647
101246.306
101247.037
101247.843
101248.732
101249.706
101250.769
101251.924
101253.173
101254.515
101255.947
101257.468
101259.07
101260.75
101262.498
101264.315
101266.134
101267.995
101269.868
101271.846
101273.871
101275.662
101277.34
101279.091
101281
101282.933
101284.891
101286.914
101289.014
101291.2
101293.123
101294.961
101297.02
101299.114
101301.061
101303.071
101305.246
101306.944
101308.566
101310.681
101312.482
101313.822
101316.083
101318.513
101320.616
101323.116
101325.827
101328.137
101329.437
101330.974
101228.502
101228.556
101228.618
101228.679
101228.741
101228.805
101228.87
101228.938
101229.009
101229.083
101229.161
101229.245
101229.336
101229.435
101229.544
101229.665
101229.799
101229.95
101230.119
101230.309
101230.524
101230.767
101231.042
101231.352
101231.703
101232.099
101232.545
101233.047
101233.612
101234.245
101234.952
101235.74
101236.615
101237.582
101238.645
101239.808
101241.073
101242.441
101243.913
101245.484
101247.153
101248.913
101250.758
101252.685
101254.696
101256.75
101258.659
101260.681
101262.939
101265.225
101267.465
101269.659
101271.774
101273.773
101275.604
101277.242
101279.102
101281.547
101283.686
101285.597
101287.767
101290.25
101293.065
101295.773
101298.048
101300.123
101302.332
101304.501
101306.346
101308.729
101311.728
101315.065
101317.364
101318.775
101320.442
101322.025
101323.4
101325.069
101327.529
101329.442
101216.912
101216.978
101217.053
101217.126
101217.199
101217.273
101217.348
101217.426
101217.506
101217.589
101217.677
101217.772
101217.874
101217.985
101218.108
101218.245
101218.399
101218.572
101218.768
101218.991
101219.245
101219.535
101219.865
101220.241
101220.669
101221.155
101221.706
101222.328
101223.029
101223.816
101224.696
101225.674
101226.755
101227.945
101229.246
101230.658
101232.181
101233.812
101235.546
101237.376
101239.29
101241.28
101243.317
101245.366
101247.314
101248.626
101250.588
101253.708
101256.66
101259.404
101262.086
101264.733
101267.355
101270.11
101273.156
101276.508
101279.431
101281.074
101282.628
101284.3
101285.745
101287.427
101289.276
101290.949
101293.185
101295.817
101298.374
101301.314
101304.243
101306.993
101309.481
101311.548
101313.699
101316.334
101318.343
101320.286
101322.448
101324.383
101326.224
101328.199
101205.395
101205.473
101205.561
101205.646
101205.731
101205.816
101205.903
101205.993
101206.085
101206.182
101206.285
101206.396
101206.516
101206.649
101206.796
101206.962
101207.15
101207.364
101207.608
101207.887
101208.207
101208.574
101208.994
101209.473
101210.021
101210.643
101211.348
101212.144
101213.038
101214.037
101215.147
101216.375
101217.722
101219.192
101220.783
101222.493
101224.318
101226.248
101228.266
101230.391
101232.529
101234.632
101237.378
101240.904
101244.665
101248.61
101251.626
101253.589
101255.281
101256.869
101258.558
101260.526
101262.587
101264.582
101267.013
101269.936
101272.621
101275.517
101277.922
101280.31
101282.906
101285.073
101287.182
101289.145
101291.453
101294.243
101296.859
101299.486
101302.167
101304.89
101307.17
101309.366
101311.381
101313.026
101315.571
101318.511
101320.809
101323.098
101325.183
101327.214
101194.033
101194.121
101194.222
101194.319
101194.415
101194.513
101194.613
101194.716
101194.824
101194.938
101195.06
101195.193
101195.339
101195.502
101195.685
101195.893
101196.13
101196.402
101196.714
101197.073
101197.486
101197.959
101198.502
101199.122
101199.828
101200.628
101201.532
101202.546
101203.679
101204.937
101206.324
101207.843
101209.495
101211.279
101213.19
101215.222
101217.362
101219.565
101221.847
101224.815
101228.793
101233.074
101235.579
101237.61
101239.314
101240.922
101243.198
101245.559
101248.514
101251.521
101254.213
101256.948
101259.953
101263.147
101265.573
101267.612
101269.841
101272.163
101274.667
101277.3
101279.75
101282.192
101284.854
101287.548
101289.992
101292.501
101295.13
101297.723
101300.245
101302.766
101305.299
101307.838
101310.559
101312.709
101314.155
101316.528
101319.505
101321.607
101323.727
101325.672
101182.877
101182.976
101183.087
101183.194
101183.301
101183.41
101183.522
101183.638
101183.761
101183.893
101184.036
101184.194
101184.371
101184.57
101184.798
101185.058
101185.359
101185.705
101186.106
101186.568
101187.1
101187.713
101188.414
101189.215
101190.125
101191.153
101192.309
101193.602
101195.039
101196.625
101198.365
101200.259
101202.308
101204.508
101206.856
101209.344
101211.945
101214.617
101218.12
101221.05
101223.263
101226.066
101229.093
101231.676
101234.376
101237.162
101239.538
101242.027
101244.407
101246.891
101249.551
101251.982
101254.213
101256.479
101258.952
101261.558
101264.373
101267.835
101271.463
101274.907
101277.939
101280.455
101283.129
101286.009
101288.756
101291.395
101293.99
101296.599
101299.132
101301.77
101304.567
101307.188
101309.864
101312.994
101315.855
101317.628
101319.425
101321.538
101323.513
101325.985
101172.02
101172.127
101172.248
101172.364
101172.48
101172.598
101172.721
101172.85
101172.988
101173.137
101173.302
101173.487
101173.697
101173.937
101174.213
101174.532
101174.902
101175.33
101175.827
101176.401
101177.062
101177.822
101178.69
101179.677
101180.793
101182.05
101183.454
101185.014
101186.736
101188.624
101190.68
101192.903
101195.291
101197.838
101200.539
101203.384
101206.369
101209.627
101212.366
101215.043
101217.668
101219.9
101222.502
101225.32
101228.002
101230.71
101233.507
101236.394
101239.076
101241.455
101243.804
101246.56
101249.894
101253.538
101257.55
101262.03
101266.399
101269.128
101270.93
101273.171
101276.4
101280.45
101284.075
101286.543
101288.745
101291.083
101293.546
101296.12
101298.686
101301.568
101304.584
101307.248
101309.565
101311.637
101313.945
101316.28
101317.995
101321.09
101324.933
101326.393
101161.55
101161.664
101161.791
101161.912
101162.031
101162.152
101162.278
101162.412
101162.556
101162.714
101162.892
101163.094
101163.326
101163.595
101163.909
101164.275
101164.703
101165.202
101165.782
101166.453
101167.226
101168.113
101169.123
101170.268
101171.556
101172.996
101174.593
101176.353
101178.275
101180.359
101182.601
101184.99
101187.519
101190.172
101192.922
101195.738
101198.595
101201.407
101204.015
101206.734
101210.47
101214.743
101218.213
101221.19
101224.264
101227.482
101230.698
101233.974
101237.357
101241.129
101245.208
101248.605
101251.743
101254.767
101257.514
101260.427
101263.456
101267.112
101271.371
101274.489
101276.796
101279.288
101282.027
101284.726
101287.247
101289.792
101292.357
101294.99
101297.603
101300.12
101302.498
101305.28
101308.628
101311.214
101314.098
101317.25
101319.691
101322.621
101325.266
101327.422
101151.859
101151.979
101152.111
101152.236
101152.359
101152.485
101152.616
101152.756
101152.91
101153.081
101153.277
101153.503
101153.766
101154.075
101154.438
101154.864
101155.363
101155.947
101156.625
101157.41
101158.311
101159.342
101160.511
101161.827
101163.3
101164.933
101166.732
101168.697
101170.826
101173.113
101175.547
101178.11
101180.828
101183.664
101186.555
101189.735
101193.812
101198.774
101203.358
101207.057
101209.44
101211.163
101213.884
101217.686
101221.625
101225.526
101229.397
101233.216
101237.087
101240.864
101244.39
101247.551
101250.143
101252.651
101255.335
101258.532
101261.442
101263.629
101265.648
101268.842
101274.146
101278.176
101281.016
101283.434
101285.869
101288.208
101290.467
101293.727
101298.122
101301.151
101303.46
101306.005
101308.747
101311.698
101314.264
101316.675
101319.401
101322.116
101324.418
101326.648
101143.427
101143.551
101143.689
101143.82
101143.95
101144.086
101144.229
101144.387
101144.562
101144.763
101144.995
101145.266
101145.585
101145.961
101146.404
101146.923
101147.531
101148.238
101149.056
101149.996
101151.067
101152.28
101153.643
101155.161
101156.839
101158.679
101160.68
101162.838
101165.15
101167.6
101170.151
101172.793
101176.169
101180.646
101185.331
101189.669
101192.988
101195.647
101199.08
101202.69
101205.786
101209.158
101212.539
101215.765
101218.872
101221.748
101225.165
101229.354
101233.31
101236.868
101240.486
101244.31
101247.895
101251.565
101255.218
101258.275
101261.418
101265.212
101268.785
101271.008
101272.498
101274.403
101277.543
101281.669
101285.478
101289.391
101293.823
101296.015
101297.059
101299.31
101303.466
101307.09
101310.41
101313.159
101315.535
101317.823
101320.139
101322.512
101324.756
101326.908
101357.565
101357.577
101357.592
101357.608
101357.625
101357.643
101357.663
101357.684
101357.706
101357.73
101357.755
101357.781
101357.809
101357.837
101357.866
101357.896
101357.927
101357.959
101357.99
101358.022
101358.054
101358.086
101358.117
101358.147
101358.177
101358.205
101358.233
101358.258
101358.282
101358.305
101358.325
101358.343
101358.359
101358.373
101358.384
101358.393
101358.4
101358.405
101358.408
101358.409
101358.409
101358.409
101358.408
101358.407
101358.406
101358.407
101358.409
101358.414
101358.421
101358.433
101358.45
101358.472
101358.501
101358.535
101358.579
101358.633
101358.699
101358.768
101358.84
101358.921
101359.01
101359.107
101359.212
101359.325
101359.443
101359.568
101359.698
101359.832
101359.969
101360.11
101360.253
101360.397
101360.543
101360.689
101360.835
101360.98
101361.126
101361.273
101361.424
101361.553
101357.511
101357.525
101357.541
101357.558
101357.577
101357.596
101357.617
101357.639
101357.663
101357.688
101357.714
101357.741
101357.769
101357.799
101357.829
101357.86
101357.891
101357.923
101357.955
101357.987
101358.019
101358.051
101358.082
101358.113
101358.142
101358.17
101358.197
101358.222
101358.245
101358.266
101358.285
101358.302
101358.317
101358.329
101358.339
101358.346
101358.352
101358.355
101358.356
101358.356
101358.355
101358.352
101358.35
101358.348
101358.346
101358.345
101358.345
101358.347
101358.354
101358.366
101358.383
101358.407
101358.435
101358.474
101358.525
101358.581
101358.641
101358.708
101358.782
101358.865
101358.957
101359.057
101359.164
101359.278
101359.399
101359.526
101359.658
101359.794
101359.933
101360.075
101360.219
101360.363
101360.507
101360.65
101360.792
101360.935
101361.08
101361.224
101361.369
101361.498
101357.326
101357.339
101357.355
101357.372
101357.39
101357.409
101357.429
101357.451
101357.474
101357.498
101357.524
101357.551
101357.579
101357.608
101357.637
101357.668
101357.699
101357.731
101357.763
101357.795
101357.826
101357.858
101357.889
101357.919
101357.947
101357.975
101358.001
101358.026
101358.048
101358.068
101358.087
101358.102
101358.116
101358.127
101358.135
101358.141
101358.145
101358.146
101358.145
101358.143
101358.14
101358.136
101358.133
101358.131
101358.127
101358.122
101358.122
101358.127
101358.136
101358.15
101358.173
101358.204
101358.237
101358.276
101358.321
101358.377
101358.441
101358.514
101358.596
101358.686
101358.785
101358.891
101359.004
101359.124
101359.249
101359.379
101359.513
101359.65
101359.789
101359.93
101360.071
101360.215
101360.363
101360.514
101360.657
101360.784
101360.917
101361.058
101361.199
101361.327
101357.006
101357.019
101357.034
101357.05
101357.068
101357.086
101357.105
101357.126
101357.148
101357.172
101357.197
101357.222
101357.249
101357.278
101357.307
101357.336
101357.367
101357.398
101357.429
101357.461
101357.492
101357.523
101357.553
101357.583
101357.612
101357.639
101357.665
101357.689
101357.711
101357.73
101357.747
101357.762
101357.774
101357.784
101357.79
101357.795
101357.797
101357.796
101357.793
101357.789
101357.782
101357.773
101357.772
101357.774
101357.766
101357.762
101357.766
101357.773
101357.784
101357.801
101357.824
101357.851
101357.889
101357.936
101357.992
101358.056
101358.129
101358.212
101358.303
101358.402
101358.51
101358.624
101358.746
101358.873
101359.005
101359.144
101359.292
101359.447
101359.608
101359.773
101359.925
101360.057
101360.183
101360.303
101360.433
101360.585
101360.734
101360.871
101361.006
101361.132
101356.558
101356.571
101356.586
101356.601
101356.618
101356.636
101356.654
101356.674
101356.696
101356.718
101356.742
101356.767
101356.793
101356.82
101356.848
101356.876
101356.906
101356.936
101356.967
101356.997
101357.028
101357.059
101357.089
101357.118
101357.146
101357.172
101357.198
101357.221
101357.242
101357.261
101357.277
101357.291
101357.302
101357.31
101357.315
101357.326
101357.33
101357.32
101357.312
101357.302
101357.288
101357.273
101357.267
101357.267
101357.269
101357.272
101357.278
101357.289
101357.306
101357.329
101357.36
101357.399
101357.447
101357.504
101357.57
101357.645
101357.73
101357.825
101357.93
101358.047
101358.174
101358.312
101358.463
101358.623
101358.776
101358.914
101359.048
101359.183
101359.319
101359.445
101359.591
101359.769
101359.945
101360.113
101360.269
101360.408
101360.535
101360.663
101360.795
101360.931
101356.001
101356.014
101356.028
101356.043
101356.059
101356.076
101356.094
101356.113
101356.133
101356.155
101356.177
101356.201
101356.226
101356.252
101356.279
101356.307
101356.336
101356.366
101356.396
101356.426
101356.456
101356.486
101356.516
101356.544
101356.572
101356.598
101356.623
101356.645
101356.665
101356.683
101356.698
101356.71
101356.726
101356.733
101356.73
101356.728
101356.72
101356.708
101356.694
101356.68
101356.677
101356.684
101356.688
101356.689
101356.691
101356.697
101356.71
101356.728
101356.753
101356.787
101356.829
101356.881
101356.943
101357.016
101357.099
101357.196
101357.304
101357.425
101357.553
101357.683
101357.817
101357.95
101358.075
101358.196
101358.339
101358.519
101358.715
101358.907
101359.099
101359.29
101359.463
101359.615
101359.763
101359.91
101360.058
101360.205
101360.348
101360.493
101360.64
101360.789
101355.35
101355.363
101355.377
101355.392
101355.408
101355.424
101355.442
101355.46
101355.48
101355.501
101355.523
101355.546
101355.57
101355.596
101355.622
101355.65
101355.678
101355.708
101355.737
101355.767
101355.797
101355.827
101355.856
101355.884
101355.911
101355.937
101355.96
101355.982
101356.001
101356.023
101356.038
101356.044
101356.048
101356.047
101356.042
101356.033
101356.022
101356.021
101356.029
101356.04
101356.044
101356.043
101356.044
101356.049
101356.059
101356.075
101356.099
101356.13
101356.171
101356.223
101356.281
101356.348
101356.431
101356.527
101356.625
101356.729
101356.841
101356.949
101357.057
101357.189
101357.359
101357.547
101357.739
101357.937
101358.135
101358.316
101358.484
101358.657
101358.834
101359.013
101359.192
101359.367
101359.535
101359.705
101359.874
101360.035
101360.194
101360.354
101360.51
101360.674
101354.628
101354.641
101354.656
101354.671
101354.687
101354.703
101354.721
101354.74
101354.759
101354.78
101354.802
101354.825
101354.849
101354.875
101354.901
101354.929
101354.957
101354.986
101355.016
101355.046
101355.076
101355.106
101355.135
101355.163
101355.19
101355.215
101355.238
101355.26
101355.281
101355.295
101355.302
101355.307
101355.307
101355.306
101355.311
101355.325
101355.34
101355.349
101355.35
101355.352
101355.355
101355.363
101355.374
101355.391
101355.414
101355.446
101355.488
101355.532
101355.581
101355.645
101355.726
101355.815
101355.905
101355.998
101356.101
101356.23
101356.382
101356.548
101356.724
101356.9
101357.067
101357.236
101357.413
101357.599
101357.792
101357.99
101358.188
101358.386
101358.581
101358.769
101358.961
101359.15
101359.325
101359.497
101359.665
101359.838
101360.019
101360.214
101360.435
101360.662
101353.852
101353.865
101353.88
101353.896
101353.912
101353.928
101353.946
101353.964
101353.984
101354.005
101354.027
101354.05
101354.075
101354.1
101354.127
101354.155
101354.184
101354.213
101354.244
101354.274
101354.304
101354.335
101354.364
101354.393
101354.421
101354.446
101354.471
101354.491
101354.506
101354.518
101354.528
101354.542
101354.563
101354.585
101354.6
101354.608
101354.615
101354.623
101354.633
101354.646
101354.662
101354.684
101354.712
101354.748
101354.784
101354.82
101354.87
101354.939
101355.023
101355.108
101355.196
101355.298
101355.42
101355.558
101355.707
101355.855
101356.003
101356.162
101356.332
101356.513
101356.701
101356.895
101357.094
101357.297
101357.501
101357.701
101357.898
101358.092
101358.28
101358.465
101358.658
101358.86
101359.073
101359.298
101359.499
101359.679
101359.861
101360.036
101360.235
101360.527
101353.037
101353.048
101353.062
101353.076
101353.09
101353.106
101353.122
101353.14
101353.159
101353.179
101353.201
101353.224
101353.248
101353.274
101353.301
101353.329
101353.359
101353.389
101353.42
101353.452
101353.484
101353.516
101353.546
101353.576
101353.605
101353.634
101353.659
101353.68
101353.704
101353.732
101353.762
101353.786
101353.803
101353.819
101353.835
101353.852
101353.871
101353.891
101353.915
101353.943
101353.976
101354.014
101354.051
101354.089
101354.152
101354.228
101354.311
101354.398
101354.49
101354.596
101354.715
101354.839
101354.971
101355.113
101355.267
101355.431
101355.604
101355.784
101355.971
101356.163
101356.359
101356.557
101356.754
101356.955
101357.164
101357.379
101357.603
101357.843
101358.076
101358.277
101358.458
101358.634
101358.794
101358.93
101359.081
101359.335
101359.666
101359.906
101359.924
101360.198
101352.165
101352.173
101352.183
101352.194
101352.205
101352.218
101352.232
101352.248
101352.265
101352.284
101352.304
101352.327
101352.351
101352.376
101352.404
101352.433
101352.463
101352.495
101352.527
101352.56
101352.594
101352.63
101352.668
101352.703
101352.737
101352.77
101352.804
101352.841
101352.874
101352.902
101352.929
101352.956
101352.983
101353.01
101353.038
101353.068
101353.099
101353.134
101353.172
101353.215
101353.264
101353.316
101353.385
101353.461
101353.544
101353.634
101353.727
101353.831
101353.945
101354.068
101354.201
101354.344
101354.495
101354.655
101354.823
101354.997
101355.178
101355.364
101355.55
101355.744
101355.957
101356.188
101356.425
101356.663
101356.887
101357.101
101357.307
101357.51
101357.718
101357.927
101358.117
101358.337
101358.615
101358.874
101358.956
101359.064
101359.647
101360.323
101360.02
101359.846
101351.198
101351.202
101351.208
101351.215
101351.223
101351.233
101351.244
101351.257
101351.273
101351.29
101351.309
101351.331
101351.355
101351.381
101351.409
101351.44
101351.472
101351.509
101351.55
101351.592
101351.631
101351.668
101351.705
101351.745
101351.785
101351.826
101351.865
101351.904
101351.943
101351.981
101352.02
101352.059
101352.098
101352.139
101352.182
101352.227
101352.276
101352.329
101352.387
101352.447
101352.512
101352.581
101352.668
101352.764
101352.859
101352.966
101353.081
101353.204
101353.336
101353.476
101353.624
101353.78
101353.941
101354.109
101354.283
101354.467
101354.671
101354.894
101355.119
101355.337
101355.546
101355.756
101355.969
101356.198
101356.441
101356.678
101356.897
101357.14
101357.422
101357.719
101357.936
101358.086
101358.385
101358.864
101358.93
101358.722
101359.483
101361.472
101361.834
101361.024
101350.095
101350.095
101350.097
101350.1
101350.105
101350.112
101350.121
101350.133
101350.147
101350.163
101350.181
101350.204
101350.231
101350.26
101350.29
101350.322
101350.357
101350.392
101350.427
101350.465
101350.507
101350.552
101350.598
101350.644
101350.691
101350.739
101350.787
101350.835
101350.884
101350.933
101350.983
101351.034
101351.086
101351.141
101351.199
101351.26
101351.325
101351.394
101351.469
101351.55
101351.644
101351.744
101351.839
101351.946
101352.061
101352.185
101352.317
101352.456
101352.603
101352.755
101352.918
101353.093
101353.28
101353.489
101353.697
101353.887
101354.078
101354.273
101354.479
101354.703
101354.935
101355.164
101355.38
101355.618
101355.895
101356.188
101356.424
101356.611
101356.833
101357.125
101357.417
101357.5
101357.737
101358.659
101359.02
101357.937
101357.768
101360.572
101363.612
101365.098
101348.794
101348.79
101348.787
101348.785
101348.786
101348.79
101348.796
101348.805
101348.817
101348.832
101348.85
101348.87
101348.891
101348.917
101348.948
101348.983
101349.02
101349.061
101349.104
101349.149
101349.197
101349.246
101349.298
101349.35
101349.404
101349.46
101349.516
101349.573
101349.632
101349.692
101349.754
101349.818
101349.884
101349.953
101350.026
101350.104
101350.186
101350.275
101350.365
101350.469
101350.578
101350.693
101350.814
101350.943
101351.079
101351.221
101351.373
101351.537
101351.713
101351.9