/*--------------------------------*- C++ -*----------------------------------*\
  =========                 |
  \\      /  F ield         | OpenFOAM: The Open Source CFD Toolbox
   \\    /   O peration     | Website:  https://openfoam.org
    \\  /    A nd           | Version:  8
     \\/     M anipulation  |
\*---------------------------------------------------------------------------*/
FoamFile
{
    version     2.0;
    format      ascii;
    class       volScalarField;
    location    "0.003";
    object      p_rgh;
}
// * * * * * * * * * * * * * * * * * * * * * * * * * * * * * * * * * * * * * //

dimensions      [1 -1 -2 0 0 0 0];

internalField   nonuniform List<scalar> 
42400
(
101327.74
101327.711
101327.683
101327.66
101327.643
101327.631
101327.625
101327.624
101327.629
101327.641
101327.659
101327.683
101327.715
101327.753
101327.799
101327.853
101327.914
101327.984
101328.061
101328.149
101328.246
101328.351
101328.468
101328.6
101328.743
101328.895
101329.05
101329.211
101329.384
101329.574
101329.781
101330.003
101330.239
101330.488
101330.749
101331.025
101331.316
101331.62
101331.937
101332.268
101332.611
101332.966
101333.332
101333.705
101334.085
101334.472
101334.866
101335.264
101335.66
101336.055
101336.446
101336.834
101337.217
101337.59
101337.952
101338.302
101338.63
101338.938
101339.234
101339.519
101339.801
101340.079
101340.374
101340.678
101341.01
101341.377
101341.721
101342.108
101342.58
101343.035
101343.693
101344.275
101344.927
101345.471
101346.2
101346.856
101347.312
101348.137
101348.75
101349.255
101322.137
101322.109
101322.081
101322.059
101322.043
101322.033
101322.028
101322.028
101322.035
101322.049
101322.069
101322.096
101322.13
101322.172
101322.222
101322.281
101322.348
101322.424
101322.512
101322.613
101322.726
101322.851
101322.979
101323.111
101323.255
101323.412
101323.588
101323.783
101323.99
101324.21
101324.445
101324.696
101324.962
101325.244
101325.541
101325.854
101326.182
101326.525
101326.882
101327.252
101327.633
101328.025
101328.429
101328.843
101329.263
101329.688
101330.116
101330.547
101330.979
101331.411
101331.841
101332.268
101332.688
101333.099
101333.494
101333.871
101334.234
101334.59
101334.942
101335.292
101335.647
101336.017
101336.403
101336.8
101337.275
101337.778
101338.18
101338.831
101339.846
101340.461
101341.027
101341.881
101342.627
101342.906
101343.583
101344.606
101345.201
101345.656
101346.628
101347.188
101315.758
101315.732
101315.707
101315.687
101315.674
101315.666
101315.663
101315.667
101315.676
101315.692
101315.715
101315.746
101315.784
101315.83
101315.886
101315.952
101316.027
101316.114
101316.21
101316.311
101316.42
101316.541
101316.678
101316.833
101317.003
101317.186
101317.384
101317.598
101317.828
101318.074
101318.337
101318.617
101318.914
101319.228
101319.558
101319.905
101320.267
101320.645
101321.037
101321.444
101321.864
101322.295
101322.735
101323.184
101323.643
101324.108
101324.581
101325.057
101325.538
101326.022
101326.507
101326.99
101327.466
101327.929
101328.384
101328.836
101329.286
101329.741
101330.2
101330.671
101331.145
101331.666
101332.168
101332.735
101333.319
101334.049
101334.749
101335.406
101336.309
101336.815
101337.305
101338.227
101339.256
101339.917
101340.592
101341.332
101342.319
101343.164
101344.184
101344.906
101308.586
101308.564
101308.543
101308.527
101308.518
101308.514
101308.516
101308.523
101308.537
101308.557
101308.584
101308.619
101308.662
101308.713
101308.773
101308.841
101308.917
101309.002
101309.098
101309.209
101309.336
101309.477
101309.632
101309.802
101309.986
101310.187
101310.404
101310.639
101310.89
101311.16
101311.448
101311.754
101312.078
101312.42
101312.78
101313.158
101313.553
101313.964
101314.389
101314.83
101315.286
101315.755
101316.238
101316.734
101317.242
101317.762
101318.292
101318.834
101319.387
101319.949
101320.514
101321.076
101321.635
101322.195
101322.762
101323.34
101323.926
101324.527
101325.142
101325.769
101326.401
101327.118
101327.733
101328.589
101329.285
101329.796
101330.716
101331.551
101332.38
101333.371
101334.231
101335.141
101336.139
101337.016
101337.915
101338.84
101339.869
101340.774
101341.853
101342.621
101300.64
101300.624
101300.609
101300.6
101300.596
101300.597
101300.604
101300.616
101300.634
101300.659
101300.691
101300.729
101300.775
101300.829
101300.892
101300.966
101301.051
101301.148
101301.258
101301.38
101301.516
101301.667
101301.833
101302.015
101302.214
101302.43
101302.664
101302.917
101303.189
101303.479
101303.789
101304.119
101304.468
101304.837
101305.224
101305.63
101306.055
101306.5
101306.963
101307.445
101307.945
101308.465
101309.003
101309.561
101310.138
101310.735
101311.352
101311.991
101312.648
101313.317
101313.992
101314.675
101315.37
101316.079
101316.809
101317.553
101318.321
101319.092
101319.908
101320.702
101321.635
101322.541
101323.173
101324.067
101324.961
101325.894
101326.908
101327.89
101328.854
101329.907
101330.966
101332.024
101333.063
101334.033
101335.005
101336.017
101337.338
101338.623
101339.627
101340.349
101291.972
101291.963
101291.956
101291.954
101291.957
101291.965
101291.978
101291.997
101292.021
101292.051
101292.088
101292.132
101292.185
101292.246
101292.316
101292.397
101292.488
101292.592
101292.708
101292.838
101292.982
101293.142
101293.319
101293.512
101293.724
101293.955
101294.204
101294.473
101294.763
101295.073
101295.404
101295.756
101296.129
101296.524
101296.941
101297.382
101297.845
101298.332
101298.844
101299.38
101299.942
101300.532
101301.149
101301.795
101302.471
101303.179
101303.921
101304.693
101305.49
101306.306
101307.146
101308.008
101308.896
101309.797
101310.728
101311.661
101312.634
101313.603
101314.674
101315.699
101316.506
101317.521
101318.606
101319.668
101320.754
101321.855
101322.93
101324.075
101325.222
101326.377
101327.412
101328.547
101329.757
101330.931
101332.087
101333.123
101334.407
101336.067
101337.503
101338.297
101282.628
101282.627
101282.629
101282.636
101282.648
101282.664
101282.684
101282.71
101282.742
101282.779
101282.822
101282.873
101282.931
101282.998
101283.074
101283.161
101283.259
101283.369
101283.492
101283.63
101283.783
101283.952
101284.139
101284.344
101284.568
101284.812
101285.077
101285.363
101285.671
101286.001
101286.356
101286.735
101287.139
101287.57
101288.029
101288.516
101289.034
101289.583
101290.164
101290.78
101291.433
101292.123
101292.851
101293.621
101294.433
101295.29
101296.19
101297.123
101298.087
101299.092
101300.153
101301.267
101302.451
101303.627
101304.813
101305.928
101307.146
101308.229
101309.158
101310.32
101311.571
101312.8
101314.033
101315.263
101316.535
101317.794
101319.056
101320.28
101321.534
101323.019
101324.158
101325.293
101326.648
101327.949
101329.305
101330.457
101331.421
101333.213
101335.236
101336.967
101272.672
101272.681
101272.694
101272.711
101272.732
101272.757
101272.786
101272.82
101272.859
101272.904
101272.954
101273.012
101273.076
101273.15
101273.232
101273.325
101273.429
101273.546
101273.677
101273.823
101273.984
101274.164
101274.361
101274.578
101274.816
101275.075
101275.357
101275.664
101275.996
101276.355
101276.743
101277.161
101277.611
101278.095
101278.616
101279.174
101279.773
101280.414
101281.101
101281.834
101282.615
101283.446
101284.328
101285.259
101286.24
101287.267
101288.327
101289.398
101290.458
101291.507
101292.495
101293.511
101294.963
101296.87
101298.647
101300.169
101301.624
101302.875
101304.171
101305.484
101306.82
101308.182
101309.584
101310.956
101312.426
101313.908
101315.293
101316.62
101318.13
101319.802
101321.284
101322.667
101324.177
101325.784
101327.534
101329.394
101331.161
101332.636
101334.166
101335.808
101262.179
101262.198
101262.223
101262.251
101262.282
101262.316
101262.355
101262.397
101262.444
101262.497
101262.555
101262.619
101262.69
101262.77
101262.859
101262.959
101263.07
101263.194
101263.333
101263.488
101263.659
101263.85
101264.06
101264.292
101264.546
101264.827
101265.133
101265.47
101265.837
101266.238
101266.675
101267.152
101267.67
101268.235
101268.847
101269.512
101270.231
101271.008
101271.846
101272.745
101273.708
101274.733
101275.82
101276.967
101278.169
101279.417
101280.707
101282.02
101283.35
101284.797
101286.665
101288.838
101290.458
101291.506
101292.572
101293.569
101294.743
101296.446
101298.259
101300
101301.702
101303.37
101305.04
101306.668
101308.395
101310.126
101311.613
101313.231
101314.939
101316.564
101318.3
101320.103
101321.842
101323.654
101325.545
101327.743
101329.475
101330.83
101332.258
101333.59
101251.231
101251.262
101251.299
101251.337
101251.379
101251.423
101251.471
101251.522
101251.578
101251.637
101251.703
101251.774
101251.852
101251.938
101252.034
101252.14
101252.259
101252.391
101252.538
101252.703
101252.886
101253.089
101253.315
101253.566
101253.845
101254.154
101254.495
101254.873
101255.291
101255.752
101256.261
101256.822
101257.439
101258.118
101258.862
101259.677
101260.566
101261.533
101262.582
101263.714
101264.93
101266.229
101267.61
101269.071
101270.605
101272.208
101273.882
101275.591
101277.571
101279.446
101280.709
101281.988
101283.494
101285.068
101286.501
101288.087
101289.972
101291.805
101293.588
101295.359
101297.144
101298.888
101300.779
101302.755
101304.505
101306.287
101308.082
101309.829
101311.658
101313.456
101315.236
101317.129
101319.018
101320.822
101322.639
101324.523
101326.225
101328.039
101330.147
101331.643
101239.929
101239.971
101240.02
101240.07
101240.122
101240.176
101240.233
101240.293
101240.356
101240.423
101240.495
101240.572
101240.656
101240.749
101240.851
101240.964
101241.09
101241.23
101241.387
101241.563
101241.759
101241.979
101242.226
101242.502
101242.812
101243.158
101243.545
101243.977
101244.459
101244.997
101245.595
101246.259
101246.994
101247.807
101248.701
101249.681
101250.752
101251.915
101253.172
101254.522
101255.964
101257.494
101259.106
101260.796
101262.554
101264.382
101266.212
101268.104
101270.035
101272.031
101273.988
101275.711
101277.358
101279.091
101280.984
101282.919
101284.887
101286.903
101288.974
101291.107
101293.071
101294.965
101296.973
101299.038
101301.008
101303.062
101305.157
101306.866
101308.634
101310.732
101312.558
101314.105
101316.24
101318.415
101320.493
101322.981
101325.609
101327.741
101329.243
101330.834
101228.4
101228.453
101228.515
101228.577
101228.639
101228.702
101228.768
101228.836
101228.907
101228.981
101229.059
101229.143
101229.234
101229.334
101229.443
101229.565
101229.7
101229.851
101230.021
101230.213
101230.429
101230.673
101230.95
101231.262
101231.615
101232.013
101232.463
101232.969
101233.537
101234.174
101234.886
101235.68
101236.56
101237.532
101238.602
101239.772
101241.044
101242.42
101243.898
101245.477
101247.152
101248.918
101250.767
101252.697
101254.705
101256.754
101258.666
101260.69
101262.934
101265.217
101267.453
101269.653
101271.788
101273.832
101275.757
101277.526
101279.413
101281.681
101283.751
101285.646
101287.661
101290.064
101292.896
101295.701
101298.004
101300.046
101302.22
101304.327
101306.189
101308.554
101311.372
101314.381
101316.735
101318.469
101320.363
101322.012
101323.529
101325.342
101327.636
101329.573
101216.784
101216.85
101216.925
101216.998
101217.07
101217.144
101217.22
101217.297
101217.376
101217.46
101217.547
101217.641
101217.743
101217.854
101217.977
101218.114
101218.267
101218.441
101218.637
101218.86
101219.115
101219.405
101219.735
101220.112
101220.541
101221.028
101221.58
101222.204
101222.908
101223.697
101224.579
101225.561
101226.646
101227.841
101229.147
101230.566
101232.097
101233.736
101235.481
101237.323
101239.251
101241.257
101243.32
101245.412
101247.412
101248.859
101250.768
101253.659
101256.561
101259.298
101261.946
101264.543
101267.129
101269.825
101272.713
101275.861
101278.759
101280.791
101282.779
101284.566
101286.052
101287.78
101289.626
101291.326
101293.522
101295.945
101298.4
101301.262
101304.11
101306.874
101309.406
101311.572
101313.783
101316.305
101318.358
101320.356
101322.45
101324.384
101326.3
101328.253
101205.24
101205.317
101205.405
101205.49
101205.574
101205.66
101205.746
101205.835
101205.927
101206.023
101206.125
101206.235
101206.354
101206.486
101206.633
101206.797
101206.984
101207.197
101207.439
101207.718
101208.036
101208.402
101208.821
101209.299
101209.846
101210.467
101211.171
101211.966
101212.859
101213.858
101214.969
101216.196
101217.545
101219.016
101220.61
101222.324
101224.155
101226.092
101228.124
101230.257
101232.416
101234.556
101237.133
101240.369
101243.933
101247.679
101250.855
101253.185
101255.052
101256.751
101258.597
101260.685
101262.82
101264.935
101267.398
101270.194
101272.762
101275.486
101277.868
101280.306
101282.976
101285.203
101287.272
101289.203
101291.531
101294.263
101296.838
101299.45
101302.1
101304.816
101307.175
101309.415
101311.432
101313.306
101315.925
101318.656
101320.904
101323.139
101325.175
101327.2
101193.864
101193.952
101194.053
101194.15
101194.246
101194.343
101194.442
101194.545
101194.652
101194.765
101194.886
101195.018
101195.163
101195.324
101195.506
101195.713
101195.949
101196.219
101196.53
101196.887
101197.298
101197.77
101198.311
101198.928
101199.632
101200.43
101201.33
101202.341
101203.47
101204.723
101206.105
101207.618
101209.263
101211.038
101212.94
101214.961
101217.089
101219.281
101221.556
101224.431
101228.245
101232.454
101235.47
101237.77
101239.722
101241.553
101243.699
101245.976
101248.75
101251.494
101254.071
101256.81
101259.719
101262.752
101265.342
101267.606
101269.89
101272.21
101274.674
101277.242
101279.666
101282.093
101284.739
101287.443
101289.963
101292.517
101295.136
101297.714
101300.245
101302.798
101305.366
101307.881
101310.476
101312.56
101314.221
101316.649
101319.492
101321.674
101323.803
101325.759
101182.719
101182.817
101182.928
101183.036
101183.142
101183.251
101183.362
101183.478
101183.6
101183.731
101183.873
101184.03
101184.206
101184.404
101184.63
101184.889
101185.188
101185.533
101185.932
101186.392
101186.922
101187.532
101188.231
101189.028
101189.934
101190.959
101192.11
101193.397
101194.827
101196.404
101198.134
101200.016
101202.051
101204.233
101206.56
101209.021
101211.585
101214.209
101217.613
101220.793
101223.259
101225.962
101228.791
101231.438
101234.176
101236.886
101239.348
101241.802
101244.278
101247.093
101249.859
101252.335
101254.714
101257.065
101259.496
101262.064
101264.876
101268.155
101271.525
101274.781
101277.744
101280.326
101283.017
101285.832
101288.584
101291.269
101293.9
101296.523
101299.053
101301.689
101304.384
101307.03
101309.87
101312.813
101315.447
101317.446
101319.386
101321.439
101323.437
101325.764
101171.891
101171.998
101172.119
101172.235
101172.351
101172.469
101172.592
101172.721
101172.859
101173.009
101173.174
101173.359
101173.569
101173.81
101174.086
101174.406
101174.777
101175.207
101175.705
101176.28
101176.943
101177.705
101178.575
101179.564
101180.684
101181.943
101183.35
101184.914
101186.639
101188.531
101190.59
101192.817
101195.208
101197.759
101200.463
101203.31
101206.292
101209.536
101212.462
101215.205
101217.794
101220.083
101222.627
101225.333
101227.939
101230.635
101233.525
101236.494
101239.213
101241.631
101244.014
101246.627
101249.607
101252.955
101256.806
101261.026
101265.094
101267.998
101270.273
101272.841
101276.1
101279.898
101283.369
101286.019
101288.394
101290.829
101293.447
101296.156
101298.841
101301.808
101304.961
101307.578
101309.803
101311.943
101314.047
101316.105
101318.055
101321.091
101324.587
101326.358
101161.476
101161.589
101161.716
101161.837
101161.956
101162.078
101162.205
101162.339
101162.483
101162.642
101162.821
101163.024
101163.258
101163.529
101163.845
101164.213
101164.644
101165.145
101165.729
101166.404
101167.182
101168.073
101169.09
101170.241
101171.537
101172.986
101174.593
101176.364
101178.3
101180.4
101182.66
101185.073
101187.63
101190.315
101193.107
101195.982
101198.923
101201.862
101204.455
101207.021
101210.51
101214.666
101218.165
101221.075
101224.012
101227.056
101230.153
101233.344
101236.604
101240.27
101244.376
101248.127
101251.605
101254.779
101257.601
101260.431
101263.386
101266.854
101270.606
101273.458
101275.786
101278.487
101281.573
101284.44
101287.078
101289.736
101292.419
101295.154
101297.881
101300.568
101303.036
101305.72
101308.811
101311.212
101314.042
101317.141
101319.46
101322.537
101325.51
101327.599
101151.817
101151.937
101152.069
101152.194
101152.318
101152.444
101152.575
101152.716
101152.871
101153.044
101153.241
101153.468
101153.733
101154.044
101154.408
101154.837
101155.338
101155.924
101156.605
101157.392
101158.296
101159.328
101160.499
101161.817
101163.29
101164.924
101166.722
101168.684
101170.81
101173.092
101175.52
101178.077
101180.783
101183.6
101186.459
101189.5
101193.222
101197.822
101202.406
101206.419
101209.269
101211.338
101214.121
101217.862
101221.716
101225.576
101229.419
101233.241
101237.122
101240.947
101244.317
101247.228
101249.866
101252.495
101255.164
101258.172
101261.028
101263.482
101266.003
101269.765
101274.522
101278.07
101280.856
101283.377
101285.927
101288.421
101290.878
101294.053
101297.955
101300.885
101303.342
101305.957
101308.746
101311.627
101314.193
101316.764
101319.537
101322.349
101324.787
101327.007
101143.401
101143.525
101143.662
101143.794
101143.924
101144.059
101144.203
101144.361
101144.537
101144.739
101144.972
101145.244
101145.565
101145.942
101146.387
101146.91
101147.521
101148.232
101149.054
101149.998
101151.075
101152.294
101153.663
101155.189
101156.874
101158.719
101160.725
101162.885
101165.193
101167.631
101170.162
101172.787
101176.112
101180.496
101185.148
101189.57
101193.19
101196.146
101199.492
101202.853
101205.912
101209.207
101212.492
101215.803
101219.055
101222.106
101225.478
101229.395
101233.303
101236.877
101240.466
101244.163
101247.592
101251.184
101254.817
101258.124
101261.361
101264.891
101268.107
101270.331
101272.38
101274.882
101278.114
101281.959
101285.494
101289.094
101293.117
101295.672
101297.414
101300.013
101303.763
101307.031
101310.143
101312.899
101315.388
101317.789
101320.171
101322.612
101324.898
101327.055
101357.66
101357.672
101357.688
101357.703
101357.72
101357.739
101357.759
101357.78
101357.802
101357.826
101357.851
101357.877
101357.905
101357.934
101357.963
101357.993
101358.025
101358.056
101358.088
101358.12
101358.152
101358.184
101358.216
101358.247
101358.276
101358.305
101358.333
101358.359
101358.384
101358.406
101358.427
101358.445
101358.462
101358.476
101358.488
101358.497
101358.505
101358.51
101358.514
101358.516
101358.516
101358.516
101358.516
101358.515
101358.515
101358.516
101358.52
101358.525
101358.533
101358.545
101358.562
101358.585
101358.614
101358.649
101358.694
101358.748
101358.815
101358.885
101358.958
101359.039
101359.129
101359.227
101359.333
101359.446
101359.565
101359.691
101359.821
101359.956
101360.095
101360.237
101360.381
101360.526
101360.672
101360.819
101360.966
101361.113
101361.258
101361.406
101361.557
101361.686
101357.614
101357.628
101357.644
101357.661
101357.68
101357.699
101357.72
101357.743
101357.766
101357.791
101357.817
101357.845
101357.873
101357.903
101357.933
101357.964
101357.996
101358.028
101358.06
101358.093
101358.125
101358.157
101358.189
101358.219
101358.249
101358.278
101358.305
101358.33
101358.354
101358.375
101358.395
101358.412
101358.427
101358.439
101358.45
101358.457
101358.463
101358.467
101358.469
101358.469
101358.468
101358.466
101358.464
101358.463
101358.462
101358.461
101358.461
101358.464
101358.472
101358.484
101358.501
101358.527
101358.555
101358.593
101358.644
101358.702
101358.763
101358.83
101358.905
101358.988
101359.081
101359.181
101359.289
101359.404
101359.525
101359.652
101359.785
101359.922
101360.062
101360.205
101360.35
101360.494
101360.639
101360.784
101360.926
101361.069
101361.214
101361.359
101361.504
101361.632
101357.435
101357.449
101357.465
101357.482
101357.5
101357.519
101357.539
101357.561
101357.584
101357.609
101357.634
101357.661
101357.689
101357.719
101357.749
101357.779
101357.811
101357.843
101357.875
101357.907
101357.939
101357.971
101358.002
101358.032
101358.061
101358.089
101358.115
101358.14
101358.163
101358.184
101358.202
101358.218
101358.232
101358.243
101358.252
101358.258
101358.263
101358.264
101358.264
101358.263
101358.26
101358.256
101358.253
101358.252
101358.248
101358.244
101358.244
101358.25
101358.259
101358.273
101358.297
101358.328
101358.361
101358.401
101358.447
101358.502
101358.567
101358.641
101358.723
101358.814
101358.912
101359.019
101359.133
101359.253
101359.379
101359.51
101359.645
101359.782
101359.922
101360.064
101360.205
101360.35
101360.497
101360.649
101360.794
101360.925
101361.056
101361.194
101361.335
101361.463
101357.122
101357.135
101357.15
101357.166
101357.183
101357.202
101357.221
101357.242
101357.265
101357.288
101357.313
101357.339
101357.366
101357.394
101357.423
101357.453
101357.484
101357.515
101357.547
101357.579
101357.61
101357.642
101357.672
101357.702
101357.731
101357.759
101357.785
101357.809
101357.831
101357.851
101357.869
101357.884
101357.896
101357.906
101357.913
101357.918
101357.921
101357.92
101357.918
101357.914
101357.907
101357.899
101357.898
101357.9
101357.892
101357.889
101357.894
101357.901
101357.912
101357.929
101357.952
101357.98
101358.019
101358.066
101358.121
101358.186
101358.26
101358.342
101358.434
101358.534
101358.642
101358.757
101358.878
101359.006
101359.139
101359.279
101359.426
101359.582
101359.744
101359.91
101360.063
101360.197
101360.325
101360.447
101360.573
101360.721
101360.874
101361.014
101361.147
101361.27
101356.679
101356.692
101356.707
101356.723
101356.739
101356.757
101356.776
101356.796
101356.817
101356.84
101356.863
101356.888
101356.915
101356.942
101356.97
101356.999
101357.029
101357.059
101357.09
101357.121
101357.152
101357.183
101357.213
101357.242
101357.27
101357.297
101357.323
101357.346
101357.368
101357.387
101357.403
101357.417
101357.429
101357.437
101357.442
101357.454
101357.459
101357.45
101357.442
101357.431
101357.418
101357.404
101357.398
101357.399
101357.401
101357.404
101357.41
101357.421
101357.439
101357.462
101357.494
101357.533
101357.581
101357.638
101357.704
101357.78
101357.866
101357.961
101358.066
101358.182
101358.309
101358.447
101358.597
101358.758
101358.913
101359.054
101359.19
101359.325
101359.462
101359.589
101359.733
101359.909
101360.087
101360.256
101360.415
101360.555
101360.683
101360.81
101360.941
101361.074
101356.127
101356.139
101356.154
101356.169
101356.185
101356.202
101356.22
101356.239
101356.259
101356.281
101356.304
101356.328
101356.353
101356.379
101356.406
101356.434
101356.463
101356.493
101356.523
101356.554
101356.584
101356.615
101356.644
101356.673
101356.701
101356.728
101356.752
101356.775
101356.796
101356.814
101356.829
101356.841
101356.858
101356.865
101356.863
101356.861
101356.853
101356.842
101356.828
101356.814
101356.812
101356.819
101356.824
101356.824
101356.827
101356.834
101356.846
101356.865
101356.891
101356.924
101356.967
101357.019
101357.081
101357.154
101357.238
101357.335
101357.443
101357.565
101357.695
101357.825
101357.957
101358.091
101358.217
101358.339
101358.479
101358.657
101358.853
101359.047
101359.24
101359.432
101359.608
101359.764
101359.912
101360.06
101360.21
101360.358
101360.504
101360.649
101360.797
101360.945
101355.48
101355.492
101355.507
101355.522
101355.537
101355.554
101355.571
101355.59
101355.61
101355.631
101355.653
101355.676
101355.701
101355.726
101355.753
101355.781
101355.809
101355.839
101355.869
101355.899
101355.929
101355.959
101355.988
101356.017
101356.044
101356.07
101356.094
101356.116
101356.136
101356.158
101356.174
101356.179
101356.184
101356.184
101356.179
101356.17
101356.16
101356.159
101356.167
101356.178
101356.183
101356.183
101356.183
101356.189
101356.199
101356.216
101356.24
101356.271
101356.313
101356.364
101356.423
101356.49
101356.573
101356.669
101356.768
101356.873
101356.985
101357.094
101357.203
101357.334
101357.503
101357.69
101357.882
101358.08
101358.279
101358.461
101358.629
101358.802
101358.98
101359.159
101359.339
101359.516
101359.685
101359.857
101360.029
101360.192
101360.355
101360.519
101360.681
101360.852
101354.76
101354.773
101354.788
101354.803
101354.819
101354.836
101354.853
101354.872
101354.892
101354.913
101354.935
101354.958
101354.982
101355.008
101355.035
101355.062
101355.091
101355.12
101355.15
101355.18
101355.211
101355.241
101355.27
101355.298
101355.326
101355.351
101355.375
101355.397
101355.418
101355.433
101355.44
101355.446
101355.446
101355.445
101355.451
101355.465
101355.481
101355.49
101355.491
101355.493
101355.498
101355.506
101355.518
101355.535
101355.559
101355.591
101355.633
101355.678
101355.727
101355.791
101355.872
101355.962
101356.053
101356.146
101356.249
101356.376
101356.529
101356.695
101356.871
101357.048
101357.217
101357.385
101357.562
101357.747
101357.94
101358.138
101358.336
101358.533
101358.728
101358.915
101359.107
101359.297
101359.473
101359.647
101359.819
101359.997
101360.185
101360.393
101360.633
101360.876
101353.986
101353.999
101354.014
101354.03
101354.046
101354.062
101354.08
101354.099
101354.118
101354.139
101354.162
101354.185
101354.21
101354.235
101354.262
101354.291
101354.32
101354.349
101354.38
101354.41
101354.441
101354.472
101354.502
101354.531
101354.559
101354.585
101354.61
101354.63
101354.646
101354.658
101354.668
101354.683
101354.704
101354.727
101354.743
101354.751
101354.758
101354.766
101354.777
101354.79
101354.807
101354.829
101354.857
101354.893
101354.931
101354.969
101355.019
101355.088
101355.174
101355.26
101355.347
101355.45
101355.572
101355.71
101355.86
101356.009
101356.157
101356.316
101356.486
101356.667
101356.855
101357.049
101357.248
101357.451
101357.654
101357.853
101358.049
101358.241
101358.427
101358.612
101358.804
101359.004
101359.215
101359.438
101359.638
101359.818
101360.002
101360.191
101360.429
101360.773
101353.171
101353.183
101353.196
101353.21
101353.225
101353.24
101353.257
101353.275
101353.294
101353.314
101353.336
101353.359
101353.384
101353.41
101353.437
101353.466
101353.495
101353.526
101353.557
101353.589
101353.621
101353.653
101353.684
101353.714
101353.744
101353.773
101353.799
101353.821
101353.845
101353.874
101353.904
101353.928
101353.946
101353.963
101353.979
101353.997
101354.016
101354.037
101354.062
101354.09
101354.124
101354.163
101354.202
101354.241
101354.303
101354.379
101354.463
101354.551
101354.644
101354.751
101354.871
101354.997
101355.129
101355.272
101355.426
101355.591
101355.765
101355.946
101356.133
101356.326
101356.522
101356.721
101356.917
101357.117
101357.326
101357.539
101357.762
101358.002
101358.232
101358.428
101358.605
101358.775
101358.926
101359.054
101359.2
101359.447
101359.75
101359.954
101360.017
101360.433
101352.298
101352.307
101352.317
101352.327
101352.339
101352.352
101352.366
101352.382
101352.399
101352.418
101352.439
101352.461
101352.485
101352.511
101352.539
101352.568
101352.599
101352.631
101352.664
101352.697
101352.731
101352.768
101352.806
101352.842
101352.876
101352.91
101352.945
101352.982
101353.015
101353.044
101353.072
101353.1
101353.127
101353.155
101353.184
101353.214
101353.247
101353.282
101353.321
101353.365
101353.415
101353.468
101353.537
101353.614
101353.698
101353.79
101353.884
101353.989
101354.104
101354.228
101354.363
101354.507
101354.66
101354.821
101354.99
101355.166
101355.349
101355.536
101355.724
101355.919
101356.134
101356.365
101356.605
101356.842
101357.065
101357.279
101357.484
101357.685
101357.891
101358.096
101358.285
101358.501
101358.767
101359
101359.073
101359.209
101359.747
101360.219
101359.825
101359.853
101351.328
101351.333
101351.339
101351.345
101351.354
101351.364
101351.375
101351.388
101351.404
101351.421
101351.441
101351.463
101351.487
101351.513
101351.542
101351.572
101351.605
101351.642
101351.684
101351.726
101351.767
101351.804
101351.841
101351.881
101351.923
101351.963
101352.003
101352.043
101352.083
101352.122
101352.161
101352.201
101352.241
101352.283
101352.326
101352.373
101352.422
101352.477
101352.535
101352.597
101352.663
101352.734
101352.823
101352.92
101353.017
101353.124
101353.241
101353.366
101353.5
101353.642
101353.792
101353.95
101354.114
101354.283
101354.46
101354.646
101354.854
101355.08
101355.308
101355.527
101355.739
101355.951
101356.166
101356.398
101356.644
101356.882
101357.105
101357.352
101357.635
101357.919
101358.129
101358.293
101358.595
101359.004
101359.015
101358.929
101359.782
101361.426
101361.259
101360.398
101350.221
101350.222
101350.223
101350.226
101350.231
101350.238
101350.248
101350.26
101350.274
101350.29
101350.309
101350.331
101350.358
101350.387
101350.417
101350.45
101350.486
101350.521
101350.557
101350.595
101350.637
101350.683
101350.73
101350.777
101350.825
101350.873
101350.922
101350.971
101351.02
101351.07
101351.121
101351.173
101351.226
101351.282
101351.341
101351.403
101351.469
101351.54
101351.615
101351.698
101351.793
101351.895
101351.992
101352.1
101352.218
101352.344
101352.478
101352.62
101352.769
101352.924
101353.089
101353.267
101353.457
101353.67
101353.881
101354.075
101354.271
101354.47
101354.68
101354.91
101355.148
101355.382
101355.604
101355.848
101356.13
101356.423
101356.662
101356.858
101357.091
101357.385
101357.657
101357.76
101358.071
101358.911
101359.042
101358.137
101358.426
101361.321
101363.716
101364.39
101348.912
101348.908
101348.904
101348.903
101348.904
101348.908
101348.914
101348.923
101348.936
101348.951
101348.969
101348.99
101349.012
101349.038
101349.07
101349.105
101349.142
101349.183
101349.227
101349.273
101349.321
101349.371
101349.423
101349.477
101349.531
101349.587
101349.644
101349.703
101349.762
101349.823
101349.886
101349.951
101350.019
101350.089
101350.164
101350.242
101350.326
101350.417
101350.508
101350.614
101350.725
101350.841
101350.965
101351.096
101351.234
101351.379
101351.533
101351.7
101351.879
101352.068
101352.266