/*--------------------------------*- C++ -*----------------------------------*\
  =========                 |
  \\      /  F ield         | OpenFOAM: The Open Source CFD Toolbox
   \\    /   O peration     | Website:  https://openfoam.org
    \\  /    A nd           | Version:  8
     \\/     M anipulation  |
\*---------------------------------------------------------------------------*/
FoamFile
{
    version     2.0;
    format      ascii;
    class       volScalarField;
    location    "0.003";
    object      T;
}
// * * * * * * * * * * * * * * * * * * * * * * * * * * * * * * * * * * * * * //

dimensions      [0 0 0 1 0 0 0];

internalField   nonuniform List<scalar> 
42400
(
471.454767
468.335623
465.145911
461.891978
458.580718
455.219541
451.816343
448.379481
444.917726
441.440221
437.956425
434.476057
431.009026
427.565365
424.155152
420.788435
417.475143
414.226582
411.052468
407.959849
404.957134
402.052173
399.252182
396.563669
393.992364
391.54316
389.220043
387.02602
384.963064
383.032055
381.23273
379.563619
378.021999
376.603836
375.303723
374.11479
373.028634
372.035184
371.122429
370.275824
369.480401
368.721081
367.979488
367.187627
366.325135
365.363196
364.34618
363.266413
362.085292
360.756755
359.233405
357.493752
355.519743
353.29935
350.82591
348.097623
345.115641
341.86118
338.363167
334.686471
330.904392
327.095465
323.33439
319.704291
316.290602
313.141499
310.309312
307.866691
305.814703
304.117192
302.764335
301.745531
301.028675
300.553783
300.253506
300.077106
299.981163
299.94419
299.925213
299.911712
471.471108
468.385296
465.230381
462.01315
458.740948
455.421653
452.063654
448.67579
445.267305
441.847798
438.427157
435.015492
431.623055
428.260157
424.937087
421.664028
418.450983
415.309302
412.245934
409.269398
406.38763
403.607869
400.936547
398.379203
395.940385
393.623565
391.431062
389.363969
387.422086
385.603868
383.906363
382.325146
380.85426
379.486123
378.21137
377.018579
375.895657
374.830296
373.810996
372.780883
371.723272
370.617201
369.442663
368.243494
366.980743
365.618015
364.10742
362.419169
360.532673
358.43121
356.103422
353.543357
350.751448
347.734387
344.502543
341.065359
337.427197
333.653153
329.818109
325.999765
322.274758
318.717769
315.391925
312.352462
309.650847
307.32103
305.364709
303.780631
302.553757
301.647173
301.000051
300.555464
300.266976
300.093986
299.996419
299.944337
299.906384
299.885597
299.874206
299.866702
471.490761
468.444998
465.331806
462.158431
458.932674
455.662862
452.357803
449.026775
445.679452
442.325798
438.976016
435.640471
432.329593
429.053779
425.823282
422.648095
419.537834
416.501081
413.546398
410.681639
407.913848
405.249161
402.692697
400.248453
397.919211
395.706452
393.610272
391.629315
389.760688
387.999885
386.340672
384.775143
383.294359
381.888544
380.547531
379.229135
377.917376
376.593404
375.233926
373.870408
372.478132
371.026388
369.48016
367.793656
365.95004
363.928624
361.712638
359.289594
356.651975
353.798136
350.733166
347.469383
344.026502
340.427965
336.687628
332.845208
328.976005
325.156998
321.464213
317.968051
314.729725
311.799865
309.212934
306.989241
305.13157
303.634881
302.47027
301.598746
300.973467
300.547175
300.270919
300.096891
299.99144
299.922098
299.884617
299.863853
299.860179
299.858179
299.857909
299.860112
471.512814
468.511952
465.445457
462.32101
459.146837
455.931669
452.684692
449.415494
446.134011
442.850488
439.575296
436.31888
433.091664
429.903924
426.765669
423.686502
420.675461
417.737417
414.882001
412.116395
409.446258
406.87613
404.409319
402.047779
399.792022
397.64105
395.592392
393.642153
391.785021
390.014338
388.317605
386.66863
385.054953
383.460837
381.86694
380.290091
378.717511
377.120749
375.471005
373.73341
371.878977
369.886611
367.736849
365.41304
362.901623
360.193258
357.283722
354.174784
350.874966
347.400252
343.774601
340.029757
336.201956
332.315264
328.426356
324.610806
320.943003
317.490075
314.311408
311.451774
308.942744
306.798087
305.01567
303.578791
302.456823
301.611831
300.997069
300.567113
300.279275
300.095358
299.983207
299.912851
299.873559
299.862184
299.859267
299.858834
299.858853
299.857885
299.857526
299.856528
471.535957
468.582176
465.564551
462.491136
459.3705
456.211672
453.024091
449.817534
446.602041
443.38785
440.185303
437.004699
433.856207
430.749749
427.694867
424.700596
421.775325
418.926445
416.156875
413.470555
410.872561
408.366553
405.954402
403.635749
401.407351
399.262044
397.190913
395.186436
393.238814
391.335836
389.468157
387.640159
385.837648
384.041749
382.229561
380.374918
378.444442
376.417526
374.27406
371.995101
369.563544
366.96482
364.187772
361.225564
358.076585
354.745295
351.242924
347.587965
343.806511
339.932462
336.007169
332.077474
328.179948
324.370927
320.721409
317.295103
314.14861
311.32341
308.849749
306.737208
304.983597
303.56879
302.462481
301.624516
301.011757
300.580869
300.288402
300.097388
299.978316
299.910159
299.873024
299.863938
299.860894
299.859226
299.858156
299.857444
299.857413
299.85717
299.856285
299.855963
471.558796
468.651434
465.681893
462.658508
459.590067
456.485752
453.355068
450.207758
447.053716
443.902883
440.765145
437.650224
434.567543
431.526101
428.534343
425.600033
422.730133
419.9307
417.206801
414.561777
411.995484
409.506364
407.091644
404.74769
402.470657
400.257705
398.104348
396.000672
393.936168
391.900792
389.875663
387.841241
385.773538
383.647836
381.445289
379.147034
376.7349
374.191836
371.502636
368.65472
365.638987
362.450678
359.090237
355.564106
351.885393
348.074333
344.158427
340.172288
336.157315
332.161051
328.235605
324.430671
320.791493
317.379473
314.247012
311.432644
308.96456
306.85192
305.093432
303.668971
302.549615
301.697588
301.071118
300.625941
300.321396
300.123334
300.001529
299.930624
299.891588
299.871751
299.864375
299.861637
299.8601
299.856889
299.853077
299.850112
299.849939
299.851974
299.854635
299.856129
471.579931
468.715507
465.790403
462.81316
459.792704
456.738265
453.659297
450.565378
447.466106
444.370958
441.289216
438.229844
435.20133
432.211547
429.267614
426.375753
423.541152
420.767834
418.058528
415.414548
412.835691
410.320171
407.864656
405.464359
403.113282
400.80467
398.525793
396.262628
393.997993
391.710638
389.38237
386.996292
384.535122
381.981668
379.319296
376.532547
373.607834
370.534198
367.304123
363.914362
360.366749
356.66895
352.835089
348.88619
344.850343
340.762511
336.663809
332.600579
328.622922
324.783392
321.134227
317.718596
314.579424
311.755503
309.271289
307.135817
305.347488
303.888917
302.734466
301.848573
301.190251
300.717871
300.392124
300.176291
300.038581
299.954922
299.908101
299.884368
299.871936
299.865064
299.859098
299.855204
299.85332
299.851249
299.847806
299.844246
299.842408
299.842363
299.844054
299.848058
471.597489
468.76871
465.880427
462.94128
459.960202
456.94633
453.908909
450.857178
447.800247
444.746959
441.705848
438.684943
435.691639
432.732551
429.813382
426.938782
424.112241
421.335981
418.610893
415.936506
413.311045
410.729715
408.186085
405.671451
403.174649
400.681537
398.176175
395.64488
393.072908
390.444797
387.744719
384.956892
382.0661
379.058283
375.921201
372.645169
369.223818
365.654895
361.941029
358.090443
354.117557
350.043399
345.895782
341.709148
337.524028
333.385997
329.344
325.448551
321.74869
318.291162
315.117306
312.257317
309.730576
307.548397
305.707829
304.194275
302.98449
302.046146
301.341533
300.830686
300.473665
300.233426
300.078446
299.982708
299.925643
299.891948
299.871958
299.861683
299.856859
299.854383
299.851406
299.847759
299.845663
299.844546
299.842471
299.839279
299.835672
299.833582
299.832976
299.835815
471.609701
468.805677
465.94287
463.029879
460.075493
457.088593
454.078034
451.052526
448.02051
444.99008
441.96882
438.963669
435.980799
433.025492
430.102039
427.213017
424.359925
421.542687
418.759519
416.006744
413.278569
410.565957
407.859861
405.149643
402.424342
399.671751
396.878652
394.031079
391.114665
388.115058
385.018411
381.811946
378.484586
375.027646
371.435564
367.706657
363.843853
359.855377
355.755329
351.564092
347.308516
343.021794
338.742983
334.516108
330.38885
326.410688
322.630505
319.094154
315.83978
312.899748
310.294748
308.032356
306.111207
304.521951
303.243165
302.244524
301.489192
300.93665
300.546295
300.280753
300.107308
299.998538
299.932905
299.894636
299.873048
299.860727
299.852267
299.84591
299.841748
299.839373
299.837591
299.835117
299.832485
299.830625
299.831251
299.834882
299.834641
299.833225
299.833242
299.836433
471.614951
468.82151
465.969439
463.067146
460.123119
457.145805
454.143498
451.124217
448.095582
445.064666
442.037846
439.020658
436.017638
433.032161
430.066266
427.120306
424.193439
421.283234
418.385602
415.494759
412.603209
409.702158
406.782251
403.832909
400.842531
397.79874
394.688715
391.49957
388.218821
384.834912
381.337805
377.719636
373.975402
370.103679
366.107324
361.994136
357.777428
353.47644
349.116545
344.729185
340.351457
336.025325
331.796414
327.712426
323.821264
320.168689
316.795888
313.737134
311.014495
308.642303
306.620588
304.940234
303.580879
302.512505
301.697562
301.095347
300.665004
300.367821
300.169639
300.042049
299.962642
299.914818
299.886441
299.869108
299.858236
299.851406
299.846479
299.841557
299.836459
299.832112
299.829581
299.829275
299.830042
299.830605
299.831901
299.834769
299.835216
299.833769
299.832997
299.834144
471.611378
468.810566
465.950578
463.039452
460.085184
457.095616
454.078297
451.040349
447.988327
444.928077
441.864599
438.801908
435.742898
432.689222
429.641176
426.597612
423.555853
420.511651
417.459156
414.391221
411.300098
408.17685
405.011517
401.793344
398.511072
395.153291
391.708862
388.167404
384.519844
380.759022
376.880346
372.882465
368.767949
364.54393
360.222677
355.822035
351.365686
346.883156
342.409512
337.984694
333.652451
329.45888
325.450619
321.672795
318.166965
314.968742
312.106264
309.597612
307.446672
305.647216
304.179199
303.012236
302.10945
301.429907
300.93207
300.576694
300.329204
300.160248
300.047121
299.972759
299.923776
299.892358
299.871697
299.857879
299.847789
299.840701
299.835762
299.832623
299.830748
299.829155
299.828534
299.82846
299.829532
299.830595
299.83198
299.834708
299.835923
299.834992
299.834286
299.832211
471.598243
468.770646
465.882642
462.941775
459.955444
456.930759
453.874413
450.792546
447.690607
444.573215
441.444032
438.305636
435.159405
432.005417
428.842364
425.667492
422.476566
419.263925
416.023402
412.747677
409.428419
406.056482
402.62216
399.1155
395.526684
391.846464
388.066673
384.180784
380.184514
376.076466
371.858778
367.537755
363.124442
358.635102
354.091532
349.521175
344.956939
340.43669
336.002347
331.698579
327.571081
323.664569
320.0205
316.674879
313.656285
310.983944
308.667909
306.70567
305.080229
303.764865
302.724053
301.918571
301.308854
300.857306
300.529968
300.297536
300.136456
300.026152
299.95187
299.903479
299.869043
299.848739
299.836333
299.829327
299.824526
299.821351
299.819144
299.817571
299.818016
299.818393
299.820139
299.82008
299.820115
299.821728
299.823631
299.826363
299.82964
299.832356
299.835722
299.835918
471.575827
468.702609
465.767131
462.77635
459.736966
456.655282
453.537075
450.38746
447.210761
444.010378
440.788678
437.546879
434.284964
431.001604
427.694107
424.358388
420.989648
417.582155
414.129171
410.623126
407.055829
403.418742
399.703313
395.901372
392.005585
388.009961
383.910418
379.705379
375.39639
370.988732
366.492006
361.920627
357.294213
352.637778
347.981701
343.361384
338.816557
334.390174
330.126902
326.071233
322.265166
318.745916
315.543359
312.678324
310.16177
307.993804
306.16571
304.655107
303.432841
302.463926
301.711881
301.141119
300.718103
300.412437
300.197387
300.05051
299.952064
299.885351
299.848257
299.828142
299.822354
299.819991
299.819086
299.818135
299.817717
299.816463
299.815491
299.814686
299.813172
299.813455
299.813423
299.8159
299.817526
299.819104
299.821356
299.82418
299.82572
299.827835
299.831152
299.83616
471.54454
468.607709
465.606191
462.546288
459.433945
456.27462
453.07315
449.833626
446.559272
443.25233
439.913963
436.544172
433.141727
429.704135
426.227829
422.708581
419.141176
415.519547
411.836952
408.086197
404.259931
400.350983
396.352766
392.259736
388.067905
383.775392
379.383007
374.894847
370.318869
365.667417
360.957657
356.211865
351.45752
346.727133
342.057765
337.490169
333.067523
328.833756
324.831536
321.100064
317.672369
314.573369
311.818307
309.410099
307.344369
305.604967
304.169634
303.012589
302.101388
301.402727
300.882383
300.506757
300.244988
300.069616
299.957153
299.888516
299.849463
299.837841
299.832094
299.826924
299.823762
299.821619
299.819539
299.817921
299.816308
299.815787
299.815092
299.814589
299.813606
299.813365
299.814794
299.817093
299.820213
299.822463
299.823499
299.82501
299.826026
299.825491
299.825274
299.828039
471.505088
468.488098
465.403493
462.256883
459.053436
455.797753
452.493747
449.144524
445.752278
442.318194
438.842369
435.32376
431.760147
428.148581
424.485284
420.765613
416.984196
413.135116
409.212153
405.209074
401.119987
396.939741
392.664391
388.291702
383.821695
379.257217
374.604507
369.873744
365.07952
360.241218
355.383217
350.534888
345.730305
341.007628
336.408115
331.974732
327.750391
323.775868
320.08767
316.716315
313.681105
310.994632
308.658201
306.668113
305.008891
303.658032
302.585609
301.757108
301.135576
300.684311
300.368462
300.15595
300.018825
299.934214
299.884462
299.856506
299.842262
299.835876
299.82898
299.824658
299.821169
299.817785
299.81517
299.813311
299.812651
299.81199
299.811886
299.81219
299.813297
299.81414
299.816509
299.820277
299.824224
299.827419
299.828961
299.827394
299.827109
299.825803
299.823051
299.822884
471.458392
468.346566
465.163775
461.914915
458.604373
455.235915
451.812567
448.336514
444.809008
441.230301
437.599589
433.914999
430.174086
426.373539
422.509283
418.57662
414.57042
410.485367
406.316252
402.058329
397.707719
393.261869
388.720057
384.083927
379.358046
374.550454
369.673182
364.742688
359.780184
354.811773
349.86836
344.98526
340.201473
335.55859
331.099349
326.865887
322.897785
319.230063
315.891479
312.901447
310.274367
308.014018
306.111211
304.547001
303.292682
302.312982
301.568304
301.017971
300.622433
300.346068
300.15841
300.034319
299.95406
299.90299
299.870512
299.849562
299.836202
299.827359
299.821031
299.816209
299.811955
299.808991
299.807162
299.805731
299.805399
299.805929
299.807359
299.809726
299.812214
299.813461
299.81657
299.819899
299.823672
299.827454
299.831247
299.830515
299.828679
299.828656
299.827487
299.825661
471.405421
468.186051
464.892003
461.527452
458.096021
454.600667
451.043583
447.426113
443.748676
440.010729
436.210808
432.346851
428.416018
424.414787
420.339107
416.184591
411.946756
407.621328
403.20459
398.693795
394.087615
389.38665
384.593958
379.715603
374.761192
369.744378
364.683265
359.600696
354.524334
349.486513
344.523769
339.676046
334.985536
330.495212
326.247135
322.280631
318.630451
315.32525
312.386278
309.824878
307.638813
305.814365
304.325889
303.139129
302.214757
301.511678
300.989707
300.61165
300.344477
300.160054
300.035272
299.952846
299.898947
299.86331
299.839887
299.823014
299.812301
299.804742
299.799352
299.795791
299.793899
299.792468
299.791117
299.791642
299.792698
299.795076
299.798677
299.803265
299.807751
299.810475
299.813085
299.815152
299.817808
299.821501
299.826187
299.831197
299.834182
299.836924
299.841521
299.845238
471.347122
468.009427
464.593052
461.101464
457.537547
453.903508
450.200786
446.42999
442.590848
438.682263
434.702561
430.64937
426.519716
422.310175
418.017062
413.636681
409.165618
404.601097
399.941391
395.186273
390.337524
385.399462
380.379493
375.288634
370.142007
364.959221
359.764628
354.587365
349.461159
344.423817
339.516396
334.782012
330.264324
326.005739
322.045376
318.41705
315.147009
312.252389
309.73866
307.59827
305.811589
304.349675
303.178333
302.259986
301.555705
301.027526
300.640253
300.362713
300.168472
300.03593
299.947238
299.888403
299.850357
299.826677
299.812512
299.807303
299.803111
299.798787
299.794216
299.790562
299.788405
299.787617
299.788257
299.790169
299.792245
299.79503
299.798909
299.802766
299.806274
299.809046
299.811215
299.812639
299.814213
299.817662
299.822939
299.82801
299.834283
299.841988
299.847583
299.853685
471.28457
467.819962
464.272482
460.644919
456.939477
453.157681
449.300315
445.367372
441.358069
437.2711
433.104526
428.855875
424.522289
420.100713
415.588139
410.981908
406.280064
401.481762
396.587736
391.6008
386.526385
381.373088
376.153198
370.883169
365.583989
360.281412
355.005963
349.792701
344.680661
339.711961
334.930528
330.380441
326.103896
322.138813
318.5162
315.258464
312.377171
309.871494
307.729913
305.932085
304.451155
303.257062
302.315735
301.590565
301.04541
300.645835
300.360383
300.161563
300.02657
299.936856
299.879365
299.844042
299.823623
299.812922
299.808492
299.806552
299.803445
299.800138
299.795922
299.79292
299.789652
299.788449
299.789069
299.790998
299.79386
299.797069
299.800419
299.803709
299.806553
299.809118
299.811208
299.812558
299.813342
299.81536
299.819034
299.824905
299.830498
299.839206
299.846336
299.852542
471.218759
467.62065
463.935322
460.16492
456.311008
452.374498
448.355602
444.253805
440.068104
435.796941
431.438291
426.9898
422.448979
417.81345
413.081242
408.251157
403.323173
398.298917
393.182168
387.979392
382.700276
377.358254
371.970951
366.560538
361.153915
355.782683
350.482832
345.294081
340.258839
335.420741
330.82282
326.505353
322.503615
318.844614
315.548264
312.624839
310.074588
307.889679
306.052918
304.53927
303.318604
302.355907
301.614344
301.057367
300.64956
300.358658
300.156908
300.02087
299.932085
299.87641
299.842887
299.8237
299.813184
299.80763
299.804351
299.801888
299.801287
299.800417
299.799073
299.798611
299.797407
299.795329
299.794531
299.795714
299.798473
299.801874
299.805341
299.809453
299.811953
299.812552
299.813198
299.814696
299.81643
299.817525
299.818746
299.823409
299.827461
299.8356
299.844339
299.850253
471.791531
469.353557
466.863143
464.326877
461.751541
459.144064
456.51146
453.860765
451.198979
448.533006
445.86959
443.215265
440.576295
437.95863
435.367862
432.809155
430.287265
427.806494
425.370667
422.983131
420.646746
418.36389
416.13647
413.965934
411.853294
409.799149
407.80371
405.866836
403.988058
402.166617
400.401499
398.691464
397.035084
395.430773
393.876817
392.371406
390.912658
389.498645
388.127417
386.79702
385.505513
384.250987
383.031576
381.845466
380.690904
379.5662
378.469728
377.399924
376.355271
375.33431
374.335662
373.358019
372.400151
371.460859
370.538952
369.633329
368.742883
367.866388
367.00249
366.149685
365.30666
364.472332
363.645516
362.824925
362.009168
361.196738
360.385999
359.575159
358.762212
357.944816
357.120035
356.283854
355.430286
354.549853
353.627144
352.637169
351.540436
350.277184
348.762004
346.881931
471.793151
469.358358
466.871042
464.337672
461.764907
459.159546
456.528462
453.878546
451.216646
448.549507
445.88371
443.225622
440.58134
437.956647
435.356965
432.787309
430.252287
427.756065
425.302353
422.894398
420.534979
418.226418
415.970586
413.768922
411.622453
409.531816
407.497291
405.518827
403.596077
401.728429
399.915039
398.154868
396.446712
394.789232
393.180987
391.620462
390.106091
388.636286
387.209449
385.824
384.478385
383.171093
381.900668
380.665716
379.464913
378.297006
377.160754
376.054955
374.978463
373.93015
372.90891
371.913651
370.943563
369.997619
369.074634
368.173523
367.293227
366.432554
365.590268
364.765165
363.955727
363.160068
362.376231
361.602168
360.835739
360.074705
359.316727
358.559357
357.799995
357.035786
356.263355
355.478259
354.674077
353.840847
352.962601
352.013734
350.954171
349.724267
348.240088
346.392039
471.781782
469.323935
466.812808
464.254745
461.656284
459.02409
456.364909
453.685499
450.992576
448.292751
445.592476
442.897989
440.215261
437.549952
434.907371
432.29244
429.709668
427.163133
424.656464
422.192838
419.774981
417.405173
415.085262
412.816681
410.600473
408.437316
406.327556
404.271235
402.268132
400.317792
398.419566
396.572647
394.776103
393.028914
391.330001
389.678254
388.072565
386.511847
384.995046
383.521162
382.089255
380.698459
379.347976
378.037097
376.765272
375.532044
374.336856
373.179181
372.058524
370.974372
369.926098
368.912885
367.934454
366.990059
366.07873
365.199389
364.350826
363.531535
362.739794
361.973643
361.23086
360.508957
359.805197
359.116635
358.440148
357.772455
357.110145
356.44971
355.787562
355.119966
354.442719
353.750342
353.035429
352.286978
351.487866
350.611503
349.617768
348.44829
347.022853
345.240506
471.760814
469.260512
466.705672
464.102514
461.457441
458.77699
456.06777
453.336408
450.58949
447.8335
445.07477
442.319418
439.573306
436.841992
434.130689
431.444233
428.787057
426.163169
423.576142
421.029107
418.524756
416.065349
413.652731
411.288351
408.973287
406.708281
404.493767
402.329913
400.216657
398.15375
396.140792
394.177279
392.262636
390.396256
388.577537
386.805911
385.08088
383.40207
381.769173
380.181979
378.640414
377.144472
375.694219
374.289763
372.931549
371.620191
370.356062
369.139579
367.971089
366.850857
365.778951
364.755142
363.779352
362.851047
361.969377
361.133109
360.34061
359.589822
358.878255
358.202981
357.56062
356.94742
356.359247
355.791674
355.240092
354.699527
354.165014
353.63159
353.094559
352.549224
351.990431
351.412113
350.806507
350.161981
349.460506
348.67454
347.76371
346.67121
345.322765
343.630385
471.735143
469.182867
466.574538
463.916238
461.214227
458.474895
455.704706
452.910138
450.09763
447.273523
444.444004
441.615058
438.792415
435.981506
433.187427
430.414904
427.66827
424.951442
422.267914
419.620752
417.012599
414.445685
411.921847
409.442555
407.00894
404.62183
402.281792
399.989173
397.744147
395.546757
393.396967
391.294698
389.239882
387.232491
385.272585
383.360297
381.495906
379.679965
377.913149
376.196276
374.53038
372.916648
371.356384
369.850846
368.401503
367.009988
365.67775
364.406181
363.196505
362.04972
360.96652
359.947229
358.991765
358.099552
357.269457
356.499739
355.788047
355.13136
354.525977
353.967489
353.450646
352.970104
352.519778
352.093224
351.683763
351.2846
350.889574
350.492747
350.088729
349.672178
349.237364
348.777874
348.2849
347.745528
347.140853
346.443614
345.615491
344.605032
343.347934
341.772713
471.707944
469.100586
466.43555
463.718759
460.956308
458.154423
455.319394
452.457529
449.575094
446.678257
443.773032
440.865232
437.960417
435.063855
432.180479
429.314863
426.471194
423.65326
420.86444
418.107706
415.385633
412.700417
410.053898
407.447592
404.882729
402.360295
399.881077
397.445715
395.05475
392.708676
390.407989
388.153233
385.945036
383.784161
381.671586
379.608403
377.5959
375.635691
373.729658
371.879923
370.088786
368.35871
366.692284
365.092117
363.560801
362.10091
360.714878
359.404916
358.172915
357.020365
355.948251
354.956944
354.046175
353.214927
352.461312
351.782445
351.174859
350.633932
350.15407
349.728702
349.350439
349.012221
348.705876
348.422981
348.155061
347.894195
347.633015
347.364485
347.082258
346.780428
346.453263
346.094465
345.695369
345.243742
344.722078
344.106256
343.363464
342.451878
341.321355
339.918257
471.680843
469.018565
466.296933
463.521669
460.698665
457.833931
454.933543
452.003587
449.050104
446.079034
443.096166
440.107089
437.117143
434.131385
431.154549
428.191027
425.244846
422.319661
419.418751
416.545032
413.701068
410.8891
408.111073
405.368676
402.663386
399.996513
397.36925
394.782725
392.238052
389.736383
387.278962
384.867167
382.502521
380.186752
377.921904
375.710304
373.554565
371.457554
369.422392
367.452432
365.551185
363.722296
361.969461
360.296395
358.706719
357.203862
355.790955
354.470714
353.245297
352.116262
351.084423
350.14968
349.310931
348.566054
347.911618
347.342916
346.854799
346.440506
346.092197
345.801124
345.558171
345.35417
345.179268
345.023763
344.878432
344.734837
344.584803
344.420929
344.236655
344.026192
343.784068
343.504376
343.180268
342.80277
342.359184
341.832831
341.201492
340.436551
339.502839
338.360863
471.65329
468.935144
466.155877
463.320967
460.436052
457.506884
454.539274
451.539038
448.511951
445.463689
442.399783
439.325576
436.246182
433.166451
430.090943
427.023912
423.969286
420.930676
417.911372
414.914363
411.942355
408.997802
406.082942
403.199834
400.350403
397.536487
394.759888
392.022413
389.325924
386.672373
384.063888
381.502836
378.991854
376.533853
374.13203
371.789879
369.51119
367.299996
365.16054
363.097232
361.114608
359.217289
357.409885
355.696882
354.082526
352.570674
351.164694
349.867336
348.680514
347.605189
346.641197
345.787185
345.04049
344.397225
343.851986
343.39817
343.028424
342.734107
342.505787
342.333488
342.206878
342.115146
342.047464
341.993399
341.943224
341.888006
341.81938
341.730347
341.615282
341.469447
341.288807
341.069578
340.80847
340.501933
340.14515
339.731586
339.252527
338.695224
338.041386
337.266013
471.623711
468.845585
466.004435
463.105473
460.154069
457.155704
454.11592
451.040271
447.934277
444.803378
441.652889
438.487966
435.313568
432.134435
428.955063
425.779694
422.612309
419.45663
416.316131
413.194053
410.093427
407.017101
403.967777
400.948044
397.960417
395.007384
392.091441
389.215165
386.381279
383.592696
380.852552
378.164228
375.531378
372.957939
370.4481
368.0063
365.637216
363.345752
361.137011
359.016229
356.988691
355.059634
353.234132
351.516948
349.912443
348.42438
347.055711
345.808552
344.683809
343.681195
342.799085
342.034488
341.383013
340.838994
340.395436
340.044223
339.776085
339.580869
339.447751
339.365486
339.322647
339.307431
339.308122
339.313966
339.316496
339.318692
339.309898
339.273407
339.208896
339.113819
338.986113
338.824784
338.63011
338.403384
338.146559
337.862277
337.55413
337.223409
336.8684
336.483778
471.591358
468.747665
465.838931
462.870135
459.84642
456.773046
453.655352
450.498709
447.308475
444.089958
440.848378
437.588835
434.316278
431.035486
427.751047
424.467353
421.188594
417.91876
414.661651
411.420891
408.19995
405.002164
401.830772
398.688942
395.579832
392.506646
389.472677
386.481341
383.536221
380.641095
377.799954
375.016986
372.296597
369.643424
367.062346
364.558474
362.137124
359.803771
357.563989
355.423376
353.387457
351.461571
349.650726
347.959454
346.391583
344.950248
343.637391
342.454113
341.400094
340.473695
339.67185
338.990032
338.422257
337.961188
337.598182
337.323384
337.125861
336.993965
336.915464
336.877788
336.881946
336.917075
336.959355
337.002179
337.038261
337.059734
337.071686
337.084166
337.086205
337.062283
337.011368
336.936187
336.840387
336.727467
336.600137
336.460726
336.312158
336.154165
335.987504
335.827015
471.557933
468.646547
465.668126
462.627478
459.52959
456.379595
453.182724
449.944273
446.669558
443.363883
440.032503
436.680595
433.313231
429.935359
426.551785
423.167165
419.786
416.41264
413.051288
409.706017
406.380793
403.07951
399.806026
396.564193
393.357895
390.191084
387.067817
383.992259
380.968689
378.001512
375.095293
372.254775
369.484874
366.790686
364.177468
361.650615
359.215633
356.878084
354.643523
352.517411
350.50501
348.611261
346.840584
345.196819
343.682806
342.300811
341.051825
339.935788
338.9512
338.09515
337.363269
336.749695
336.24713
335.847015
335.539692
335.314625
335.160736
335.066799
335.021459
335.026567
335.072919
335.137666
335.214664
335.298393
335.384338
335.469575
335.553233
335.635699
335.717347
335.798082
335.872638
335.938634
335.995725
336.045611
336.087591
336.115028
336.11719
336.073827
335.939672
335.725388
471.526626
468.551851
465.50822
462.400421
459.233345
456.012055
452.741747
449.427712
446.0753
442.68989
439.276851
435.841524
432.389187
428.925043
425.454206
421.981688
418.512403
415.051168
411.602716
408.171709
404.762758
401.380446
398.029355
394.714082
391.439245
388.20948
385.029466
381.903938
378.837697
375.835612
372.902623
370.043743
367.264054
364.568705
361.962905
359.451913
357.041017
354.735468
352.540315
350.460406
348.50032
346.664218
344.955584
343.3775
341.931764
340.619545
339.440884
338.394624
337.478326
336.688243
336.01935
335.465424
335.019218
334.67273
334.417929
334.244058
334.140558
334.108828
334.133845
334.203276
334.309292
334.443771
334.600244
334.773433
334.959155
335.154359
335.357024
335.566073
335.781812
336.017221
336.267844
336.520301
336.759648
336.963195
337.112419
337.120197
337.040671
336.646097
336.264847
335.596039
471.49895
468.468147
465.366904
462.199828
458.971757
455.687732
452.352963
448.972797
445.552683
442.098148
438.614763
435.108122
431.583819
428.047432
424.504514
420.96058
417.421111
413.89155
410.37731
406.883773
403.416295
399.980197
396.580773
393.223291
389.913002
386.655132
383.454876
380.317394
377.247798
374.251153
371.332463
368.496673
365.748661
363.093185
360.534936
358.078518
355.729048
353.493581
351.374939
349.376246
347.500739
345.751872
344.132748
342.645553
341.291643
340.071005
338.98232
338.022947
337.188938
336.475073
335.874919
335.380859
334.986362
334.68747
334.47908
334.354201
334.315999
334.355583
334.460224
334.62249
334.836136
335.095953
335.397637
335.737915
336.112209
336.515832
336.944589
337.392575
337.832911
338.24013
338.637263
338.939836
339.042268
338.946801
338.593851
338.139699
337.371425
335.872555
334.908221
333.140531
471.475003
468.395753
465.244761
462.026616
458.746178
455.408549
452.019043
448.583159
445.106554
441.595014
438.054432
434.490786
430.910117
427.318514
423.722095
420.127
416.539372
412.965351
409.411059
405.882593
402.386015
398.927333
395.512498
392.14738
388.837762
385.589317
382.407588
379.297972
376.265711
373.315905
370.453462
367.683096
365.010477
362.43879
359.972255
357.614879
355.369942
353.238824
351.226107
349.335425
347.569472
345.930124
344.418997
343.037569
341.786931
340.667602
339.6794
338.821406
338.091943
337.488639
337.00876
336.649279