/*--------------------------------*- C++ -*----------------------------------*\
  =========                 |
  \\      /  F ield         | OpenFOAM: The Open Source CFD Toolbox
   \\    /   O peration     | Website:  https://openfoam.org
    \\  /    A nd           | Version:  8
     \\/     M anipulation  |
\*---------------------------------------------------------------------------*/
FoamFile
{
    version     2.0;
    format      ascii;
    class       volVectorField;
    location    "0.003";
    object      U;
}
// * * * * * * * * * * * * * * * * * * * * * * * * * * * * * * * * * * * * * //

dimensions      [0 1 -1 0 0 0 0];

internalField   nonuniform List<vector> 
42400
(
(-0.0125316694 0.0117893635 -2.22074762e-26)
(-0.0211259925 0.0170199014 7.34011459e-26)
(-0.0143349512 0.00465932786 6.40129361e-26)
(0.00644432096 -0.0238468985 0)
(0.0395717706 -0.0666282939 0)
(0.0831329172 -0.121622411 -1.02074874e-26)
(0.135045711 -0.18663928 0)
(0.193068733 -0.259341129 1.13769208e-26)
(0.254929848 -0.33736671 0)
(0.31836614 -0.418371297 1.26703953e-26)
(0.381179655 -0.500078956 1.33676957e-26)
(0.441292753 -0.580330093 -1.41006408e-26)
(0.496799697 -0.657125996 1.16558705e-25)
(0.54601472 -0.728668876 1.44937787e-25)
(0.587516208 -0.7933971 -1.65272444e-26)
(0.620185035 -0.85001322 0)
(0.64323236 -0.897502337 0)
(0.656210251 -0.935139134 0)
(0.658991937 -0.96250785 0)
(0.651554887 -0.978882747 0)
(0.634414269 -0.984619394 0)
(0.608973599 -0.980243969 -4.72651679e-26)
(0.57659966 -0.966277888 4.99269564e-25)
(0.538770894 -0.943896383 1.19150241e-24)
(0.497480805 -0.913943714 6.87785611e-25)
(0.455179147 -0.877534713 -5.73597735e-26)
(0.413590285 -0.836445726 -6.01679752e-26)
(0.376393706 -0.791239217 1.26184942e-25)
(0.346018602 -0.743963374 0)
(0.325965229 -0.696002886 0)
(0.318974743 -0.649147495 -1.18777597e-24)
(0.32804094 -0.60436927 -1.3034225e-24)
(0.356394303 -0.562587978 1.58049246e-25)
(0.406038779 -0.52524499 1.52681071e-24)
(0.480978211 -0.492743908 1.48954126e-24)
(0.583975764 -0.466790157 0)
(0.718197058 -0.447900294 0)
(0.886690739 -0.436695636 0)
(1.0924924 -0.433650423 0)
(1.3386452 -0.439148147 2.39094576e-24)
(1.62817085 -0.453441022 2.54560658e-24)
(1.96407423 -0.476645136 2.6969719e-24)
(2.34923732 -0.508777781 6.15686565e-24)
(2.78631342 -0.549838561 -4.9663839e-25)
(3.27774362 -0.599806433 -2.59183261e-24)
(3.82569987 -0.65842624 -3.74594542e-24)
(4.43147866 -0.724839411 5.43341163e-25)
(5.09577525 -0.79807686 2.79911442e-24)
(5.81829074 -0.877199802 5.67585015e-25)
(6.59757238 -0.96125874 3.37387374e-24)
(7.43103714 -1.04918035 3.08684104e-32)
(8.31510487 -1.13977099 -5.45956742e-24)
(9.24522826 -1.23175272 -4.45272097e-24)
(10.2153821 -1.32384197 1.20479109e-24)
(11.2211514 -1.41693501 0)
(12.2512578 -1.50915271 0)
(13.2896525 -1.5972772 0)
(14.318547 -1.67905287 -8.76390768e-25)
(15.3192009 -1.75231723 -8.14020954e-25)
(16.2741287 -1.81585628 0)
(17.1670821 -1.8686018 2.64662537e-24)
(17.9778333 -1.90431991 3.20993073e-24)
(18.7090776 -1.93659644 -2.50754871e-24)
(19.3569009 -1.98425124 -2.53374419e-24)
(19.8735647 -1.96953575 0)
(20.2752358 -1.91187666 0)
(20.6424536 -1.9783949 -2.60133981e-24)
(20.9128837 -2.01836701 -2.98079694e-24)
(20.9811786 -1.80995069 -8.65944697e-25)
(20.9547627 -1.57810095 0)
(20.9797501 -1.62495845 0)
(21.0611258 -1.7581301 -9.41890406e-25)
(21.1018222 -1.77159325 -1.00943384e-24)
(21.0623806 -1.65009417 0)
(21.0209646 -1.44348679 -1.03829887e-24)
(21.0050169 -1.4478276 2.66206471e-24)
(21.1113212 -1.52109379 4.04981556e-24)
(21.1706881 -1.55111746 1.81900692e-24)
(21.1795902 -1.42092554 -3.17829556e-24)
(21.1039307 -1.16172816 -7.08864428e-24)
(-0.0237188783 0.0208276218 0)
(-0.0513965448 0.0425345496 7.2525922e-26)
(-0.0608053203 0.0453663159 5.71179878e-26)
(-0.0535279082 0.0308451393 0)
(-0.0314034792 0.00091555894 0)
(0.0034715365 -0.0423263059 9.419201e-27)
(0.0487501923 -0.0965787356 5.79351148e-27)
(0.102038494 -0.159507181 1.30333835e-26)
(0.160900641 -0.228738782 0)
(0.222886858 -0.301884228 1.45030044e-26)
(0.285678144 -0.376671357 1.52938303e-26)
(0.347111333 -0.450959506 9.92635889e-26)
(0.405235452 -0.522783519 2.71280326e-25)
(0.458363334 -0.590390566 1.5783867e-25)
(0.505114257 -0.652269485 -2.10207571e-25)
(0.544448351 -0.707179795 -1.8759703e-25)
(0.575692522 -0.754179321 0)
(0.598566206 -0.792630902 4.42441932e-26)
(0.613304673 -0.822105755 0)
(0.620445596 -0.842856574 0)
(0.620501041 -0.85440355 0)
(0.614651321 -0.857209304 4.88894362e-25)
(0.604543431 -0.852362754 1.08960161e-24)
(0.592461533 -0.840021741 6.23942157e-25)
(0.580823468 -0.821801124 0)
(0.572387542 -0.799163034 -1.31522523e-25)
(0.57057459 -0.773082348 -6.89841411e-26)
(0.577952983 -0.745378303 1.43808366e-25)
(0.597169197 -0.716851056 1.11236613e-24)
(0.63148556 -0.688354172 1.22610929e-24)
(0.68429076 -0.661718016 -1.67333544e-25)
(0.758891532 -0.638037797 -1.75105468e-25)
(0.858587795 -0.618382971 1.96715121e-24)
(0.986721636 -0.6037132 1.74182754e-24)
(1.14662292 -0.59486121 -2.08403319e-24)
(1.34158062 -0.59254387 -2.24537764e-24)
(1.57487657 -0.59736125 0)
(1.84976527 -0.609764985 2.27370812e-25)
(2.16941624 -0.630081968 0)
(2.53682931 -0.658557933 4.94214051e-25)
(2.95481777 -0.69537286 3.33164621e-24)
(3.42610075 -0.740648214 2.95882814e-24)
(3.95262448 -0.793973671 5.42485131e-25)
(4.53590548 -0.854688562 -5.58658818e-25)
(5.17678547 -0.922080436 1.15585998e-24)
(5.87516419 -0.995411132 -5.88037466e-25)
(6.62993764 -1.07380828 6.00949525e-25)
(7.43894442 -1.15617812 2.85079441e-24)
(8.29878967 -1.24122646 4.10277683e-24)
(9.20469252 -1.32751813 0)
(10.1503571 -1.41356318 -6.42897285e-25)
(11.1287234 -1.49816355 1.27546943e-24)
(12.1325766 -1.58096591 1.95082242e-24)
(13.1519715 -1.66134249 3.92875198e-24)
(14.1704282 -1.73598643 1.05184815e-24)
(15.1698262 -1.80226974 5.29650894e-24)
(16.1316188 -1.85842668 4.79030649e-24)
(17.0390433 -1.90341351 -8.34439617e-25)
(17.8759536 -1.93594537 -7.81087314e-25)
(18.6284298 -1.95475923 3.12233248e-24)
(19.288184 -1.96328491 3.04593125e-24)
(19.8458385 -1.95748015 6.53641264e-25)
(20.2972979 -1.938338 -6.30321481e-25)
(20.6643565 -1.93096808 0)
(20.9513248 -1.93902358 -4.6933194e-24)
(21.126493 -1.88295098 -6.41640814e-24)
(21.2120358 -1.83713248 -4.6855265e-24)
(21.2739951 -1.80258562 0)
(21.3122267 -1.79585233 3.17653483e-26)
(21.3001947 -1.72791258 -7.02143356e-25)
(21.2302325 -1.51926391 4.72511971e-24)
(21.1976611 -1.45172379 5.23939155e-24)
(21.2277009 -1.48636143 -3.19043927e-24)
(21.303985 -1.58106987 -3.96927701e-24)
(21.3340543 -1.48998943 3.27393616e-26)
(21.3284498 -1.39652023 4.55680193e-24)
(21.3358472 -1.3372785 1.34319648e-24)
(21.4398897 -1.41355114 1.54082277e-24)
(21.5353773 -1.37992529 -4.15136786e-24)
(21.4890542 -1.32658059 -4.10322283e-24)
(-0.0352574485 0.0287038212 1.01037168e-26)
(-0.0824480042 0.0648106262 5.32414416e-27)
(-0.108210686 0.0809731433 -5.62901878e-27)
(-0.114288344 0.078761856 5.93389801e-27)
(-0.102700697 0.0601450281 0)
(-0.0757699963 0.027283727 -1.42728127e-26)
(-0.0360415122 -0.0174850799 1.29913429e-32)
(0.0139614239 -0.0718715044 -1.90192505e-26)
(0.0715622834 -0.133419462 -3.8397527e-26)
(0.134262388 -0.199838561 -1.19615328e-25)
(0.199617623 -0.268856492 -6.62522318e-26)
(0.265404775 -0.338372928 1.82037266e-26)
(0.329666255 -0.406469855 1.91783096e-26)
(0.390778802 -0.471480212 -1.75616568e-25)
(0.447449651 -0.532015164 -2.13173162e-25)
(0.498729277 -0.586886411 6.72962956e-26)
(0.544089303 -0.635185338 2.55004064e-25)
(0.583433889 -0.676283011 6.98579064e-25)
(0.617068668 -0.70995663 3.86959643e-25)
(0.645282377 -0.735779919 5.5330336e-26)
(0.669857525 -0.754171632 -5.82351102e-26)
(0.6924662 -0.765832375 -6.12789074e-26)
(0.715452874 -0.771302549 0)
(0.741134055 -0.771900582 1.35424041e-25)
(0.772177603 -0.768315732 -8.24929409e-25)
(0.811326749 -0.761565936 5.63413765e-28)
(0.861550423 -0.752771495 1.01921717e-24)
(0.926032092 -0.743116106 1.12832151e-24)
(1.00813666 -0.733793865 1.24582025e-24)
(1.11133702 -0.725931803 -1.1889193e-24)
(1.2391483 -0.720603689 -1.88125734e-25)
(1.39511418 -0.718821902 2.88394159e-24)
(1.58278881 -0.721492619 2.20012774e-24)
(1.80571228 -0.729399986 0)
(2.06737505 -0.743207717 0)
(2.37115599 -0.763478266 -2.35453827e-25)
(2.72029485 -0.790685929 0)
(3.11789868 -0.825211538 5.15277991e-25)
(3.56667429 -0.867128468 2.73180568e-24)
(4.06883801 -0.916175312 1.1074869e-24)
(4.6261568 -0.971985359 -2.44706039e-24)
(5.23973188 -1.03411835 0)
(5.90985531 -1.10201633 0)
(6.63592171 -1.17492412 3.35731852e-24)
(7.41630528 -1.25184005 4.08319046e-24)
(8.24813385 -1.33155392 6.53510531e-25)
(9.12709298 -1.41269724 0)
(10.0473243 -1.49378691 0)
(11.0014586 -1.57329312 3.64802541e-24)
(11.9808456 -1.649712 3.6518338e-24)
(12.9755098 -1.7215336 -6.73042208e-25)
(13.9775897 -1.78987971 0)
(14.9711094 -1.85187098 -1.79367578e-24)
(15.9383762 -1.90498795 -2.66567161e-24)
(16.8615966 -1.94742056 -3.89531058e-24)
(17.7242202 -1.97801038 -2.68206243e-24)
(18.5110002 -1.99509942 -3.41250192e-24)
(19.2108055 -1.9987983 -9.86276512e-32)
(19.814481 -1.98949538 1.15970781e-31)
(20.3168773 -1.9669746 -7.68676453e-24)
(20.7176828 -1.93534364 -3.89582912e-24)
(21.0239908 -1.89262995 3.88533203e-24)
(21.237598 -1.85106534 3.32282211e-24)
(21.3783674 -1.78898795 0)
(21.4658024 -1.7751687 3.52015611e-24)
(21.5110534 -1.71790673 1.13561959e-23)
(21.5114761 -1.71874178 3.57461263e-24)
(21.5045755 -1.64706807 0)
(21.5059111 -1.6198532 -1.9873372e-26)
(21.5178052 -1.63123034 1.74922267e-24)
(21.510434 -1.54311856 3.68934217e-24)
(21.5018022 -1.42679859 0)
(21.5051936 -1.33991656 0)
(21.5324632 -1.33084899 -6.80365091e-25)
(21.5953184 -1.34818797 8.69949684e-25)
(21.6086914 -1.31435576 7.41154181e-24)
(21.6230082 -1.23282444 4.23639915e-24)
(21.6679001 -1.25459562 0)
(21.7452596 -1.27340843 1.49706578e-24)
(21.7748141 -1.32039719 6.49961103e-24)
(-0.0464545237 0.0349639653 3.78218129e-27)
(-0.112260064 0.0825689907 5.94818147e-27)
(-0.153234551 0.109447031 2.27281835e-26)
(-0.171277897 0.1171966 -2.54031677e-27)
(-0.168599839 0.107800964 -8.87273553e-27)
(-0.147692888 0.0834161583 0)
(-0.111235878 0.046324988 1.27685144e-26)
(-0.0620645598 -0.00104951939 1.41847031e-26)
(-0.00280317214 -0.0564675217 5.03895195e-26)
(0.0638330954 -0.117565399 7.27345767e-26)
(0.135402897 -0.182192697 1.36436998e-25)
(0.209670209 -0.248320256 4.91466238e-33)
(0.284690161 -0.314119481 2.14015476e-26)
(0.358805772 -0.377933706 2.88738203e-32)
(0.430737963 -0.43830695 -2.37541878e-26)
(0.499678206 -0.49423299 3.09885666e-25)
(0.565539519 -0.544927161 -3.52549077e-25)
(0.628497624 -0.589950277 -5.54152975e-26)
(0.689237658 -0.629113577 4.07656927e-25)
(0.749048199 -0.662287341 6.15310767e-26)
(0.809420026 -0.690040907 -1.29744512e-25)
(0.872302084 -0.712628364 -6.35247407e-25)
(0.939900425 -0.730654176 -7.17075942e-25)
(1.01478796 -0.74489599 7.51321009e-26)
(1.09986174 -0.756278573 0)
(1.19826977 -0.765797163 8.28987361e-26)
(1.31336115 -0.77448329 0)
(1.44863875 -0.783373104 1.32865099e-24)
(1.60771317 -0.793477707 2.72908693e-24)
(1.7942643 -0.805759362 1.70109197e-24)
(2.01199891 -0.821113263 -1.64271767e-24)
(2.264594 -0.840355898 -2.01186738e-24)
(2.55565524 -0.864221136 4.64310444e-25)
(2.88868221 -0.893349348 2.44168376e-25)
(3.26701824 -0.9282286 -2.26696945e-24)
(3.69352272 -0.969004004 -2.69259407e-24)
(4.17075341 -1.01569768 0)
(4.70080359 -1.06822947 3.01891763e-24)
(5.28516848 -1.12638919 2.88608872e-24)
(5.92464277 -1.18978487 6.02661052e-25)
(6.61919901 -1.25780571 6.28365659e-25)
(7.36780859 -1.32962332 0)
(8.16825522 -1.40420862 0)
(9.01695754 -1.48036032 0)
(9.90884113 -1.55672767 6.85518979e-25)
(10.8372578 -1.63183847 4.42779074e-24)
(11.793961 -1.70415654 3.82196231e-24)
(12.7692277 -1.77216727 0)
(13.7523495 -1.83450221 0)
(14.7326046 -1.89059548 3.85469877e-24)
(15.6980255 -1.94009756 2.91551858e-24)
(16.6314917 -1.98038861 3.26701554e-24)
(17.5160936 -2.00989298 3.02307537e-24)
(18.3363328 -2.02834638 -1.02504047e-24)
(19.0790192 -2.03455241 -3.70166655e-24)
(19.733978 -2.02941803 -1.74986226e-24)
(20.2932005 -2.01022345 -5.13757987e-24)
(20.7537 -1.9806631 -4.23570787e-24)
(21.1164111 -1.93694192 0)
(21.3849096 -1.88965475 7.35388505e-25)
(21.57121 -1.82830383 -5.11162025e-24)
(21.6852426 -1.76812939 -1.05587483e-23)
(21.7403447 -1.71116536 -6.57433047e-25)
(21.7588939 -1.62622573 -6.99372497e-25)
(21.7535311 -1.60431011 -2.32620084e-24)
(21.7289927 -1.528685 5.04108778e-24)
(21.7142832 -1.48051144 6.88835525e-24)
(21.7180215 -1.50169462 8.61929096e-25)
(21.7329893 -1.45856057 -8.51918122e-24)
(21.7486194 -1.45440308 -7.28639713e-24)
(21.7493811 -1.4472293 2.24867362e-26)
(21.7365209 -1.36870734 -5.47215672e-24)
(21.7386622 -1.31634738 -7.96670844e-24)
(21.7396198 -1.25945559 0)
(21.7607372 -1.22225539 -6.02691701e-24)
(21.7821062 -1.20481 -1.11780578e-23)
(21.7887988 -1.14524982 -1.62440354e-24)
(21.7967129 -1.1178804 6.41937707e-24)
(21.8810488 -1.12934513 5.94964584e-24)
(21.8846317 -1.1858958 5.58582909e-24)
(-0.0563944557 0.0391442854 1.05210228e-26)
(-0.138242105 0.0945231054 0)
(-0.191739719 0.128770833 0)
(-0.218941912 0.143500202 2.60067724e-30)
(-0.222225046 0.140674798 0)
(-0.204238839 0.122420332 0)
(-0.1678005 0.0909749845 0)
(-0.115780691 0.0486289997 -3.6018441e-26)
(-0.0511004591 -0.0022674575 0)
(0.0236686252 -0.0596057368 2.00522702e-26)
(0.10597566 -0.121237097 1.52626161e-25)
(0.193577175 -0.185225789 2.78718501e-32)
(0.284633975 -0.249841924 -1.4261202e-25)
(0.377682997 -0.313595193 0)
(0.471713407 -0.375243027 -2.60356546e-26)
(0.566244351 -0.433738309 5.50217999e-26)
(0.66126103 -0.488520155 0)
(0.757204943 -0.539066421 3.96359917e-25)
(0.854955365 -0.585160884 6.43840666e-26)
(0.955855031 -0.626822296 -9.82011897e-25)
(1.0617039 -0.664298982 -6.69918093e-25)
(1.17472521 -0.698037822 7.46886152e-26)
(1.29750918 -0.728634049 0)
(1.43296681 -0.756799087 -9.48731786e-25)
(1.5842797 -0.78333012 -1.05755455e-24)
(1.75484679 -0.809079131 -1.08286485e-24)
(1.94823245 -0.83492091 -1.30042187e-24)
(2.16811591 -0.861720457 1.43355112e-24)
(2.41823054 -0.890311594 1.4697989e-24)
(2.70231666 -0.921488303 0)
(3.0240894 -0.955976123 -1.76479894e-24)
(3.38698832 -0.99429229 -1.91835269e-24)
(3.79416737 -1.03679182 2.52325741e-25)
(4.2485104 -1.0837317 -1.97115297e-24)
(4.75249961 -1.13524407 -2.39482332e-24)
(5.30810127 -1.19130542 -5.70417251e-25)
(5.91665475 -1.25170394 2.97129309e-25)
(6.57873076 -1.31601993 -2.88943361e-24)
(7.29396885 -1.38362633 -3.05362763e-24)
(8.06090424 -1.45370704 3.54051777e-24)
(8.87681179 -1.52527201 7.40487946e-24)
(9.73757037 -1.59716947 4.20851972e-24)
(10.637553 -1.6681072 0)
(11.5695546 -1.73668568 -7.04079429e-25)
(12.5247787 -1.80144086 -3.96644299e-24)
(13.4929118 -1.86090847 -7.16265711e-25)
(14.4623703 -1.91371743 1.38270403e-31)
(15.4209342 -1.95870312 -3.61222015e-24)
(16.3573601 -1.99599458 0)
(17.2578197 -2.02472676 -6.3697171e-25)
(18.106405 -2.04292888 -4.92599027e-24)
(18.8882023 -2.04999557 -3.56920808e-24)
(19.5910459 -2.04525437 -2.06776705e-24)
(20.2057511 -2.03066479 -5.28835271e-24)
(20.7272003 -2.00440696 -3.2538736e-24)
(21.1542364 -1.9725187 -3.22273278e-24)
(21.4879398 -1.92644211 -8.67075262e-24)
(21.7327494 -1.88220575 -5.56189309e-24)
(21.8984377 -1.81342006 -6.28864011e-24)
(21.9929317 -1.77107273 -5.88664868e-24)
(22.0358743 -1.67645526 0)
(22.0367566 -1.6401031 -5.40671826e-25)
(22.0192051 -1.5617946 -6.62324892e-24)
(21.9861832 -1.50346645 -6.4908954e-24)
(21.9658678 -1.46240108 -3.23390205e-26)
(21.9301529 -1.41108205 0)
(21.8878308 -1.33176328 4.75432483e-24)
(21.8667025 -1.29836068 8.94807493e-24)
(21.8722234 -1.30568956 -8.23669507e-25)
(21.8839199 -1.30081267 1.09919209e-24)
(21.8987625 -1.32095957 -4.10793114e-26)
(21.8977599 -1.30158777 1.76356719e-24)
(21.8889646 -1.26752298 -4.48694455e-24)
(21.8998743 -1.2381637 -6.60050041e-24)
(21.9232118 -1.22236004 9.53810097e-25)
(21.9548721 -1.19098021 0)
(21.989587 -1.11590936 -1.22647069e-23)
(22.0008326 -1.04448648 -6.61334395e-24)
(22.0149883 -0.959693191 0)
(21.990716 -0.927484114 -5.84666032e-24)
(-0.0643058878 0.0410498712 -7.13533444e-27)
(-0.158161804 0.100095062 -2.78491314e-27)
(-0.220106843 0.1379913 -1.31193551e-26)
(-0.252314724 0.156342227 -7.88164604e-27)
(-0.257295336 0.157059363 -7.31685694e-27)
(-0.237826275 0.142211577 -1.75507631e-26)
(-0.196826779 0.113966079 4.07024714e-26)
(-0.137261593 0.0745354022 1.14229027e-26)
(-0.0620365854 0.0261219458 2.0597042e-26)
(0.026199837 -0.0292084603 4.34235595e-26)
(0.124974888 -0.0894738616 -4.08177445e-26)
(0.23215866 -0.15284539 -2.33999355e-25)
(0.346027065 -0.217736688 -1.88335724e-25)
(0.465282764 -0.282754644 -1.97820679e-25)
(0.589095477 -0.34674958 2.8308017e-26)
(0.717130862 -0.408819268 3.71432188e-25)
(0.8495671 -0.468317265 0)
(0.987095084 -0.524846222 0)
(1.13090109 -0.578236263 4.85447263e-25)
(1.28264283 -0.628525554 1.18751488e-24)
(1.44441613 -0.67593733 6.36031227e-25)
(1.61871243 -0.720852607 7.22667947e-25)
(1.8083706 -0.763779811 2.60736426e-32)
(2.01652449 -0.805321961 -1.01055932e-24)
(2.24654676 -0.846142186 9.38943442e-25)
(2.5019814 -0.886934225 2.30720415e-24)
(2.78648282 -0.928407188 1.17861291e-24)
(3.10376896 -0.971267878 -1.09765995e-25)
(3.45733144 -1.01606117 1.14899729e-25)
(3.85052088 -1.06324425 -2.40276969e-25)
(4.28649538 -1.1132019 0)
(4.76810104 -1.16620585 2.2806957e-24)
(5.29776079 -1.22238324 -2.72377962e-25)
(5.87734672 -1.28169617 -2.35650559e-24)
(6.50804499 -1.34392194 0)
(7.1902048 -1.40864895 -3.01383917e-24)
(7.92317961 -1.47528736 -2.58733066e-24)
(8.70517408 -1.54307321 0)
(9.53310592 -1.61107286 0)
(10.4024796 -1.67819961 -3.12844965e-24)
(11.3072897 -1.74323907 -3.65385239e-24)
(12.2399705 -1.80488342 1.39125444e-24)
(13.19141 -1.86177589 0)
(14.1510432 -1.91256582 3.52510036e-24)
(15.10704 -1.95597423 8.13469609e-24)
(16.0466226 -1.99088286 3.90827736e-24)
(16.9568511 -2.01637919 7.15863933e-25)
(17.8261638 -2.03316864 -1.16411016e-26)
(18.641739 -2.04074783 0)
(19.3900399 -2.03832236 -4.99416229e-24)
(20.0603497 -2.02536084 -1.1125415e-24)
(20.6433835 -2.00258643 4.1866105e-24)
(21.1345603 -1.9686932 -9.712043e-25)
(21.5323173 -1.92858379 -4.94672068e-24)
(21.8397062 -1.87806787 -7.05966104e-24)
(22.0649888 -1.83204666 -1.04988925e-31)
(22.2138999 -1.76873232 3.90276676e-24)
(22.2996893 -1.72756722 0)
(22.3253858 -1.64107471 0)
(22.3199848 -1.60628623 -5.79240606e-25)
(22.2910283 -1.5423338 -7.41768926e-25)
(22.2478432 -1.48522236 0)
(22.1917311 -1.43671968 7.36003917e-24)
(22.1247415 -1.37329223 8.6219259e-24)
(22.0894723 -1.34396942 -9.31850904e-24)
(22.0786699 -1.33356386 -1.46822964e-23)
(22.0487707 -1.2885054 -9.25587231e-24)
(21.9890555 -1.20424664 -8.28045499e-24)
(21.9638203 -1.15522852 -9.17384076e-24)
(21.9680922 -1.14497338 1.96650563e-24)
(21.9887006 -1.15495978 5.46208882e-24)
(22.018796 -1.16009396 9.3174509e-24)
(22.0342254 -1.14195589 -7.31791458e-24)
(22.0363253 -1.10205896 -9.66408014e-24)
(22.0847255 -1.1065315 -6.28255014e-24)
(22.1715083 -1.14594168 -7.91500619e-24)
(22.2577259 -1.12446972 -9.94953064e-24)
(22.3187994 -1.05876159 -1.55661299e-31)
(22.3220932 -0.967964389 1.15212364e-23)
(22.2586547 -0.82728276 1.74762788e-23)
(-0.0694411132 0.0406372787 2.11895842e-28)
(-0.169839562 0.0991584534 7.58452699e-27)
(-0.234742379 0.136888758 -1.37400003e-26)
(-0.266430642 0.155411718 -1.32386817e-32)
(-0.267537735 0.156571791 1.80795266e-26)
(-0.24093587 0.142356161 6.29163925e-27)
(-0.18961536 0.11483756 6.54696189e-26)
(-0.116566426 0.0761139995 2.03277999e-26)
(-0.0246497197 0.0282345582 5.07616654e-26)
(0.0834215286 -0.0268058179 6.16012974e-26)
(0.205368835 -0.0872155989 7.39966074e-26)
(0.339135005 -0.151293725 6.22031855e-26)
(0.483126641 -0.217552517 1.04137614e-25)
(0.636225177 -0.284722504 1.51149849e-25)
(0.797815711 -0.351760741 3.02310284e-26)
(0.967805846 -0.417855215 3.1851937e-26)
(1.14662896 -0.482421517 3.87535861e-25)
(1.33523574 -0.545093633 4.47703666e-25)
(1.53507321 -0.605708339 -7.44237615e-26)
(1.74805244 -0.664284344 -7.87106855e-26)
(1.97650585 -0.720997188 5.90270412e-25)
(2.22313486 -0.776150381 6.77640849e-25)
(2.49095319 -0.830145997 0)
(2.78321971 -0.883461234 9.65644841e-26)
(3.10337594 -0.936627321 0)
(3.45482585 -0.990117553 0)
(3.840899 -1.04434622 1.11335663e-25)
(4.26485429 -1.09970215 -1.72276287e-24)
(4.7297614 -1.15651185 -1.51994827e-24)
(5.23838299 -1.21499924 1.54797134e-24)
(5.79304995 -1.27525629 1.96795216e-24)
(6.39552413 -1.33722443 2.72470541e-25)
(7.04685246 -1.40068732 -2.82595629e-25)
(7.74721502 -1.46526722 0)
(8.49577498 -1.53042022 3.0517032e-25)
(9.29053376 -1.59543618 0)
(10.1281947 -1.65944781 0)
(11.0040475 -1.72144691 3.30261242e-25)
(11.9118883 -1.7803095 0)
(12.8439899 -1.83482969 0)
(13.7911354 -1.88376204 4.07839296e-24)
(14.7427329 -1.92587153 5.00994885e-24)
(15.6870194 -1.95999025 0)
(16.611368 -1.98507685 0)
(17.5026813 -2.00029349 0)
(18.3479952 -2.00493859 7.02611685e-25)
(19.1360907 -1.99952776 6.66084276e-25)
(19.8556846 -1.98484486 4.58673573e-24)
(20.4977139 -1.96117718 5.12450958e-24)
(21.0552711 -1.92917418 5.115455e-24)
(21.5253441 -1.88845503 5.16678567e-24)
(21.902993 -1.84203564 4.69853527e-24)
(22.2003073 -1.78539603 4.69374924e-24)
(22.4100957 -1.72684809 0)
(22.5448237 -1.66186289 0)
(22.6193976 -1.60977746 -5.62323167e-24)
(22.6350059 -1.53268693 -9.93236036e-24)
(22.6254646 -1.50443072 -3.06874624e-24)
(22.5879299 -1.44278157 -4.11388467e-24)
(22.5212505 -1.38301985 -6.21122633e-24)
(22.4452035 -1.33163503 8.90308484e-24)
(22.3794758 -1.28922793 1.89465219e-23)
(22.3215276 -1.25220521 -6.95294459e-25)
(22.2492988 -1.20594132 -9.51102119e-24)
(22.187707 -1.15225355 -6.96383123e-25)
(22.1854998 -1.16050095 9.4025454e-25)
(22.1965781 -1.14340353 9.98123498e-24)
(22.197915 -1.14289767 1.41452244e-31)
(22.1711009 -1.0400438 -1.00465341e-23)
(22.1698193 -0.970975706 1.14250774e-24)
(22.1765834 -0.941952896 6.36522966e-24)
(22.2424281 -0.913300211 9.88497577e-24)
(22.3032525 -0.90378628 0)
(22.3233073 -0.845997023 -8.28252916e-25)
(22.3572469 -0.779778763 0)
(22.4466874 -0.801146306 7.29435129e-24)
(22.5626776 -0.843814883 1.76056818e-23)
(22.6686881 -0.828937224 1.1247527e-23)
(22.6863913 -0.846498443 1.60350541e-23)
(22.6605897 -0.760258359 1.82345792e-23)
(-0.0710088488 0.0379483749 -3.57785131e-27)
(-0.171003165 0.0918459293 -1.34560609e-26)
(-0.23198942 0.125707875 -8.48218618e-27)
(-0.256354879 0.141094541 2.41993574e-26)
(-0.246811375 0.139743875 3.03074697e-26)
(-0.206275424 0.123534619 2.70402867e-26)
(-0.137754752 0.0944166039 -2.09797377e-26)
(-0.0442269618 0.0543502314 -7.47127952e-26)
(0.0713325586 0.00531524992 -8.52595183e-26)
(0.206557212 -0.0509584176 -9.71903764e-26)
(0.35909934 -0.112737928 0)
(0.527096068 -0.178483541 -5.47635612e-26)
(0.709140595 -0.246841152 2.89013818e-26)
(0.904323762 -0.316656366 0)
(1.11226025 -0.386982776 0)
(1.33309847 -0.457082537 0)
(1.56751707 -0.5264206 0)
(1.81670715 -0.594652631 -3.75771704e-26)
(2.0823417 -0.661607255 0)
(2.36653239 -0.727263262 -3.95006713e-25)
(2.67177353 -0.79172476 -4.43275129e-25)
(3.00087134 -0.855198798 7.16913553e-25)
(3.3568826 -0.917978344 9.13322003e-25)
(3.742811 -0.980300027 -9.25905759e-25)
(4.16173607 -1.04243206 -1.25675329e-24)
(4.6167016 -1.10463839 -1.28383353e-24)
(5.11060078 -1.16713684 -1.3128564e-24)
(5.64604957 -1.23006587 -1.82734782e-24)
(6.22524815 -1.29346289 -3.50511152e-24)
(6.84983529 -1.3572495 -1.9322346e-24)
(7.52073958 -1.42121719 0)
(8.23802951 -1.48501476 -2.84113433e-25)
(9.00076354 -1.54814244 -2.93609905e-25)
(9.80684556 -1.609953 0)
(10.6528952 -1.66965952 3.07208841e-25)
(11.5341437 -1.72635091 0)
(12.444368 -1.77901505 0)
(13.3758752 -1.82656986 4.14947009e-24)
(14.3195538 -1.86790144 -3.35053079e-25)
(15.2650031 -1.90190815 -4.40019532e-24)
(16.2007523 -1.92754877 5.03367989e-24)
(17.1145752 -1.9438909 4.98490611e-24)
(17.9938966 -1.9501583 3.4081722e-25)
(18.8262906 -1.94577394 0)
(19.6000261 -1.93031637 5.12692509e-24)
(20.3046203 -1.90366678 6.60516984e-24)
(20.9319208 -1.8663756 0)
(21.4742466 -1.81893043 0)
(21.9314689 -1.76529578 -5.75480581e-24)
(22.3108353 -1.70512589 -5.35452353e-24)
(22.6092259 -1.64060011 4.56454216e-24)
(22.8446584 -1.57001952 4.59579405e-24)
(22.9993966 -1.50707658 -6.45562027e-24)
(23.0373967 -1.42377973 -9.37539643e-32)
(23.0196143 -1.38113203 4.61348562e-24)
(22.9708859 -1.30083843 2.53010918e-26)
(22.8943035 -1.26062573 0)
(22.8143268 -1.20864427 -8.78527046e-25)
(22.7367693 -1.17069003 -6.0580226e-24)
(22.6623452 -1.13393002 -7.61161639e-25)
(22.5868363 -1.08842213 5.33874065e-24)
(22.5165902 -1.04156172 0)
(22.4644137 -0.998704156 -6.82966753e-25)
(22.4170899 -0.965539741 0)
(22.3798818 -0.900128291 -6.28675043e-25)
(22.3721833 -0.864531932 6.58194991e-25)
(22.3914337 -0.852290938 9.48020951e-25)
(22.4602178 -0.864322722 -1.06648449e-23)
(22.516855 -0.841651796 -1.0744947e-23)
(22.5386344 -0.77037207 1.08325363e-24)
(22.5508747 -0.686292403 -1.16815867e-23)
(22.5863729 -0.628623918 -9.51992903e-24)
(22.6707285 -0.599204646 -1.11333613e-23)
(22.7266701 -0.569207997 -1.18710209e-23)
(22.7442398 -0.493882424 -1.19865061e-23)
(22.7632207 -0.437364148 -1.21109943e-23)
(22.7862726 -0.449193462 1.37710463e-23)
(22.7814405 -0.507258795 9.1750303e-24)
(22.773022 -0.503602107 7.94237581e-25)
(22.7158284 -0.549602813 -1.20347509e-24)
(-0.0683692552 0.0332138941 -7.71917657e-27)
(-0.159798039 0.0788204702 1.85172109e-26)
(-0.208828151 0.105516667 -8.8853048e-27)
(-0.217934111 0.114824509 -9.15293014e-33)
(-0.18990418 0.108379462 4.33118006e-26)
(-0.127670628 0.0879356671 -1.04288978e-26)
(-0.0342420113 0.0553114418 5.67979352e-26)
(0.0872691987 0.0123871683 1.75688612e-32)
(0.234411719 -0.039183092 -1.22877907e-25)
(0.404594331 -0.0976883667 -8.40245418e-26)
(0.595706278 -0.161579111 2.72604695e-26)
(0.806066094 -0.229459698 -1.38384096e-25)
(1.03447233 -0.300104315 -9.55185448e-26)
(1.28023758 -0.372468065 -1.44380289e-25)
(1.54320513 -0.445691048 -1.65963813e-25)
(1.82375077 -0.519096107 1.9087884e-25)
(2.12276884 -0.592180147 2.19521246e-25)
(2.44164303 -0.664599825 -3.92465339e-26)
(2.78220171 -0.736153629 0)
(3.14665577 -0.806765722 -2.8716229e-25)
(3.53749588 -0.876453919 -3.76515585e-25)
(3.95726432 -0.945234939 -9.62770202e-26)
(4.40864239 -1.01318356 4.83170646e-25)
(4.89433926 -1.08039464 6.50901906e-25)
(5.41697024 -1.14694605 -2.2047665e-25)
(5.97892048 -1.21287331 0)
(6.58220158 -1.27814761 1.20555668e-25)
(7.22830368 -1.34265496 1.05598553e-27)
(7.91804367 -1.40617855 -2.04758845e-24)
(8.65141093 -1.46838705 -2.13033148e-24)
(9.42741574 -1.52882835 2.36157884e-24)
(10.2439472 -1.58692965 2.18149078e-24)
(11.097649 -1.64200437 -5.90592097e-25)
(11.9838221 -1.69326637 -2.86358963e-24)
(12.8963672 -1.73985162 -2.19906042e-31)
(13.827778 -1.78084717 3.79694793e-24)
(14.7691999 -1.81532708 -4.4555911e-24)
(15.710565 -1.84239412 -4.48300803e-24)
(16.6408148 -1.8612258 -6.470524e-25)
(17.5482148 -1.87112164 3.27121444e-25)
(18.4207585 -1.87155001 3.19617057e-25)
(19.2466537 -1.86218096 -5.89474782e-24)
(20.0148511 -1.84292849 -1.21283669e-23)
(20.7156491 -1.81394622 -6.52419148e-24)
(21.34107 -1.77542459 -7.39415445e-24)
(21.8848763 -1.72835829 -6.82258059e-24)
(22.3439741 -1.67193819 0)
(22.7130662 -1.60781281 6.00067257e-24)
(23.0028557 -1.54402964 6.15273301e-24)
(23.231661 -1.48993332 6.95722112e-24)
(23.3689394 -1.4218728 1.49188643e-23)
(23.3427946 -1.35393806 1.38336523e-23)
(23.2989046 -1.31373753 8.76965176e-24)
(23.196819 -1.25467111 8.82923277e-24)
(23.1056403 -1.19873907 4.26613509e-24)
(23.0056792 -1.17428891 1.609389e-24)
(22.9381942 -1.11908912 0)
(22.8642957 -1.07966883 -8.13304013e-24)
(22.7969237 -1.04035775 -8.13188491e-24)
(22.7439024 -1.00018434 0)
(22.700447 -0.955491753 -6.08868211e-24)
(22.6595493 -0.905046422 -5.99416429e-24)
(22.6300521 -0.844092087 0)
(22.6196019 -0.801827112 6.72635876e-25)
(22.627874 -0.732406672 0)
(22.6372329 -0.676899761 -9.33716814e-24)
(22.6491999 -0.610171165 1.74956261e-24)
(22.7041194 -0.564578198 1.26956614e-23)
(22.7899534 -0.579470963 1.03671231e-24)
(22.8629879 -0.574222478 1.02167648e-24)
(22.8941554 -0.530170494 -1.31117424e-23)
(22.9025246 -0.471936611 -1.38977568e-23)
(22.9219351 -0.434447212 9.007308e-25)
(22.946314 -0.409510447 9.64457573e-25)
(22.9498781 -0.402608187 -6.14473087e-26)
(22.9340008 -0.335913219 6.33981529e-25)
(22.8178154 -0.307413291 1.00611852e-23)
(22.7699919 -0.272515118 1.9623329e-23)
(22.7454486 -0.351001875 1.500666e-23)
(22.7305115 -0.351420251 1.41340906e-24)
(-0.0609791632 0.0267857699 0)
(-0.134676096 0.0611095957 -8.7386742e-27)
(-0.162768306 0.0779954352 9.23186848e-27)
(-0.147816984 0.0789215239 -6.11225925e-26)
(-0.0926415143 0.065399789 1.0276167e-26)
(-0.000195814068 0.0390634661 1.08339277e-26)
(0.126372707 0.00164799733 -6.93354298e-26)
(0.284518034 -0.045282731 0)
(0.471472069 -0.100088385 2.53913302e-26)
(0.684910625 -0.161252141 -9.5355349e-26)
(0.922904155 -0.227379255 -7.87080348e-26)
(1.18397316 -0.297213406 1.20571756e-25)
(1.46712945 -0.369649778 3.14626592e-26)
(1.77189948 -0.443741934 -2.77885196e-25)
(2.09833231 -0.518703129 -3.55413769e-25)
(2.44698962 -0.593901255 -1.66783382e-25)
(2.81891769 -0.668847596 -3.88275908e-26)
(3.21559832 -0.743186849 -2.67981613e-25)
(3.63886422 -0.816677277 -2.63581432e-25)
(4.09066448 -0.889101893 4.48980241e-26)
(4.57315158 -0.96032306 -4.73311329e-26)
(5.08857333 -1.03025005 -1.9788788e-25)
(5.63915136 -1.09880682 -5.17597612e-25)
(6.22694484 -1.16590751 -1.17612543e-24)
(6.85370589 -1.23143425 -6.65252649e-25)
(7.52072824 -1.29521692 -1.18275607e-25)
(8.22869098 -1.35701672 -6.05487989e-25)
(8.9775016 -1.41651416 1.26648716e-25)
(9.76614319 -1.47330254 -1.31123426e-25)
(10.5925322 -1.52688743 -1.07177488e-24)
(11.4533945 -1.5766928 0)
(12.3441689 -1.6220742 -3.16192428e-24)
(13.2589496 -1.6623391 -2.92887788e-25)
(14.1904771 -1.69677451 4.02332407e-24)
(15.1301921 -1.72468125 4.42329273e-24)
(16.0683597 -1.74541423 4.83956032e-24)