/*--------------------------------*- C++ -*----------------------------------*\
  =========                 |
  \\      /  F ield         | OpenFOAM: The Open Source CFD Toolbox
   \\    /   O peration     | Website:  https://openfoam.org
    \\  /    A nd           | Version:  8
     \\/     M anipulation  |
\*---------------------------------------------------------------------------*/
FoamFile
{
    version     2.0;
    format      ascii;
    class       volScalarField;
    location    "0.057";
    object      p;
}
// * * * * * * * * * * * * * * * * * * * * * * * * * * * * * * * * * * * * * //

dimensions      [1 -1 -2 0 0 0 0];

internalField   nonuniform List<scalar> 
42400
(
101549.822
101549.809
101549.795
101549.782
101549.77
101549.759
101549.748
101549.739
101549.731
101549.724
101549.717
101549.712
101549.708
101549.705
101549.703
101549.701
101549.701
101549.702
101549.704
101549.707
101549.71
101549.715
101549.72
101549.726
101549.732
101549.739
101549.747
101549.755
101549.763
101549.772
101549.781
101549.79
101549.8
101549.81
101549.82
101549.83
101549.839
101549.847
101549.866
101549.898
101549.934
101549.95
101549.941
101549.929
101549.917
101549.919
101549.94
101549.964
101549.988
101550.015
101550.039
101550.059
101550.105
101550.176
101550.259
101550.317
101550.342
101550.397
101550.493
101550.616
101550.746
101550.892
101551.064
101551.276
101551.523
101551.806
101552.148
101552.419
101552.861
101553.591
101553.237
101553.028
101555.008
101555.571
101555.054
101554.34
101551.976
101556.716
101565.514
101567.242
101548.841
101548.831
101548.819
101548.809
101548.8
101548.791
101548.784
101548.777
101548.771
101548.766
101548.762
101548.759
101548.756
101548.755
101548.755
101548.755
101548.757
101548.76
101548.763
101548.767
101548.772
101548.778
101548.785
101548.792
101548.8
101548.808
101548.817
101548.826
101548.835
101548.844
101548.854
101548.864
101548.873
101548.881
101548.896
101548.918
101548.944
101548.973
101548.983
101548.972
101548.959
101548.959
101548.974
101548.991
101549.007
101549.025
101549.041
101549.058
101549.07
101549.102
101549.167
101549.206
101549.204
101549.218
101549.266
101549.336
101549.405
101549.477
101549.561
101549.665
101549.796
101549.952
101550.133
101550.344
101550.594
101550.886
101551.314
101551.7
101552.077
101553.104
101553.568
101553.08
101554.506
101555.531
101555.655
101558.289
101561.551
101563.862
101565.516
101567.213
101547.754
101547.746
101547.738
101547.73
101547.724
101547.718
101547.713
101547.708
101547.705
101547.702
101547.701
101547.7
101547.7
101547.702
101547.704
101547.708
101547.712
101547.717
101547.724
101547.731
101547.74
101547.749
101547.759
101547.77
101547.782
101547.794
101547.808
101547.822
101547.836
101547.851
101547.865
101547.884
101547.908
101547.934
101547.957
101547.967
101547.969
101547.97
101547.981
101548.003
101548.024
101548.044
101548.066
101548.084
101548.096
101548.121
101548.163
101548.221
101548.249
101548.243
101548.264
101548.311
101548.36
101548.405
101548.454
101548.512
101548.584
101548.67
101548.772
101548.891
101549.029
101549.19
101549.382
101549.612
101549.893
101550.211
101550.684
101551.273
101551.776
101552.73
101553.671
101553.681
101555.135
101557.877
101558.771
101559.522
101561.194
101564.136
101567.126
101568.459
101546.585
101546.579
101546.573
101546.567
101546.563
101546.559
101546.556
101546.554
101546.553
101546.552
101546.553
101546.556
101546.559
101546.563
101546.569
101546.576
101546.584
101546.593
101546.604
101546.616
101546.629
101546.643
101546.659
101546.676
101546.694
101546.712
101546.732
101546.754
101546.778
101546.804
101546.833
101546.857
101546.876
101546.894
101546.912
101546.936
101546.967
101546.999
101547.03
101547.062
101547.091
101547.114
101547.152
101547.216
101547.258
101547.265
101547.287
101547.327
101547.381
101547.428
101547.473
101547.522
101547.578
101547.642
101547.714
101547.796
101547.89
101548.001
101548.134
101548.292
101548.48
101548.69
101548.933
101549.227
101549.605
101550.073
101550.688
101551.462
101551.812
101552.631
101554.466
101557.291
101558.625
101559.104
101561.39
101563.024
101564.419
101566.055
101567.792
101569.479
101545.333
101545.328
101545.323
101545.318
101545.315
101545.312
101545.311
101545.31
101545.311
101545.313
101545.317
101545.322
101545.328
101545.336
101545.345
101545.356
101545.368
101545.382
101545.398
101545.416
101545.435
101545.455
101545.476
101545.499
101545.525
101545.552
101545.582
101545.613
101545.644
101545.676
101545.709
101545.745
101545.785
101545.826
101545.867
101545.909
101545.952
101545.994
101546.03
101546.079
101546.151
101546.202
101546.224
101546.264
101546.32
101546.375
101546.428
101546.481
101546.539
101546.601
101546.667
101546.739
101546.818
101546.908
101547.014
101547.138
101547.282
101547.452
101547.656
101547.897
101548.193
101548.519
101548.884
101549.263
101549.672
101550.011
101550.479
101552.155
101555.167
101556.977
101557.573
101558.461
101559.615
101561.27
101562.721
101563.957
101565.445
101567.118
101568.804
101570.205
101543.982
101543.977
101543.971
101543.967
101543.965
101543.963
101543.963
101543.964
101543.966
101543.97
101543.976
101543.984
101543.993
101544.004
101544.017
101544.033
101544.05
101544.069
101544.088
101544.11
101544.135
101544.165
101544.197
101544.231
101544.268
101544.306
101544.346
101544.389
101544.434
101544.48
101544.528
101544.577
101544.629
101544.682
101544.734
101544.783
101544.842
101544.922
101544.983
101545.02
101545.075
101545.144
101545.21
101545.274
101545.339
101545.407
101545.477
101545.55
101545.628
101545.713
101545.807
101545.915
101546.039
101546.183
101546.351
101546.547
101546.773
101547.038
101547.357
101547.753
101548.277
101548.902
101549.619
101550.263
101551.173
101552.955
101554.955
101555.946
101556.198
101556.868
101557.743
101558.887
101560.801
101562.28
101563.926
101565.507
101566.751
101568.105
101569.215
101570.587
101542.5
101542.494
101542.489
101542.485
101542.483
101542.482
101542.483
101542.486
101542.49
101542.496
101542.504
101542.514
101542.527
101542.542
101542.559
101542.579
101542.602
101542.628
101542.658
101542.69
101542.725
101542.761
101542.801
101542.843
101542.888
101542.935
101542.985
101543.038
101543.093
101543.151
101543.211
101543.272
101543.331
101543.398
101543.485
101543.554
101543.605
101543.673
101543.753
101543.83
101543.905
101543.981
101544.059
101544.139
101544.222
101544.309
101544.402
101544.504
101544.616
101544.743
101544.888
101545.058
101545.255
101545.484
101545.753
101546.064
101546.412
101546.81
101547.247
101547.737
101548.298
101549.022
101550.378
101552.387
101553.517
101554.239
101554.868
101555.562
101556.789
101558.268
101559.527
101560.508
101561.597
101563.37
101565.351
101566.489
101567.053
101567.942
101569.629
101571.167
101540.848
101540.843
101540.838
101540.834
101540.833
101540.834
101540.836
101540.841
101540.848
101540.857
101540.868
101540.882
101540.899
101540.919
101540.941
101540.967
101540.996
101541.027
101541.062
101541.1
101541.142
101541.187
101541.235
101541.286
101541.34
101541.398
101541.458
101541.522
101541.588
101541.652
101541.725
101541.814
101541.89
101541.952
101542.03
101542.117
101542.202
101542.286
101542.372
101542.46
101542.55
101542.643
101542.74
101542.842
101542.951
101543.069
101543.199
101543.345
101543.511
101543.704
101543.925
101544.18
101544.474
101544.809
101545.192
101545.639
101546.138
101546.68
101547.284
101547.915
101549.07
101550.872
101552.025
101552.245
101552.858
101554.111
101555.195
101556.493
101557.945
101559.055
101560.136
101561.421
101562.621
101564.112
101565.601
101567.056
101568.229
101569.573
101571.227
101572.887
101538.978
101538.974
101538.97
101538.968
101538.969
101538.972
101538.977
101538.984
101538.995
101539.009
101539.025
101539.045
101539.067
101539.092
101539.12
101539.152
101539.188
101539.227
101539.27
101539.316
101539.366
101539.419
101539.476
101539.537
101539.602
101539.667
101539.733
101539.808
101539.898
101539.978
101540.047
101540.13
101540.223
101540.314
101540.406
101540.5
101540.597
101540.696
101540.798
101540.905
101541.016
101541.134
101541.26
101541.396
101541.547
101541.717
101541.91
101542.132
101542.389
101542.687
101543.035
101543.436
101543.904
101544.447
101545.07
101545.786
101546.631
101547.475
101548.379
101549.883
101551.06
101551.54
101552.221
101553.057
101553.856
101554.926
101556.257
101557.556
101559.045
101560.374
101561.49
101562.828
101563.997
101565.435
101567.224
101568.688
101569.826
101571.327
101573.087
101574.506
101536.855
101536.853
101536.852
101536.853
101536.857
101536.863
101536.872
101536.885
101536.9
101536.918
101536.94
101536.964
101536.993
101537.025
101537.061
101537.1
101537.144
101537.191
101537.242
101537.298
101537.357
101537.42
101537.485
101537.555
101537.638
101537.727
101537.801
101537.875
101537.963
101538.059
101538.154
101538.251
101538.352
101538.456
101538.563
101538.673
101538.788
101538.907
101539.033
101539.166
101539.309
101539.464
101539.635
101539.825
101540.039
101540.282
101540.561
101540.882
101541.247
101541.66
101542.134
101542.675
101543.316
101544.073
101544.9
101545.801
101546.758
101547.797
101548.879
101549.727
101550.517
101551.559
101552.954
101554.156
101555.064
101556.192
101557.708
101559.06
101560.687
101562.079
101563.229
101564.328
101565.469
101566.595
101567.445
101568.732
101570.53
101572.168
101573.946
101575.598
101534.442
101534.443
101534.445
101534.451
101534.459
101534.471
101534.485
101534.503
101534.524
101534.549
101534.577
101534.609
101534.646
101534.686
101534.731
101534.779
101534.832
101534.89
101534.951
101535.015
101535.085
101535.166
101535.245
101535.321
101535.407
101535.5
101535.598
101535.696
101535.798
101535.903
101536.012
101536.126
101536.243
101536.365
101536.493
101536.627
101536.769
101536.92
101537.083
101537.261
101537.457
101537.674
101537.917
101538.191
101538.501
101538.852
101539.246
101539.683
101540.158
101540.669
101541.213
101541.737
101542.261
101542.969
101544.176
101545.652
101547.116
101548.452
101549.257
101550.175
101551.666
101552.616
101553.233
101554.173
101555.338
101556.381
101557.823
101559.445
101560.792
101561.992
101563.112
101564.135
101565.451
101566.893
101568.332
101569.943
101571.607
101573.231
101574.703
101576.392
101531.694
101531.7
101531.708
101531.719
101531.734
101531.752
101531.773
101531.798
101531.828
101531.861
101531.898
101531.94
101531.986
101532.037
101532.092
101532.152
101532.215
101532.284
101532.363
101532.441
101532.519
101532.606
101532.7
101532.797
101532.897
101533.002
101533.112
101533.226
101533.344
101533.467
101533.596
101533.73
101533.872
101534.022
101534.181
101534.353
101534.539
101534.744
101534.97
101535.222
101535.504
101535.822
101536.182
101536.588
101537.047
101537.563
101538.143
101538.792
101539.514
101540.331
101541.266
101542.242
101543.518
101545.15
101546.087
101546.562
101547.249
101548.004
101549.274
101550.729
101551.361
101552.418
101553.718
101554.596
101555.778
101557.208
101558.219
101559.632
101561.473
101562.785
101564.099
101565.63
101567.101
101568.616
101570.094
101571.577
101573.669
101575.983
101578.204
101579.668
101528.572
101528.584
101528.6
101528.618
101528.641
101528.667
101528.697
101528.731
101528.77
101528.814
101528.862
101528.914
101528.972
101529.034
101529.101
101529.177
101529.254
101529.333
101529.42
101529.513
101529.61
101529.712
101529.818
101529.929
101530.045
101530.167
101530.293
101530.425
101530.564
101530.709
101530.864
101531.027
101531.203
101531.393
101531.601
101531.829
101532.082
101532.364
101532.68
101533.036
101533.438
101533.891
101534.401
101534.974
101535.616
101536.328
101537.117
101537.979
101538.92
101539.902
101541.095
101542.498
101543.812
101544.605
101545.361
101546.392
101547.413
101548.611
101549.785
101550.887
101551.986
101552.936
101553.594
101554.718
101556.34
101558.141
101560.341
101561.515
101562.594
101564.301
101565.85
101567.497
101569.176
101570.907
101572.639
101574.427
101575.98
101577.379
101579.145
101581.292
101525.029
101525.048
101525.073
101525.101
101525.133
101525.17
101525.211
101525.256
101525.306
101525.361
101525.421
101525.487
101525.559
101525.635
101525.713
101525.799
101525.891
101525.987
101526.088
101526.195
101526.306
101526.423
101526.545
101526.673
101526.806
101526.946
101527.093
101527.248
101527.412
101527.588
101527.777
101527.981
101528.205
101528.45
101528.722
101529.025
101529.363
101529.741
101530.163
101530.635
101531.159
101531.739
101532.376
101533.07
101533.816
101534.597
101535.406
101536.24
101537.402
101539.036
101540.402
101541.693
101542.801
101543.744
101544.957
101546.29
101547.691
101548.629
101549.55
101550.68
101551.881
101553.274
101554.726
101556.312
101558.357
101559.99
101561.102
101562.084
101563.395
101565.316
101567.189
101569.026
101570.97
101572.816
101574.758
101577.198
101579.056
101580.053
101581.515
101583.413
101521.029
101521.059
101521.095
101521.134
101521.178
101521.226
101521.279
101521.337
101521.401
101521.469
101521.541
101521.62
101521.704
101521.794
101521.889
101521.989
101522.095
101522.206
101522.322
101522.444
101522.572
101522.706
101522.847
101522.995
101523.151
101523.317
101523.493
101523.683
101523.888
101524.111
101524.356
101524.627
101524.928
101525.264
101525.641
101526.063
101526.537
101527.068
101527.661
101528.322
101529.054
101529.861
101530.745
101531.714
101532.766
101533.891
101535.057
101536.683
101538.104
101538.766
101539.68
101540.757
101541.741
101543.022
101544.672
101545.849
101546.653
101547.964
101549.656
101551.215
101552.843
101554.518
101556.519
101558
101559.037
101560.306
101561.904
101563.531
101565.259
101567.056
101568.88
101570.727
101572.686
101574.664
101576.604
101578.05
101580.191
101582.76
101584.392
101585.686
101516.554
101516.596
101516.646
101516.698
101516.755
101516.817
101516.884
101516.956
101517.033
101517.116
101517.204
101517.298
101517.397
101517.501
101517.612
101517.728
101517.85
101517.978
101518.112
101518.254
101518.403
101518.56
101518.726
101518.904
101519.094
101519.299
101519.521
101519.765
101520.032
101520.329
101520.658
101521.026
101521.437
101521.896
101522.41
101522.983
101523.619
101524.322
101525.096
101525.941
101526.861
101527.852
101528.903
101530.031
101531.203
101532.365
101533.827
101535.041
101536.023
101537.299
101538.658
101540.111
101541.688
101543.238
101544.613
101545.916
101547.252
101548.861
101550.767
101552.196
101553.292
101554.492
101555.654
101556.995
101558.93
101560.767
101562.42
101564.154
101566.138
101568.338
101570.536
101572.621
101574.663
101576.766
101578.868
101581.017
101582.958
101584.547
101585.857
101587.213
101511.603
101511.658
101511.723
101511.791
101511.863
101511.94
101512.022
101512.109
101512.201
101512.299
101512.403
101512.512
101512.626
101512.747
101512.874
101513.008
101513.148
101513.295
101513.451
101513.616
101513.791
101513.978
101514.179
101514.397
101514.634
101514.893
101515.178
101515.494
101515.845
101516.235
101516.671
101517.157
101517.697
101518.296
101518.957
101519.682
101520.473
101521.329
101522.248
101523.224
101524.25
101525.315
101526.405
101527.874
101529.832
101531.796
101532.898
101533.812
101535.209
101536.651
101538.009
101539.539
101541.185
101542.809
101544.442
101545.883
101547.256
101548.495
101549.656
101551.568
101553.717
101555.226
101557.014
101558.933
101560.797
101562.974
101565.315
101567.911
101569.965
101571.242
101572.752
101574.535
101576.174
101577.81
101579.86
101581.928
101583.829
101586.005
101587.656
101589.779
101506.199
101506.27
101506.352
101506.436
101506.523
101506.615
101506.713
101506.816
101506.924
101507.037
101507.157
101507.282
101507.414
101507.553
101507.699
101507.853
101508.016
101508.19
101508.375
101508.574
101508.789
101509.023
101509.279
101509.561
101509.873
101510.22
101510.607
101511.039
101511.523
101512.064
101512.667
101513.338
101514.082
101514.902
101515.802
101516.783
101517.846
101518.992
101520.218
101521.505
101522.878
101524.334
101526.237
101528.224
101529.383
101530.245
101531.427
101533.139
101534.858
101536.549
101538.25
101539.882
101541.343
101542.638
101544.01
101545.875
101547.666
101549.552
101551.84
101553.668
101555.267
101557.026
101558.788
101560.606
101562.439
101564.549
101566.603
101567.975
101569.744
101572.47
101574.293
101576.037
101578.089
101579.753
101581.493
101583.765
101585.852
101587.835
101589.854
101591.588
101500.431
101500.517
101500.617
101500.718
101500.822
101500.93
101501.044
101501.164
101501.289
101501.42
101501.557
101501.702
101501.854
101502.016
101502.187
101502.37
101502.566
101502.777
101503.006
101503.257
101503.532
101503.835
101504.172
101504.548
101504.967
101505.435
101505.959
101506.544
101507.196
101507.919
101508.718
101509.597
101510.557
101511.6
101512.725
101513.932
101515.217
101516.57
101517.969
101519.419
101521.325
101523.779
101525.269
101526.173
101527.431
101529.294
101531.189
101532.983
101534.779
101536.603
101538.521
101540.174
101541.4
101542.984
101544.837
101546.371
101548.762
101550.895
101551.966
101553.004
101554.707
101557.121
101559.452
101561.664
101564.031
101565.971
101567.89
101570.158
101571.661
101572.907
101575.237
101577.813
101579.472
101581.335
101583.21
101585.224
101587.16
101588.386
101590.513
101593.529
101494.381
101494.483
101494.6
101494.718
101494.837
101494.962
101495.091
101495.226
101495.368
101495.516
101495.672
101495.837
101496.013
101496.2
101496.402
101496.62
101496.858
101497.118
101497.405
101497.722
101498.076
101498.471
101498.912
101499.406
101499.959
101500.577
101501.266
101502.031
101502.875
101503.804
101504.818
101505.92
101507.108
101508.382
101509.736
101511.159
101512.658
101514.198
101516.095
101518.62
101520.424
101521.34
101522.619
101524.537
101526.438
101528.249
101530.142
101532.074
101533.987
101535.859
101537.694
101539.564
101541.379
101543.193
101545.439
101547.357
101548.673
101550.305
101552.255
101554.157
101556.32
101558.746
101561.058
101563.249
101565.473
101567.671
101570.001
101572.514
101575.048
101577.093
101578.166
101579.727
101582.577
101584.793
101586.611
101588.874
101591.592
101592.947
101594.013
101595.652
101536.29
101536.293
101536.299
101536.307
101536.316
101536.328
101536.341
101536.357
101536.375
101536.395
101536.418
101536.442
101536.47
101536.499
101536.531
101536.566
101536.604
101536.644
101536.687
101536.733
101536.782
101536.835
101536.89
101536.95
101537.013
101537.079
101537.15
101537.224
101537.303
101537.386
101537.474
101537.567
101537.664
101537.767
101537.876
101537.99
101538.111
101538.237
101538.371
101538.511
101538.657
101538.81
101538.97
101539.139
101539.315
101539.498
101539.688
101539.885
101540.099
101540.333
101540.584
101540.854
101541.128
101541.405
101541.693
101541.993
101542.306
101542.631
101542.965
101543.305
101543.645
101543.98
101544.303
101544.604
101544.866
101545.079
101545.237
101545.334
101545.356
101545.29
101545.111
101544.78
101544.262
101543.588
101542.75
101541.73
101540.493
101539.228
101538.513
101537.505
101538.866
101538.87
101538.876
101538.884
101538.895
101538.907
101538.921
101538.938
101538.956
101538.977
101539
101539.026
101539.054
101539.084
101539.117
101539.152
101539.19
101539.231
101539.275
101539.321
101539.371
101539.424
101539.48
101539.539
101539.602
101539.669
101539.739
101539.814
101539.892
101539.975
101540.062
101540.154
101540.251
101540.352
101540.459
101540.571
101540.689
101540.813
101540.943
101541.08
101541.223
101541.374
101541.531
101541.697
101541.868
101542.047
101542.232
101542.425
101542.626
101542.835
101543.049
101543.265
101543.486
101543.719
101543.97
101544.239
101544.522
101544.816
101545.12
101545.435
101545.761
101546.069
101546.379
101546.728
101547.048
101547.311
101547.533
101547.699
101547.764
101547.718
101547.551
101547.299
101546.952
101546.504
101545.951
101545.295
101544.554
101543.881
101543.485
101542.503
101541.179
101541.184
101541.191
101541.2
101541.21
101541.223
101541.237
101541.254
101541.273
101541.294
101541.318
101541.343
101541.371
101541.401
101541.434
101541.469
101541.507
101541.547
101541.591
101541.637
101541.686
101541.738
101541.793
101541.851
101541.913
101541.978
101542.047
101542.12
101542.196
101542.277
101542.361
101542.45
101542.543
101542.641
101542.744
101542.852
101542.965
101543.083
101543.207
101543.337
101543.473
101543.615
101543.763
101543.919
101544.081
101544.25
101544.427
101544.612
101544.806
101545.006
101545.212
101545.424
101545.643
101545.872
101546.111
101546.36
101546.616
101546.877
101547.142
101547.407
101547.667
101547.932
101548.183
101548.396
101548.601
101548.792
101548.934
101549.072
101549.258
101549.454
101549.557
101549.467
101549.204
101548.785
101548.247
101547.597
101546.88
101546.14
101545.427
101544.511
101543.235
101543.24
101543.247
101543.256
101543.267
101543.28
101543.295
101543.311
101543.33
101543.351
101543.374
101543.399
101543.427
101543.456
101543.488
101543.523
101543.56
101543.599
101543.641
101543.686
101543.733
101543.784
101543.837
101543.894
101543.953
101544.016
101544.082
101544.152
101544.225
101544.302
101544.383
101544.467
101544.556
101544.649
101544.746
101544.848
101544.955
101545.066
101545.183
101545.305
101545.432
101545.564
101545.703
101545.847
101545.997
101546.154
101546.316
101546.486
101546.663
101546.846
101547.037
101547.236
101547.443
101547.659
101547.881
101548.109
101548.34
101548.575
101548.813
101549.052
101549.29
101549.524
101549.757
101549.974
101550.168
101550.341
101550.489
101550.562
101550.556
101550.458
101550.348
101550.264
101550.225
101550.128
101549.79
101549.235
101548.402
101547.29
101546.119
101544.976
101545.044
101545.049
101545.056
101545.065
101545.076
101545.088
101545.103
101545.119
101545.138
101545.158
101545.181
101545.205
101545.232
101545.26
101545.291
101545.325
101545.36
101545.398
101545.439
101545.481
101545.527
101545.575
101545.626
101545.68
101545.737
101545.797
101545.86
101545.926
101545.995
101546.068
101546.144
101546.224
101546.308
101546.395
101546.487
101546.582
101546.682
101546.786
101546.895
101547.008
101547.126
101547.249
101547.377
101547.51
101547.649
101547.792
101547.942
101548.097
101548.258
101548.424
101548.596
101548.774
101548.957
101549.146
101549.339
101549.537
101549.739
101549.945
101550.154
101550.366
101550.579
101550.792
101551.003
101551.209
101551.406
101551.591
101551.757
101551.9
101551.968
101551.944
101551.817
101551.55
101551.128
101550.681
101550.266
101549.785
101549.29
101548.688
101547.756
101546.617
101546.616
101546.621
101546.628
101546.637
101546.648
101546.66
101546.674
101546.69
101546.708
101546.727
101546.749
101546.773
101546.798
101546.826
101546.855
101546.887
101546.921
101546.957
101546.995
101547.036
101547.079
101547.125
101547.173
101547.224
101547.278
101547.334
101547.394
101547.456
101547.521
101547.59
101547.661
101547.736
101547.815
101547.896
101547.982
101548.071
101548.164
101548.261
101548.363
101548.468
101548.578
101548.692
101548.811
101548.935
101549.063
101549.197
101549.336
101549.479
101549.628
101549.783
101549.942
101550.107
101550.277
101550.452
101550.632
101550.816
101551.005
101551.198
101551.395
101551.596
101551.798
101552.003
101552.207
101552.41
101552.607
101552.795
101552.969
101553.119
101553.236
101553.307
101553.319
101553.256
101553.034
101552.602
101552.072
101551.384
101550.442
101549.495
101548.601
101547.76
101547.966
101547.971
101547.978
101547.986
101547.997
101548.008
101548.022
101548.037
101548.054
101548.073
101548.093
101548.116
101548.14
101548.166
101548.194
101548.224
101548.256
101548.29
101548.326
101548.365
101548.406
101548.449
101548.494
101548.542
101548.592
101548.645
101548.701
101548.759
101548.821
101548.885
101548.952
101549.022
101549.095
101549.172
101549.252
101549.335
101549.423
101549.513
101549.608
101549.707
101549.81
101549.918
101550.029
101550.146
101550.267
101550.394
101550.525
101550.662
101550.804
101550.951
101551.104
101551.262
101551.427
101551.596
101551.772
101551.952
101552.139
101552.33
101552.527
101552.728
101552.935
101553.146
101553.36
101553.576
101553.793
101554.007
101554.215
101554.41
101554.585
101554.731
101554.836
101554.886
101554.864
101554.765
101554.483
101554.012
101553.345
101552.358
101551.183
101550.085
101549.108
101549.113
101549.12
101549.128
101549.137
101549.148
101549.161
101549.175
101549.191
101549.209
101549.228
101549.249
101549.272
101549.296
101549.322
101549.35
101549.38
101549.412
101549.446
101549.482
101549.52
101549.56
101549.603
101549.647
101549.694
101549.744
101549.796
101549.85
101549.907
101549.967
101550.03
101550.095
101550.164
101550.236
101550.311
101550.389
101550.471
101550.556
101550.646
101550.739
101550.837
101550.939
101551.046
101551.157
101551.274
101551.396
101551.523
101551.656
101551.795
101551.94
101552.091
101552.249
101552.414
101552.586
101552.764
101552.95
101553.143
101553.343
101553.55
101553.765
101553.988
101554.218
101554.456
101554.701
101554.952
101555.208
101555.466
101555.721
101555.969
101556.201
101556.406
101556.57
101556.675
101556.698
101556.614
101556.411
101556.07
101555.606
101554.85
101553.836
101550.057
101550.062
101550.068
101550.075
101550.084
101550.094
101550.105
101550.118
101550.133
101550.149
101550.167
101550.186
101550.207
101550.229
101550.254
101550.28
101550.307
101550.337
101550.368
101550.401
101550.436
101550.473
101550.513
101550.554
101550.597
101550.643
101550.691
101550.742
101550.794
101550.85
101550.909
101550.97
101551.034
101551.1
101551.17
101551.244
101551.321
101551.402
101551.487
101551.576
101551.669
101551.767
101551.87
101551.978
101552.091
101552.21
101552.336
101552.468
101552.607
101552.753
101552.906
101553.068
101553.237
101553.416
101553.603
101553.8
101554.006
101554.222
101554.448
101554.685
101554.933
101555.192
101555.464
101555.747
101556.042
101556.349
101556.666
101556.991
101557.319
101557.646
101557.962
101558.256
101558.513
101558.712
101558.831
101558.848
101558.749
101558.518
101558.104
101557.507
101550.83
101550.834
101550.839
101550.845
101550.852
101550.861
101550.871
101550.883
101550.896
101550.91
101550.926
101550.943
101550.962
101550.982
101551.004
101551.028
101551.053
101551.08
101551.108
101551.138
101551.17
101551.204
101551.24
101551.278
101551.317
101551.359
101551.403
101551.449
101551.498
101551.549
101551.603
101551.659
101551.718
101551.78
101551.846
101551.915
101551.987
101552.063
101552.143
101552.228
101552.317
101552.411
101552.51
101552.615
101552.726
101552.844
101552.969
101553.101
101553.241
101553.389
101553.547
101553.714
101553.891
101554.078
101554.277
101554.487
101554.71
101554.945
101555.194
101555.456
101555.734
101556.027
101556.336
101556.661
101557.005
101557.366
101557.745
101558.14
101558.55
101558.971
101559.397
101559.82
101560.228
101560.605
101560.931
101561.181
101561.337
101561.388
101561.306
101561.063
101551.441
101551.443
101551.447
101551.452
101551.457
101551.465
101551.473
101551.483
101551.494
101551.506
101551.519
101551.534
101551.551
101551.569
101551.588
101551.608
101551.63
101551.654
101551.679
101551.706
101551.734
101551.765
101551.796
101551.83
101551.866
101551.903
101551.942
101551.984
101552.027
101552.073
101552.122
101552.173
101552.227
101552.285
101552.345
101552.408
101552.476
101552.547
101552.624
101552.704
101552.789
101552.879
101552.975
101553.077
101553.185
101553.301
101553.424
101553.556
101553.696
101553.846
101554.007
101554.178
101554.361
101554.557
101554.766
101554.99
101555.228
101555.483
101555.754
101556.043
101556.351
101556.679
101557.027
101557.397
101557.788
101558.202
101558.64
101559.101
101559.585
101560.091
101560.614
101561.149
101561.688
101562.22
101562.728
101563.191
101563.584
101563.88
101564.089
101564.133
101551.9
101551.901
101551.902
101551.905
101551.909
101551.914
101551.919
101551.927
101551.935
101551.944
101551.955
101551.967
101551.98
101551.995
101552.01
101552.027
101552.046
101552.066
101552.087
101552.11
101552.134
101552.16
101552.188
101552.217
101552.249
101552.282
101552.317
101552.354
101552.393
101552.435
101552.479
101552.526
101552.574
101552.626
101552.681
101552.74
101552.802
101552.869
101552.939
101553.014
101553.093
101553.178
101553.267
101553.363
101553.467
101553.581
101553.704
101553.835
101553.977
101554.129
101554.293
101554.47
101554.66
101554.864
101555.084
101555.321
101555.574
101555.845
101556.133
101556.44
101556.767
101557.116
101557.493
101557.896
101558.326
101558.785
101559.273
101559.789
101560.335
101560.91
101561.513
101562.14
101562.785
101563.439
101564.088
101564.712
101565.286
101565.769
101566.137
101566.296
101552.232
101552.231
101552.23
101552.23
101552.231
101552.233
101552.237
101552.241
101552.246
101552.253
101552.261
101552.27
101552.28
101552.291
101552.304
101552.318
101552.333
101552.349
101552.367
101552.386
101552.406
101552.428
101552.452
101552.477
101552.503
101552.532
101552.562
101552.595
101552.628
101552.663
101552.7
101552.741
101552.786
101552.832
101552.882
101552.935
101552.991
101553.052
101553.117
101553.187
101553.263
101553.346
101553.435
101553.531
101553.633
101553.74
101553.856
101553.982
101554.118
101554.264
101554.423
101554.594
101554.779
101554.978
101555.194
101555.426
101555.676
101555.944
101556.23
101556.537
101556.864
101557.244
101557.674
101558.124
101558.599
101559.102
101559.635
101560.198
101560.792
101561.415
101562.069
101562.754
101563.472
101564.214
101564.969
101565.72
101566.443
101567.077
101567.574
101567.836
101552.43
101552.426
101552.421
101552.418
101552.416
101552.415
101552.415
101552.416
101552.418
101552.421
101552.425
101552.43
101552.437
101552.444
101552.452
101552.462
101552.473
101552.485
101552.499
101552.514
101552.53
101552.547
101552.566
101552.587
101552.608
101552.631
101552.655
101552.68
101552.708
101552.739
101552.773
101552.807
101552.843
101552.882
101552.923
101552.967
101553.016
101553.066
101553.121
101553.179
101553.243
101553.312
101553.387
101553.47
101553.561
101553.661
101553.769
101553.888
101554.018
101554.161
101554.317