/*--------------------------------*- C++ -*----------------------------------*\
  =========                 |
  \\      /  F ield         | OpenFOAM: The Open Source CFD Toolbox
   \\    /   O peration     | Website:  https://openfoam.org
    \\  /    A nd           | Version:  8
     \\/     M anipulation  |
\*---------------------------------------------------------------------------*/
FoamFile
{
    version     2.0;
    format      ascii;
    class       volScalarField;
    location    "0.057";
    object      p_rgh;
}
// * * * * * * * * * * * * * * * * * * * * * * * * * * * * * * * * * * * * * //

dimensions      [1 -1 -2 0 0 0 0];

internalField   nonuniform List<scalar> 
42400
(
101549.283
101549.27
101549.256
101549.243
101549.231
101549.22
101549.21
101549.2
101549.192
101549.185
101549.179
101549.174
101549.17
101549.167
101549.165
101549.164
101549.164
101549.166
101549.168
101549.171
101549.175
101549.18
101549.185
101549.191
101549.198
101549.206
101549.214
101549.223
101549.232
101549.242
101549.251
101549.262
101549.272
101549.283
101549.294
101549.305
101549.315
101549.325
101549.346
101549.379
101549.417
101549.434
101549.428
101549.418
101549.408
101549.413
101549.437
101549.464
101549.492
101549.522
101549.55
101549.574
101549.624
101549.698
101549.786
101549.85
101549.882
101549.944
101550.049
101550.18
101550.319
101550.475
101550.659
101550.882
101551.139
101551.434
101551.775
101552.057
101552.527
101553.142
101552.769
101552.834
101554.669
101554.947
101554.327
101553.134
101551.585
101557.227
101564.921
101566.082
101548.287
101548.277
101548.265
101548.255
101548.246
101548.238
101548.23
101548.223
101548.217
101548.212
101548.208
101548.205
101548.203
101548.202
101548.202
101548.203
101548.205
101548.208
101548.211
101548.216
101548.221
101548.228
101548.234
101548.242
101548.25
101548.259
101548.268
101548.278
101548.288
101548.298
101548.308
101548.318
101548.328
101548.338
101548.353
101548.376
101548.403
101548.432
101548.444
101548.434
101548.422
101548.424
101548.44
101548.458
101548.475
101548.494
101548.512
101548.53
101548.547
101548.586
101548.652
101548.692
101548.694
101548.713
101548.765
101548.84
101548.914
101548.992
101549.083
101549.195
101549.335
101549.502
101549.694
101549.918
101550.18
101550.491
101550.923
101551.295
101551.724
101552.683
101552.955
101552.647
101554.053
101554.778
101555.147
101558.047
101561.108
101563.201
101564.724
101566.368
101547.182
101547.174
101547.165
101547.158
101547.151
101547.145
101547.14
101547.136
101547.133
101547.13
101547.129
101547.128
101547.129
101547.13
101547.133
101547.136
101547.141
101547.147
101547.153
101547.161
101547.169
101547.179
101547.189
101547.201
101547.213
101547.226
101547.239
101547.253
101547.268
101547.283
101547.299
101547.318
101547.342
101547.369
101547.392
101547.403
101547.406
101547.408
101547.42
101547.442
101547.464
101547.486
101547.508
101547.528
101547.541
101547.568
101547.612
101547.672
101547.698
101547.691
101547.716
101547.766
101547.818
101547.866
101547.919
101547.981
101548.057
101548.148
101548.256
101548.382
101548.528
101548.699
101548.904
101549.15
101549.448
101549.794
101550.296
101550.88
101551.419
101552.376
101553.225
101553.351
101555.076
101557.617
101558.551
101559.34
101560.78
101563.457
101566.22
101567.597
101545.993
101545.987
101545.98
101545.975
101545.97
101545.966
101545.963
101545.961
101545.96
101545.96
101545.961
101545.964
101545.967
101545.971
101545.977
101545.984
101545.992
101546.002
101546.012
101546.024
101546.038
101546.052
101546.068
101546.085
101546.103
101546.122
101546.142
101546.164
101546.189
101546.215
101546.243
101546.268
101546.287
101546.305
101546.324
101546.349
101546.38
101546.412
101546.444
101546.476
101546.506
101546.53
101546.568
101546.633
101546.675
101546.684
101546.707
101546.748
101546.803
101546.851
101546.897
101546.947
101547.005
101547.071
101547.145
101547.229
101547.327
101547.442
101547.579
101547.742
101547.934
101548.15
101548.403
101548.711
101549.108
101549.607
101550.273
101551.092
101551.556
101552.428
101554.146
101556.844
101558.096
101558.686
101560.92
101562.352
101563.689
101565.285
101567.022
101568.649
101544.719
101544.714
101544.708
101544.704
101544.701
101544.698
101544.697
101544.696
101544.697
101544.699
101544.703
101544.707
101544.714
101544.721
101544.731
101544.742
101544.754
101544.768
101544.784
101544.802
101544.821
101544.841
101544.862
101544.885
101544.911
101544.939
101544.968
101544.999
101545.03
101545.062
101545.095
101545.132
101545.172
101545.213
101545.254
101545.296
101545.339
101545.381
101545.417
101545.466
101545.539
101545.59
101545.613
101545.653
101545.71
101545.765
101545.818
101545.872
101545.931
101545.994
101546.061
101546.134
101546.215
101546.307
101546.415
101546.541
101546.687
101546.861
101547.068
101547.312
101547.608
101547.933
101548.298
101548.678
101549.09
101549.461
101549.936
101551.599
101554.509
101556.371
101557.155
101558.037
101559.047
101560.689
101562.067
101563.222
101564.696
101566.368
101568.089
101569.499
101543.346
101543.34
101543.335
101543.331
101543.329
101543.327
101543.327
101543.328
101543.33
101543.334
101543.34
101543.347
101543.356
101543.368
101543.381
101543.396
101543.413
101543.432
101543.451
101543.473
101543.498
101543.527
101543.56
101543.594
101543.63
101543.668
101543.709
101543.751
101543.796
101543.842
101543.89
101543.939
101543.99
101544.043
101544.096
101544.144
101544.203
101544.283
101544.344
101544.381
101544.436
101544.505
101544.571
101544.635
101544.701
101544.769
101544.839
101544.913
101544.992
101545.078
101545.173
101545.282
101545.408
101545.555
101545.725
101545.924
101546.154
101546.422
101546.744
101547.143
101547.659
101548.261
101548.962
101549.591
101550.447
101552.25
101554.352
101555.322
101555.544
101556.15
101557.158
101558.453
101560.327
101561.815
101563.28
101564.844
101566.132
101567.398
101568.576
101570.005
101541.841
101541.836
101541.83
101541.827
101541.824
101541.824
101541.824
101541.827
101541.831
101541.837
101541.845
101541.855
101541.868
101541.883
101541.9
101541.92
101541.942
101541.968
101541.998
101542.03
101542.064
101542.101
101542.14
101542.182
101542.226
101542.273
101542.323
101542.376
101542.43
101542.488
101542.548
101542.609
101542.666
101542.734
101542.82
101542.889
101542.94
101543.008
101543.088
101543.164
101543.239
101543.315
101543.393
101543.473
101543.555
101543.643
101543.737
101543.839
101543.952
101544.08
101544.226
101544.398
101544.597
101544.829
101545.101
101545.417
101545.773
101546.188
101546.652
101547.19
101547.802
101548.523
101549.788
101551.693
101552.997
101553.764
101554.3
101555.053
101556.279
101557.661
101558.868
101559.923
101561.106
101562.879
101564.747
101565.762
101566.469
101567.62
101569.179
101570.628
101540.169
101540.163
101540.158
101540.155
101540.154
101540.154
101540.157
101540.162
101540.168
101540.177
101540.188
101540.202
101540.219
101540.238
101540.261
101540.286
101540.314
101540.346
101540.38
101540.418
101540.46
101540.504
101540.551
101540.602
101540.656
101540.713
101540.773
101540.837
101540.902
101540.965
101541.038
101541.127
101541.202
101541.263
101541.34
101541.428
101541.512
101541.595
101541.681
101541.768
101541.858
101541.951
101542.048
101542.15
101542.259
101542.377
101542.507
101542.653
101542.82
101543.013
101543.235
101543.49
101543.784
101544.117
101544.498
101544.935
101545.418
101545.938
101546.505
101547.145
101548.385
101550.269
101551.446
101551.756
101552.385
101553.5
101554.599
101555.881
101557.296
101558.417
101559.543
101560.875
101562.109
101563.58
101565.127
101566.584
101567.792
101569.093
101570.673
101572.387
101538.279
101538.275
101538.271
101538.269
101538.27
101538.273
101538.278
101538.285
101538.296
101538.309
101538.326
101538.345
101538.366
101538.391
101538.42
101538.451
101538.486
101538.525
101538.567
101538.613
101538.662
101538.716
101538.772
101538.833
101538.897
101538.961
101539.027
101539.101
101539.19
101539.269
101539.337
101539.42
101539.513
101539.603
101539.693
101539.787
101539.883
101539.981
101540.083
101540.189
101540.3
101540.417
101540.543
101540.679
101540.83
101541
101541.192
101541.414
101541.672
101541.97
101542.317
101542.717
101543.182
101543.722
101544.343
101545.059
101545.897
101546.734
101547.712
101549.172
101550.186
101550.642
101551.35
101552.202
101553.105
101554.248
101555.567
101556.881
101558.358
101559.644
101560.71
101562.061
101563.341
101564.862
101566.688
101568.097
101569.305
101570.876
101572.622
101574.107
101536.14
101536.137
101536.136
101536.137
101536.141
101536.147
101536.157
101536.169
101536.184
101536.202
101536.223
101536.248
101536.276
101536.307
101536.343
101536.382
101536.425
101536.472
101536.522
101536.577
101536.636
101536.698
101536.762
101536.832
101536.914
101537.002
101537.075
101537.148
101537.235
101537.331
101537.425
101537.521
101537.621
101537.724
101537.83
101537.94
101538.053
101538.172
101538.297
101538.43
101538.572
101538.727
101538.898
101539.088
101539.303
101539.548
101539.829
101540.151
101540.519
101540.935
101541.411
101541.953
101542.591
101543.337
101544.161
101545.07
101546.023
101547.054
101548.1
101548.993
101549.887
101550.949
101552.259
101553.386
101554.332
101555.544
101557.004
101558.369
101559.955
101561.285
101562.472
101563.774
101564.988
101566.116
101567.072
101568.404
101570.149
101571.77
101573.549
101575.19
101533.712
101533.713
101533.716
101533.721
101533.73
101533.741
101533.755
101533.773
101533.794
101533.818
101533.846
101533.878
101533.914
101533.954
101533.998
101534.046
101534.099
101534.156
101534.216
101534.28
101534.35
101534.43
101534.507
101534.583
101534.668
101534.76
101534.857
101534.954
101535.054
101535.159
101535.267
101535.379
101535.495
101535.616
101535.743
101535.876
101536.016
101536.167
101536.329
101536.505
101536.7
101536.917
101537.16
101537.434
101537.745
101538.097
101538.494
101538.936
101539.419
101539.945
101540.51
101541.072
101541.656
101542.364
101543.497
101544.927
101546.364
101547.595
101548.421
101549.419
101550.787
101551.733
101552.507
101553.57
101554.714
101555.786
101557.341
101558.959
101560.305
101561.518
101562.653
101563.735
101565.054
101566.415
101567.803
101569.451
101571.132
101572.768
101574.274
101575.967
101530.954
101530.96
101530.968
101530.979
101530.994
101531.011
101531.033
101531.058
101531.087
101531.12
101531.157
101531.198
101531.244
101531.294
101531.349
101531.408
101531.471
101531.539
101531.617
101531.695
101531.772
101531.858
101531.951
101532.047
101532.147
101532.251
101532.359
101532.472
101532.589
101532.711
101532.839
101532.972
101533.112
101533.261
101533.419
101533.589
101533.774
101533.977
101534.202
101534.452
101534.732
101535.048
101535.405
101535.808
101536.263
101536.774
101537.344
101537.978
101538.679
101539.464
101540.344
101541.251
101542.482
101544.133
101545.148
101545.729
101546.467
101547.381
101548.71
101549.988
101550.781
101551.948
101553.148
101554.02
101555.147
101556.493
101557.568
101559.051
101560.848
101562.152
101563.494
101565.003
101566.483
101568.046
101569.586
101571.114
101573.153
101575.326
101577.489
101579.135
101527.824
101527.836
101527.852
101527.87
101527.893
101527.919
101527.949
101527.983
101528.022
101528.065
101528.112
101528.165
101528.222
101528.283
101528.35
101528.425
101528.502
101528.58
101528.667
101528.76
101528.856
101528.957
101529.062
101529.173
101529.288
101529.408
101529.534
101529.665
101529.803
101529.948
101530.101
101530.264
101530.439
101530.628
101530.835
101531.062
101531.314
101531.596
101531.912
101532.267
101532.669
101533.122
101533.633
101534.207
101534.851
101535.566
101536.36
101537.232
101538.186
101539.205
101540.371
101541.739
101543.029
101543.825
101544.606
101545.615
101546.693
101547.899
101549.079
101550.212
101551.246
101552.185
101553.005
101554.225
101555.869
101557.716
101559.677
101560.791
101561.988
101563.659
101565.184
101566.822
101568.468
101570.146
101571.79
101573.607
101575.455
101577.104
101578.863
101580.831
101524.276
101524.296
101524.321
101524.349
101524.381
101524.417
101524.458
101524.503
101524.553
101524.607
101524.667
101524.733
101524.805
101524.879
101524.958
101525.043
101525.135
101525.23
101525.331
101525.437
101525.548
101525.664
101525.786
101525.913
101526.046
101526.185
101526.331
101526.486
101526.65
101526.825
101527.013
101527.218
101527.441
101527.687
101527.959
101528.262
101528.6
101528.979
101529.403
101529.876
101530.403
101530.986
101531.627
101532.325
101533.076
101533.862
101534.679
101535.514
101536.647
101538.223
101539.652
101541.001
101542.12
101543.103
101544.325
101545.652
101546.93
101547.878
101548.898
101550.092
101551.354
101552.771
101554.219
101555.763
101557.706
101559.227
101560.363
101561.416
101562.752
101564.668
101566.524
101568.368
101570.304
101572.162
101574.176
101576.531
101578.185
101579.227
101580.783
101582.656
101520.274
101520.304
101520.34
101520.379
101520.423
101520.471
101520.523
101520.581
101520.645
101520.712
101520.785
101520.863
101520.947
101521.037
101521.132
101521.231
101521.337
101521.447
101521.563
101521.685
101521.812
101521.946
101522.086
101522.233
101522.389
101522.554
101522.73
101522.919
101523.123
101523.346
101523.59
101523.86
101524.16
101524.495
101524.871
101525.292
101525.764
101526.292
101526.883
101527.539
101528.267
101529.068
101529.945
101530.904
101531.941
101533.05
101534.239
101535.894
101537.334
101538.081
101539.002
101540.051
101541.063
101542.354
101543.895
101545.057
101546.013
101547.432
101549.139
101550.652
101552.189
101553.842
101555.813
101557.289
101558.382
101559.69
101561.246
101562.801
101564.486
101566.298
101568.146
101570.031
101572.015
101573.968
101575.89
101577.48
101579.574
101581.846
101583.413
101584.703
101515.798
101515.839
101515.889
101515.942
101515.998
101516.06
101516.127
101516.199
101516.276
101516.359
101516.446
101516.54
101516.639
101516.743
101516.853
101516.969
101517.091
101517.218
101517.353
101517.494
101517.642
101517.799
101517.965
101518.143
101518.333
101518.537
101518.76
101519.003
101519.271
101519.568
101519.898
101520.266
101520.678
101521.14
101521.655
101522.23
101522.869
101523.576
101524.354
101525.205
101526.131
101527.129
101528.191
101529.331
101530.513
101531.717
101533.198
101534.401
101535.348
101536.588
101537.967
101539.433
101540.972
101542.465
101543.827
101545.151
101546.532
101548.147
101549.902
101551.275
101552.587
101553.989
101555.154
101556.444
101558.309
101560.115
101561.788
101563.507
101565.455
101567.623
101569.783
101571.897
101573.969
101576.002
101578.007
101580.123
101582.076
101583.6
101585.027
101586.556
101510.845
101510.9
101510.966
101511.033
101511.105
101511.182
101511.264
101511.351
101511.443
101511.541
101511.644
101511.753
101511.868
101511.988
101512.115
101512.249
101512.389
101512.536
101512.692
101512.857
101513.032
101513.22
101513.421
101513.639
101513.876
101514.136
101514.422
101514.738
101515.091
101515.483
101515.92
101516.408
101516.95
101517.552
101518.216
101518.946
101519.741
101520.602
101521.527
101522.51
101523.545
101524.617
101525.717
101527.151
101529.057
101531.024
101532.126
101533.04
101534.431
101535.873
101537.237
101538.745
101540.421
101542.054
101543.62
101545.047
101546.41
101547.681
101549.039
101551.055
101553.004
101554.423
101556.195
101558.16
101560.062
101562.145
101564.397
101566.995
101569.05
101570.459
101572.018
101573.695
101575.303
101577.155
101579.289
101581.19
101583.005
101585.228
101587.046
101589.051
101505.441
101505.511
101505.593
101505.677
101505.765
101505.857
101505.954
101506.057
101506.165
101506.278
101506.397
101506.523
101506.654
101506.793
101506.938
101507.092
101507.255
101507.428
101507.613
101507.812
101508.027
101508.26
101508.516
101508.797
101509.108
101509.455
101509.841
101510.272
101510.755
101511.294
101511.896
101512.565
101513.306
101514.123
101515.019
101515.995
101517.053
101518.191
101519.409
101520.687
101522.048
101523.509
101525.413
101527.434
101528.622
101529.472
101530.648
101532.354
101534.057
101535.729
101537.402
101539.06
101540.569
101541.895
101543.338
101545.183
101547.003
101548.934
101551.081
101552.827
101554.465
101556.238
101558.055
101559.947
101561.808
101563.842
101565.857
101567.442
101569.307
101571.701
101573.497
101575.457
101577.547
101579.159
101580.86
101583.13
101585.253
101587.328
101589.228
101591.07
101499.671
101499.756
101499.856
101499.957
101500.061
101500.17
101500.284
101500.403
101500.527
101500.658
101500.796
101500.94
101501.092
101501.254
101501.425
101501.607
101501.803
101502.014
101502.243
101502.494
101502.769
101503.072
101503.409
101503.785
101504.204
101504.673
101505.198
101505.784
101506.436
101507.161
101507.962
101508.843
101509.805
101510.851
101511.98
101513.19
101514.479
101515.834
101517.239
101518.699
101520.611
101523.04
101524.568
101525.48
101526.722
101528.54
101530.392
101532.174
101533.967
101535.78
101537.675
101539.311
101540.58
101542.213
101544.226
101546.001
101548.268
101550.167
101551.364
101552.554
101554.256
101556.591
101558.836
101561
101563.315
101565.35
101567.319
101569.362
101570.851
101572.444
101574.857
101577.16
101578.839
101580.717
101582.613
101584.715
101586.677
101588.105
101590.329
101593.25
101493.621
101493.723
101493.84
101493.957
101494.077
101494.201
101494.331
101494.466
101494.607
101494.755
101494.911
101495.076
101495.252
101495.439
101495.641
101495.859
101496.096
101496.357
101496.644
101496.962
101497.316
101497.711
101498.153
101498.648
101499.202
101499.822
101500.512
101501.278
101502.125
101503.057
101504.075
101505.181
101506.375
101507.655
101509.017
101510.452
101511.963
101513.522
101515.375
101517.833
101519.649
101520.575
101521.867
101523.796
101525.719
101527.564
101529.479
101531.425
101533.347
101535.24
101537.111
101538.991
101540.779
101542.654
101544.818
101546.69
101548.191
101549.87
101551.731
101553.624
101555.748
101558.072
101560.279
101562.349
101564.59
101566.918
101569.311
101571.781
101574.144
101575.938
101577.195
101579.142
101581.744
101583.808
101585.642
101587.932
101590.632
101592.026
101593.278
101595.094
101535.659
101535.663
101535.669
101535.676
101535.686
101535.697
101535.711
101535.727
101535.745
101535.765
101535.787
101535.812
101535.839
101535.868
101535.9
101535.934
101535.971
101536.011
101536.054
101536.1
101536.148
101536.2
101536.255
101536.314
101536.376
101536.442
101536.511
101536.585
101536.663
101536.745
101536.832
101536.924
101537.02
101537.122
101537.229
101537.342
101537.461
101537.586
101537.717
101537.855
101538
101538.151
101538.309
101538.475
101538.649
101538.829
101539.016
101539.21
101539.419
101539.646
101539.891
101540.153
101540.425
101540.701
101540.985
101541.281
101541.588
101541.907
101542.234
101542.568
101542.903
101543.233
101543.553
101543.852
101544.115
101544.329
101544.486
101544.58
101544.599
101544.535
101544.365
101544.055
101543.569
101542.921
101542.108
101541.118
101539.926
101538.693
101537.898
101536.76
101538.214
101538.218
101538.224
101538.233
101538.243
101538.255
101538.269
101538.286
101538.304
101538.325
101538.348
101538.373
101538.401
101538.43
101538.463
101538.498
101538.535
101538.576
101538.619
101538.665
101538.714
101538.766
101538.821
101538.88
101538.942
101539.007
101539.077
101539.15
101539.227
101539.308
101539.394
101539.485
101539.58
101539.679
101539.784
101539.895
101540.011
101540.133
101540.26
101540.394
101540.535
101540.683
101540.837
101541
101541.168
101541.344
101541.526
101541.715
101541.912
101542.116
101542.327
101542.54
101542.757
101542.984
101543.226
101543.484
101543.756
101544.039
101544.332
101544.635
101544.946
101545.245
101545.545
101545.872
101546.177
101546.443
101546.67
101546.833
101546.899
101546.851
101546.676
101546.408
101546.042
101545.57
101544.994
101544.309
101543.535
101542.799
101542.261
101541.204
101540.51
101540.515
101540.522
101540.531
101540.541
101540.554
101540.569
101540.585
101540.604
101540.625
101540.648
101540.673
101540.701
101540.73
101540.763
101540.797
101540.835
101540.874
101540.917
101540.962
101541.01
101541.061
101541.116
101541.173
101541.234
101541.298
101541.365
101541.436
101541.511
101541.59
101541.673
101541.76
101541.852
101541.948
101542.048
101542.154
101542.265
101542.38
101542.502
101542.628
101542.761
101542.9
101543.045
101543.196
101543.355
101543.52
101543.692
101543.873
101544.061
101544.256
101544.457
101544.663
101544.876
101545.097
101545.327
101545.567
101545.813
101546.065
101546.32
101546.575
101546.826
101547.078
101547.317
101547.523
101547.716
101547.886
101548.013
101548.127
101548.266
101548.421
101548.508
101548.409
101548.14
101547.713
101547.145
101546.444
101545.644
101544.789
101543.941
101542.922
101542.555
101542.56
101542.567
101542.576
101542.587
101542.599
101542.614
101542.631
101542.649
101542.67
101542.693
101542.717
101542.744
101542.774
101542.805
101542.839
101542.875
101542.914
101542.955
101542.999
101543.046
101543.095
101543.147
101543.203
101543.261
101543.323
101543.387
101543.455
101543.527
101543.602
101543.681
101543.764
101543.851
101543.942
101544.037
101544.136
101544.24
101544.349
101544.462
101544.581
101544.705
101544.834
101544.968
101545.108
101545.254
101545.406
101545.564
101545.729
101545.9
101546.077
101546.262
101546.454
101546.653
101546.861
101547.075
101547.295
101547.518
101547.745
101547.974
101548.203
101548.431
101548.654
101548.874
101549.077
101549.257
101549.413
101549.537
101549.593
101549.566
101549.44
101549.283
101549.141
101549.025
101548.86
101548.516
101547.975
101547.137
101545.997
101544.752
101543.484
101544.357
101544.363
101544.37
101544.379
101544.39
101544.402
101544.417
101544.433
101544.451
101544.471
101544.493
101544.518
101544.544
101544.572
101544.602
101544.635
101544.67
101544.707
101544.747
101544.789
101544.833
101544.881
101544.931
101544.983
101545.039
101545.097
101545.159
101545.223
101545.291
101545.362
101545.436
101545.514
101545.596
101545.681
101545.77
101545.863
101545.96
101546.062
101546.167
101546.277
101546.392
101546.511
101546.636
101546.765
101546.899
101547.039
101547.183
101547.334
101547.489
101547.65
101547.816
101547.988
101548.164
101548.346
101548.532
101548.722
101548.916
101549.113
101549.313
101549.515
101549.717
101549.919
101550.117
101550.308
101550.49
101550.657
101550.803
101550.924
101550.978
101550.943
101550.798
101550.524
101550.105
101549.614
101549.09
101548.529
101547.968
101547.322
101546.434
101545.327
101545.93
101545.935
101545.942
101545.951
101545.962
101545.974
101545.988
101546.004
101546.021
101546.041
101546.062
101546.085
101546.11
101546.137
101546.166
101546.197
101546.231
101546.266
101546.304
101546.344
101546.386
101546.431
101546.478
101546.528
101546.58
101546.635
101546.693
101546.754
101546.818
101546.884
101546.954
101547.027
101547.103
101547.183
101547.266
101547.353
101547.444
101547.538
101547.636
101547.739
101547.846
101547.956
101548.072
101548.192
101548.316
101548.446
101548.58
101548.719
101548.863
101549.012
101549.166
101549.325
101549.489
101549.657
101549.83
101550.007
101550.188
101550.373
101550.562
101550.753
101550.946
101551.14
101551.333
101551.523
101551.708
101551.883
101552.043
101552.179
101552.282
101552.341
101552.341
101552.264
101552.037
101551.616
101551.07
101550.351
101549.401
101548.384
101547.346
101546.445
101547.285
101547.29
101547.298
101547.306
101547.316
101547.328
101547.341
101547.356
101547.373
101547.391
101547.412
101547.434
101547.457
101547.483
101547.511
101547.54
101547.571
101547.605
101547.641
101547.678
101547.718
101547.76
101547.805
101547.851
101547.901
101547.952
101548.007
101548.064
101548.123
101548.186
101548.251
101548.32
101548.391
101548.466
101548.544
101548.625
101548.71
101548.798
101548.89
101548.987
101549.087
101549.191
101549.3
101549.413
101549.53
101549.653
101549.78
101549.913
101550.05
101550.193
101550.341
101550.494
101550.653
101550.817
101550.986
101551.16
101551.34
101551.524
101551.713
101551.907
101552.105
101552.307
101552.512
101552.719
101552.925
101553.129
101553.325
101553.508
101553.671
101553.803
101553.892
101553.924
101553.881
101553.752
101553.459
101552.99
101552.317
101551.345
101550.164
101548.996
101548.438
101548.443
101548.45
101548.458
101548.467
101548.478
101548.491
101548.505
101548.521
101548.538
101548.557
101548.578
101548.6
101548.624
101548.65
101548.677
101548.707
101548.738
101548.771
101548.806
101548.844
101548.883
101548.925
101548.968
101549.014
101549.063
101549.113
101549.166
101549.222
101549.281
101549.342
101549.406
101549.473
101549.543
101549.616
101549.692
101549.772
101549.856
101549.943
101550.034
101550.129
101550.228
101550.332
101550.441
101550.554
101550.672
101550.796
101550.926
101551.061
101551.202
101551.349
101551.503
101551.663
101551.829
101552.003
101552.183
101552.37
101552.565
101552.766
101552.974
101553.19
101553.414
101553.644
101553.881
101554.124
101554.371
101554.619
101554.865
101555.103
101555.323
101555.515
101555.665
101555.754
101555.761
101555.661
101555.439
101555.079
101554.587
101553.82
101552.815
101549.402
101549.406
101549.412
101549.419
101549.428
101549.438
101549.45
101549.463
101549.477
101549.493
101549.51
101549.529
101549.55
101549.572
101549.596
101549.622
101549.649
101549.678
101549.708
101549.741
101549.775
101549.812
101549.85
101549.891
101549.933
101549.978
101550.025
101550.075
101550.126
101550.181
101550.238
101550.298
101550.36
101550.425
101550.494
101550.566
101550.642
101550.721
101550.803
101550.89
101550.981
101551.077
101551.178
101551.283
101551.394
101551.511
101551.633
101551.762
101551.898
101552.041
101552.191
101552.349
101552.515
101552.689
101552.872
101553.065
101553.266
101553.478
101553.699
101553.931
101554.173
101554.427
101554.692
101554.969
101555.258
101555.558
101555.867
101556.183
101556.503
101556.82
101557.126
101557.408
101557.652
101557.837
101557.941
101557.944
101557.83
101557.584
101557.158
101556.556
101550.192
101550.196
101550.201
101550.207
101550.214
101550.223
101550.233
101550.245
101550.258
101550.272
101550.288
101550.305
101550.323
101550.343
101550.365
101550.388
101550.413
101550.439
101550.467
101550.497
101550.528
101550.562
101550.597
101550.634
101550.673
101550.714
101550.757
101550.803
101550.85
101550.9
101550.953
101551.008
101551.066
101551.127
101551.192
101551.259
101551.33
101551.404
101551.483
101551.566
101551.654
101551.746
101551.844
101551.947
101552.056
101552.172
101552.294
101552.424
101552.562
101552.708
101552.863
101553.027
101553.201
101553.386
101553.581
101553.788
101554.007
101554.239
101554.484
101554.743
101555.016
101555.304
101555.608
101555.929
101556.267
101556.622
101556.995
101557.383
101557.785
101558.197
101558.613
101559.025
101559.42
101559.783
101560.094
101560.328
101560.468
101560.502
101560.405
101560.147
101550.823
101550.825
101550.829
101550.834
101550.839
101550.846
101550.855
101550.864
101550.875
101550.888
101550.901
101550.916
101550.932
101550.95
101550.969
101550.989
101551.011
101551.034
101551.059
101551.085
101551.113
101551.143
101551.175
101551.208
101551.243
101551.28
101551.318
101551.359
101551.402
101551.448
101551.495
101551.546
101551.599
101551.656
101551.716
101551.778
101551.844
101551.915
101551.99
101552.069
101552.153
101552.243
101552.337
101552.438
101552.545
101552.659
101552.781
101552.911
101553.05
101553.199
101553.358
101553.527
101553.709
101553.903
101554.11
101554.331
101554.567
101554.819
101555.088
101555.374
101555.679
101556.004
101556.348
101556.714
101557.101
101557.509
101557.941
101558.396
101558.872
101559.368
101559.88
101560.403
101560.929
101561.444
101561.933
101562.374
101562.743
101563.013
101563.195
101563.198
101551.303
101551.304
101551.305
101551.308
101551.312
101551.316
101551.322
101551.33
101551.338
101551.347
101551.358
101551.37
101551.383
101551.397
101551.413
101551.43
101551.448
101551.467
101551.489
101551.511
101551.535
101551.561
101551.589
101551.618
101551.649
101551.682
101551.716
101551.753
101551.792
101551.834
101551.878
101551.923
101551.972
101552.023
101552.078
101552.136
101552.198
101552.264
101552.333
101552.408
101552.487
101552.571
101552.66
101552.756
101552.86
101552.973
101553.095
101553.226
101553.366
101553.518
101553.682
101553.858
101554.047
101554.251
101554.47
101554.705
101554.957
101555.226
101555.512
101555.817
101556.143
101556.491
101556.866
101557.266
101557.694
101558.148
101558.631
101559.142
101559.68
101560.247
101560.839
101561.453
101562.082
101562.716
101563.341
101563.937
101564.478
101564.924
101565.252
101565.361
101551.655
101551.654
101551.653
101551.653
101551.654
101551.656
101551.66
101551.664
101551.669
101551.676
101551.684
101551.693
101551.703
101551.714
101551.727
101551.741
101551.756
101551.772
101551.79
101551.809
101551.829
101551.851
101551.874
101551.899
101551.926
101551.954
101551.985
101552.017
101552.051
101552.086
101552.123
101552.164
101552.208
101552.254
101552.304
101552.357
101552.413
101552.474
101552.54
101552.61
101552.686
101552.769
101552.858
101552.954
101553.055
101553.163
101553.279
101553.405
101553.541
101553.688
101553.847
101554.019
101554.204
101554.404
101554.619
101554.852
101555.102
101555.369
101555.656
101555.965
101556.301
101556.686
101557.112
101557.559
101558.032
101558.532
101559.061
101559.619
101560.206
101560.822
101561.467
101562.141
101562.843
101563.566
101564.296
101565.017
101565.702
101566.294
101566.748
101566.97
101551.872
101551.867
101551.863
101551.86
101551.858
101551.857
101551.857
101551.858
101551.86
101551.863
101551.867
101551.873
101551.879
101551.886
101551.895
101551.905
101551.916
101551.928
101551.942
101551.957
101551.973
101551.99
101552.009
101552.03
101552.052
101552.074
101552.098
101552.124
101552.152
101552.184
101552.218
101552.253
101552.289
101552.328
101552.369
101552.414
101552.463
101552.514
101552.569
101552.629
101552.693
101552.763
101552.839
101552.924
101553.016
101553.116
101553.226
101553.347
101553.479
101553.624