/*--------------------------------*- C++ -*----------------------------------*\
  =========                 |
  \\      /  F ield         | OpenFOAM: The Open Source CFD Toolbox
   \\    /   O peration     | Website:  https://openfoam.org
    \\  /    A nd           | Version:  8
     \\/     M anipulation  |
\*---------------------------------------------------------------------------*/
FoamFile
{
    version     2.0;
    format      ascii;
    class       volScalarField;
    location    "0.057";
    object      T;
}
// * * * * * * * * * * * * * * * * * * * * * * * * * * * * * * * * * * * * * //

dimensions      [0 0 0 1 0 0 0];

internalField   nonuniform List<scalar> 
42400
(
472.155171
470.447109
468.69475
466.897503
465.054861
463.166419
461.231892
459.251138
457.224183
455.151248
453.032777
450.869467
448.662308
446.412609
444.122041
441.79267
439.426998
437.027992
434.599124
432.144399
429.668382
427.176218
424.673643
422.166994
419.663196
417.169745
414.694681
412.246533
409.834267
407.467206
405.154948
402.907274
400.734016
398.644906
396.64941
394.756566
392.974816
391.311878
389.774649
388.369175
387.100671
385.973404
384.990615
384.154509
383.466169
382.92553
382.531304
382.281054
382.174204
382.19851
382.35198
382.625652
383.010252
383.493145
384.058896
384.687767
385.356381
386.0347
386.702307
387.363068
387.766294
387.857175
387.647452
386.947252
385.98805
384.67802
382.923106
380.570877
377.472316
373.768156
369.751249
364.343962
358.054718
352.820426
346.962524
339.379443
331.431774
325.573246
319.660723
315.173687
472.19206
470.558576
468.88274
467.164002
465.401899
463.596073
461.746287
459.852454
457.914656
455.933173
453.908512
451.84144
449.733017
447.584626
445.398018
443.175339
440.919174
438.632574
436.319098
433.982838
431.628443
429.261145
426.886768
424.511732
422.14305
419.788306
417.455628
415.153641
412.891406
410.678342
408.524138
406.438641
404.431734
402.513205
400.692609
398.979134
397.38148
395.907714
394.565126
393.360053
392.297721
391.382085
390.615692
389.999597
389.533204
389.214114
389.037829
388.997834
389.084399
389.287823
389.59319
389.981913
390.432384
390.91517
391.403013
391.873437
392.259219
392.388451
392.240628
391.634175
390.804493
389.685531
388.203706
386.233271
383.665564
380.422758
376.462525
371.870296
366.534512
360.584937
354.747629
348.348923
340.897036
334.105411
328.192382
321.987776
316.032923
310.555247
306.331562
302.769281
472.239696
470.702526
469.125531
467.508225
465.850215
464.151215
462.411067
460.629765
458.80748
456.944584
455.04168
453.099637
451.119617
449.103111
447.051977
444.968471
442.85528
440.715563
438.552973
436.37169
434.176444
431.972532
429.765826
427.562777
425.370409
423.19629
421.048508
418.935612
416.866556
414.850618
412.897306
411.016262
409.217156
407.509539
405.90269
404.405434
403.025977
401.77165
400.648697
399.662014
398.814947
398.109074
397.543959
397.116773
396.822115
396.652417
396.596261
396.635843
396.75361
396.926491
397.128706
397.336244
397.517381
397.513275
397.310198
396.770515
395.924205
394.851362
393.484289
391.747356
389.508042
386.70663
383.299712
379.236592
374.518936
369.171869
363.22663
356.895245
350.268135
343.316902
336.589632
330.325704
323.969396
317.933245
312.750149
308.459871
304.770481
301.83742
300.276396
299.917985
472.294716
470.868789
469.405961
467.905826
466.368075
464.792514
463.179084
461.527885
459.839198
458.113514
456.351561
454.554333
452.723126
450.859566
448.965643
447.043745
445.096685
443.127738
441.140661
439.139721
437.12971
435.115956
433.104328
431.10123
429.113583
427.148802
425.214749
423.319687
421.472205
419.681121
417.955376
416.303908
414.735497
413.258561
411.880946
410.609675
409.450693
408.40859
407.486305
406.684813
406.002734
405.436025
404.978151
404.618576
404.342697
404.134129
403.973586
403.842056
403.675477
403.398684
402.960665
402.303298
401.382559
400.273654
398.918557
397.252923
395.185567
392.63844
389.569676
385.94501
381.750792
376.974086
371.643824
365.811851
359.55466
352.994907
346.216537
339.402859
332.803286
326.458032
320.489394
315.215081
310.717912
306.899607
303.931003
301.432809
300.244904
299.980862
299.916031
299.887221
472.353353
471.045986
469.704839
468.329593
466.920034
465.47607
463.997752
462.485296
460.939107
459.359804
457.748248
456.105569
454.433198
452.732894
451.006775
449.257345
447.487519
445.70065
443.900547
442.091487
440.278226
438.466002
436.660522
434.867943
433.094843
431.348171
429.635187
427.963375
426.340338
424.773666
423.270775
421.838722
420.483976
419.212179
418.027868
416.934169
415.932462
415.022009
414.199598
413.459497
412.792659
412.186992
411.628618
411.096892
410.538296
409.913651
409.178281
408.282236
407.225347
406.007316
404.581035
402.894327
400.877285
398.457678
395.59601
392.259259
388.425136
384.083019
379.237948
373.895682
368.107829
361.961773
355.552492
348.985761
342.356235
335.821393
329.519913
323.564666
318.119689
313.303743
309.180988
305.817019
303.273128
301.502042
300.278174
299.978883
299.902226
299.885345
299.878523
299.880324
472.411366
471.221295
470.000538
468.748863
467.466148
466.152403
464.807784
463.432612
462.027402
460.592882
459.130017
457.640037
456.12446
454.585118
453.024178
451.444162
449.84797
448.238884
446.620584
444.99714
443.373011
441.753024
440.142338
438.546407
436.97091
435.421674
433.904566
432.425359
430.989581
429.602328
428.268052
426.990309
425.77149
424.612531
423.512572
422.468619
421.475443
420.525032
419.606571
418.699866
417.779459
416.816209
415.778074
414.635212
413.387433
412.001904
410.441825
408.664091
406.611506
404.230955
401.485125
398.340948
394.772358
390.763157
386.308367
381.415489
376.106439
370.403732
364.358752
358.047585
351.573163
345.065392
338.644367
332.425073
326.504675
320.99844
316.022944
311.667211
307.996841
305.066428
302.870836
301.407026
300.442837
299.989963
299.902523
299.892226
299.887273
299.879337
299.864764
299.85108
472.463869
471.379956
470.268155
469.128311
467.960378
466.764439
465.54072
464.289608
463.011672
461.707679
460.378616
459.025708
457.650438
456.254558
454.840106
453.409413
451.965107
450.51011
449.047623
447.581113
446.11427
444.650969
443.195197
441.750979
440.322271
438.912839
437.526102
436.164962
434.8316
433.52725
432.25194
431.004208
429.780796
428.576448
427.383465
426.190976
424.98322
423.742018
422.447903
421.083867
419.628633
418.057052
416.339276
414.438382
412.31049
409.921659
407.238113
404.228572
400.866354
397.130977
393.009641
388.498555
383.604311
378.344373
372.747072
366.84958
360.708622
354.400459
348.010458
341.629816
335.383457
329.405147
323.813387
318.695035
314.134331
310.197345
306.929406
304.356158
302.45651
301.167498
300.376075
299.968203
299.877893
299.86797
299.872295
299.871418
299.857627
299.842308
299.831529
299.829359
472.505551
471.50591
470.480595
469.429492
468.352589
467.249988
466.121918
464.968746
463.790994
462.589348
461.36467
460.118009
458.85061
457.563911
456.259549
454.939347
453.605303
452.259565
450.904395
449.542127
448.175102
446.805595
445.435718
444.067302
442.701761
441.339933
439.981896
438.626767
437.272488
435.915603
434.551062
433.171954
431.769267
430.331723
428.845491
427.29457
425.662426
423.92875
422.068319
420.054249
417.85972
415.456885
412.817612
409.914351
406.721903
403.218888
399.388668
395.220604
390.711199
385.865037
380.695936
375.227192
369.491719
363.531415
357.389833
351.145588
344.894424
338.731395
332.746926
327.038185
321.720064
316.890759
312.646285
309.042099
306.115242
303.853041
302.20311
301.085466
300.403227
300.035535
299.907768
299.87072
299.860009
299.852589
299.841366
299.834644
299.832117
299.829645
299.829546
299.829415
472.531282
471.583654
470.61169
469.615266
468.594338
467.548947
466.479227
465.385411
464.267837
463.12695
461.963301
460.77755
459.570454
458.342857
457.095674
455.829859
454.546372
453.246135
451.929968
450.598514
449.252287
447.891531
446.516068
445.125151
443.717303
442.290116
440.840024
439.361973
437.84895
436.292942
434.684526
433.012441
431.263514
429.422572
427.472503
425.394451
423.168054
420.771742
418.183205
415.380005
412.340201
409.043465
405.472281
401.612633
397.455013
392.995407
388.236199
383.187002
377.865397
372.297489
366.518564
360.572243
354.506774
348.384615
342.286774
336.306516
330.549229
325.117782
320.10148
315.58037
311.623176
308.283767
305.596196
303.544522
302.073639
301.092644
300.486986
300.151528
299.987229
299.918023
299.88522
299.864775
299.848635
299.837657
299.833091
299.832424
299.831122
299.829075
299.829324
299.829953
472.537084
471.601147
470.641081
469.656671
468.647752
467.614207
466.555968
465.473016
464.365376
463.233111
462.076313
460.895087
459.689531
458.459712
457.20563
455.927188
454.624158
453.296124
451.94241
450.561998
449.153279
447.713951
446.240869
444.729831
443.175286
441.570103
439.907522
438.179732
436.37816
434.49224
432.509553
430.416272
428.197266
425.836243
423.315994
420.618707
417.726371
414.621221
411.286459
407.707276
403.871319
399.769512
395.396885
390.753423
385.844904
380.683694
375.289472
369.69003
363.921856
358.030646
352.070237
346.096723
340.185086
334.424252
328.902882
323.711872
318.944699
314.688482
311.009635
307.930997
305.45249
303.546355
302.160028
301.213888
300.614449
300.267373
300.077863
299.976873
299.92226
299.889439
299.867018
299.851874
299.842535
299.836014
299.831851
299.830279
299.828323
299.82681
299.82742
299.828864
472.522899
471.558251
470.568643
469.553748
468.513253
467.446847
466.354218
465.235043
464.088974
462.91563
461.714582
460.485333
459.227294
457.939633
456.620321
455.266867
453.877322
452.449406
450.980352
449.466836
447.904909
446.289975
444.616761
442.879312
441.07119
439.185546
437.213045
435.143294
432.964903
430.665493
428.231784
425.649744
422.904804
419.982125
416.866918
413.544873
410.003006
406.229989
402.216794
397.957391
393.449504
388.69541
383.70277
378.485483
373.064501
367.468589
361.735102
355.910702
350.051534
344.222676
338.491431
332.937881
327.647182
322.710224
318.203093
314.187535
310.715096
307.818053
305.501484
303.715504
302.392799
301.457079
300.827068
300.419651
300.168112
300.021475
299.933692
299.883686
299.85731
299.843718
299.836867
299.833411
299.830795
299.827812
299.825206
299.825452
299.826032
299.825373
299.823653
299.823817
472.488622
471.454633
470.393768
469.305545
468.189441
467.04488
465.871223
464.66775
463.432866
462.165147
460.863116
459.525035
458.148857
456.732294
455.273685
453.771153
452.221502
450.620959
448.965219
447.249384
445.467877
443.614439
441.682061
439.662921
437.548385
435.328998
432.994485
430.533811
427.93528
425.186669
422.27541
419.188813
415.914324
412.440192
408.755719
404.851774
400.721371
396.360326
391.767983
386.948008
381.909248
376.666617
371.241984
365.664977
359.97361
354.214789
348.444658
342.728382
337.138822
331.75289
326.651202
321.911182
317.602257
313.779444
310.48059
307.721709
305.494658
303.767784
302.484578
301.564663
300.925817
300.49307
300.21172
300.022648
299.91836
299.863164
299.846122
299.840998
299.836988
299.83329
299.832209
299.831041
299.829388
299.82701
299.823497
299.823087
299.823727
299.823901
299.820638
299.816203
472.435114
471.292876
470.120753
468.918016
467.683828
466.417227
465.11656
463.780305
462.407462
460.996447
459.545247
458.051553
456.512727
454.925767
453.287269
451.593377
449.839728
448.02139
446.132851
444.167972
442.119934
439.981241
437.743712
435.398484
432.936048
430.346298
427.618616
424.741991
421.705175
418.496872
415.106137
411.522682
407.737248
403.742087
399.531519
395.102573
390.455718
385.595663
380.532224
375.281226
369.865391
364.315141
358.669216
352.974929
347.287965
341.671905
336.196928
330.938081
325.971066
321.36874
317.196411
313.502345
310.318529
307.64752
305.474651
303.766673
302.474102
301.535908
300.884935
300.452994
300.177267
300.005954
299.904372
299.875285
299.86174
299.853423
299.844178
299.838587
299.834645
299.831757
299.830025
299.828811
299.827073
299.823691
299.818021
299.812565
299.809947
299.81093
299.8136
299.813357
472.366977
471.086919
469.773219
468.42491
467.040856
465.619606
464.15982
462.659763
461.117441
459.530564
457.896508
456.212287
454.474507
452.67933
450.822441
448.899013
446.903674
444.830468
442.672842
440.423638
438.075086
435.618819
433.045907
430.346904
427.511934
424.530796
421.393114
418.088564
414.607187
410.939661
407.077696
403.014508
398.745369
394.268251
389.584551
384.699893
379.624991
374.376523
368.977992
363.460458
357.863082
352.23333
346.626664
341.105552
335.737801
330.594124
325.744903
321.257077
317.188671
313.581657
310.462947
307.841218
305.703998
304.011143
302.708335
301.737806
301.041429
300.563605
300.25244
300.063194
299.954699
299.905839
299.885705
299.873425
299.862243
299.852363
299.842234
299.833531
299.827528
299.823948
299.821953
299.820761
299.819129
299.816112
299.811472
299.805475
299.802865
299.803796
299.808962
299.812743
472.287956
470.848083
469.370275
467.853346
466.295884
464.696229
463.05266
461.363033
459.624884
457.835391
455.991339
454.089085
452.124528
450.093068
447.989581
445.808396
443.543279
441.187419
438.733437
436.173395
433.498832
430.700817
427.770029
424.696865
421.471587
418.084581
414.526577
410.788966
406.864193
402.746216
398.431062
393.917455
389.207533
384.307631
379.229107
373.989181
368.611717
363.127882
357.576578
352.004523
346.465851
341.021127
335.735566
330.676492
325.910173
321.49763
317.491034
313.929045
310.834313
308.2122
306.051622
304.323471
302.986065
301.985077
301.259987
300.752727
300.408687
300.182646
300.042931
299.961279
299.914779
299.887514
299.868069
299.854985
299.844802
299.836729
299.831247
299.826219
299.821686
299.81772
299.81452
299.812279
299.810478
299.8087
299.806383
299.804321
299.802834
299.802525
299.803399
299.808439
472.200221
470.582918
468.922942
467.218887
465.469062
463.671639
461.824473
459.925015
457.970337
455.957099
453.881511
451.739303
449.525698
447.235387
444.86251
442.400651
439.842842
437.181574
434.408835
431.516165
428.494735
425.335458
422.029154
418.566762
414.939578
411.139574
407.15978
402.99474
398.641049
394.097971
389.368124
384.458234
379.379913
374.150442
368.793485
363.339666
357.826918
352.300478
346.812426
341.420645
336.187116
331.175585
326.448437
322.063317
318.069591
314.50447
311.390828
308.732746
306.520211
304.725699
303.309599
302.224187
301.419891
300.846647
300.455197
300.199726
300.039434
299.944277
299.89339
299.865597
299.854433
299.850134
299.846859
299.840568
299.835943
299.831759
299.827275
299.822614
299.817894
299.813026
299.808035
299.803892
299.802676
299.801709
299.802342
299.803259
299.80542
299.802161
299.798475
299.797709
472.10515
470.295582
468.438226
466.531495
464.573534
462.562143
460.494758
458.368419
456.179734
453.924846
451.599402
449.198532
446.716825
444.148325
441.486531
438.724412
435.854442
432.868654
429.758723
426.516072
423.132042
419.598085
415.906005
412.048275
408.018401
403.811374
399.42418
394.856396
390.110843
385.1943
380.118231
374.899518
369.561107
364.132538
358.650227
353.157439
347.703816
342.344374
337.137902
332.144751
327.424035
323.030581
319.011376
315.403202
312.228109
309.494851
307.19657
305.31121
303.803837
302.631319
301.745454
301.096011
300.635495
300.321425
300.117537
299.991723
299.923259
299.893108
299.87463
299.863044
299.854525
299.849133
299.844051
299.839308
299.834606
299.830257
299.824379
299.817311
299.810408
299.804159
299.799623
299.797389
299.797341
299.799206
299.80032
299.800218
299.804693
299.808938
299.803233
299.796968
472.003854
469.989433
467.92179
465.799127
463.619301
461.379795
459.07768
456.709579
454.271639
451.759502
449.168284
446.492566
443.726388
440.863267
437.896226
434.817849
431.620354
428.295708
424.835775
421.232508
417.478187
413.565716
409.488979
405.243265
400.825762
396.236113
391.477039
386.555003
381.480901
376.270732
370.946214
365.535256
360.072229
354.597936
349.159188
343.807906
338.599669
333.591713
328.840414
324.39845
320.311738
316.616958
313.338199
310.486863
308.061302
306.046422
304.414778
303.127153
302.138931
301.403161
300.87289
300.503788
300.255964
300.095854
299.995871
299.936954
299.902111
299.88036
299.863755
299.852202
299.843617
299.837999
299.833758
299.829496
299.82451
299.819519
299.81597
299.814146
299.810157
299.804498
299.800535
299.798156
299.797594
299.797807
299.799187
299.798489
299.799521
299.808844
299.819491
299.820849
471.897217
469.66714
467.378106
465.028089
462.614675
460.135028
457.585858
454.963389
452.26334
449.480901
446.610736
443.646987
440.583302
437.412879
434.128542
430.722839
427.188181
423.517027
419.702105
415.736693
411.614955
407.332341
402.88605
398.275553
393.503176
388.574728
383.50014
378.294109
372.976667
367.573651
362.11697
356.644616
351.200317
345.832765
340.594372
335.53953
330.722408
326.194379
322.001207
318.180537
314.759609
311.753832
309.165081
306.985203
305.191604
303.751282
302.625407
301.770582
301.141139
300.692534
300.383774
300.178685
300.047114
299.965468
299.91566
299.884345
299.863344
299.850027
299.842412
299.837372
299.835501
299.832537
299.828702
299.824709
299.821244
299.818101
299.816072
299.814126
299.810925
299.806905
299.802449
299.798787
299.797553
299.797792
299.801861
299.801714
299.800389
299.804802
299.816833
299.824184
471.786286
469.331868
466.81253
464.22602
461.56966
458.840311
456.034352
453.147656
450.175578
447.112961
443.954149
440.693028
437.323088
433.83751
430.229291
426.491412
422.617041
418.599793
414.434041
410.115286
405.640586
401.009045
396.222355
391.285384
386.206783
380.999593
375.681805
370.276825
364.813777
359.32758
353.858707
348.45257
343.158473
338.028112
333.113651
328.465478
324.129766
320.146069
316.54493
313.345821
310.557049
308.176626
306.189043
304.567162
303.275619
302.27309
301.515625
300.960168
300.565765
300.294846
300.115115
300.000074
299.929028
299.886765
299.862781
299.849825
299.844455
299.841878
299.839586
299.837576
299.835074
299.831775
299.827646
299.82341
299.819617
299.816423
299.813978
299.812365
299.811245
299.811444
299.811177
299.804333
299.800975
299.801872
299.809237
299.814971
299.813348
299.808262
299.812806
299.817685
472.574428
471.713943
470.83103
469.925266
468.996222
468.043456
467.066514
466.064931
465.038228
463.98591
462.907471
461.802384
460.670104
459.510062
458.321663
457.104283
455.857262
454.579902
453.271457
451.931133
450.558077
449.151371
447.710023
446.232958
444.719035
443.167029
441.575624
439.94341
438.268873
436.550397
434.786252
432.974599
431.113482
429.200829
427.234446
425.212023
423.131123
420.989189
418.783542
416.511389
414.169825
411.755838
409.266325
406.698126
404.048129
401.31333
398.490983
395.578752
392.574846
389.478414
386.289946
383.011791
379.648768
376.208961
372.704229
369.15113
365.571473
361.992912
358.446993
354.965486
351.581938
348.329098
345.235789
342.323745
339.605278
337.08289
334.751743
332.605964
330.646862
328.8899
327.364748
326.106357
325.136261
324.447052
324.029715
323.832284
323.788783
323.925696
324.219753
324.639687
472.571637
471.705566
470.817038
469.905713
468.97124
468.013261
467.031409
466.025303
464.994553
463.938752
462.857482
461.750307
460.616771
459.456397
458.268684
457.053098
455.809077
454.536015
453.233269
451.900146
450.535901
449.139735
447.710789
446.248145
444.750787
443.217625
441.647486
440.039111
438.391153
436.702167
434.970608
433.194816
431.373062
429.503589
427.584575
425.614135
423.590328
421.511161
419.37459
417.178536
414.920884
412.599488
410.21218
407.756785
405.23114
402.633103
399.960587
397.211599
394.38431
391.477253
388.489539
385.421116
382.273178
379.048695
375.752789
372.393835
368.984296
365.541734
362.089445
358.653415
355.263783
351.953303
348.754887
345.698354
342.806872
340.094153
337.563923
335.212761
333.035383
331.031204
329.210802
327.599201
326.232073
325.144989
324.362715
323.888645
323.738212
323.752452
323.904695
324.314632
472.566568
471.690305
470.791438
469.869703
468.924832
467.956551
466.964575
465.948616
464.908371
463.843528
462.753764
461.638739
460.498097
459.331462
458.138432
456.91858
455.671444
454.396523
453.093275
451.761106
450.39937
449.007358
447.584297
446.129345
444.641585
443.120025
441.563598
439.971164
438.341515
436.673384
434.965464
433.216426
431.424799
429.589071
427.707698
425.779101
423.801667
421.773728
419.693499
417.559436
415.370052
413.123911
410.819631
408.455884
406.031408
403.545001
400.995521
398.381886
395.703089
392.958239
390.146593
387.267606
384.321073
381.307335
378.227565
375.08456
371.88341
368.632472
365.344525
362.037606
358.734644
355.463143
352.25397
349.139159
346.148805
343.307744
340.632916
338.130696
335.798522
333.626728
331.609814
329.753042
328.075973
326.610905
325.398799
324.480574
323.883538
323.672503
323.735294
323.935507
472.558936
471.667297
470.75277
469.815169
468.854304
467.869982
466.86201
465.830187
464.774305
463.694153
462.589509
461.460141
460.305802
459.126234
457.921154
456.690256
455.433204
454.149627
452.83911
451.501189
450.135345
448.740996
447.317491
445.864102
444.380024
442.864368
441.316166
439.734363
438.117831
436.465369
434.775717
433.047563
431.279555
429.470315
427.618469
425.722684
423.781718
421.794498
419.759821
417.676454
415.543287
413.359283
411.123401
408.834303
406.49142
404.094337
401.642782
399.136613
396.575834
393.960551
391.290942
388.567212
385.789582
382.958306
380.073788
377.136826
374.148897
371.112713
368.033013
364.917523
361.780005
358.639504
355.51948
352.447246
349.452467
346.564672
343.809819
341.205769
338.760215
336.471771
334.335636
332.344518
330.496492
328.798958
327.276372
325.967068
324.914158
324.153547
323.758936
323.821475
472.548342
471.635337
470.699001
469.739218
468.755877
467.748866
466.718075
465.663396
464.58472
463.481937
462.354937
461.203606
460.027824
458.827465
457.60239
456.352444
455.077452
453.77721
452.451479
451.09998
449.722381
448.31828
446.887188
445.428529
443.941639
442.425757
440.880022
439.303484
437.695103
436.053782
434.378398
432.667868
430.920969
429.136317
427.312488
425.448054
423.541623
421.59189
419.597698
417.558099
415.472378
413.340111
411.161304
408.93522
406.661538
404.340071
401.970671
399.552429
397.086161
394.572956
392.014068
389.410937
386.765088
384.078048
381.35126
378.58602
375.783477
372.944748
370.071198
367.164906
364.229317
361.274198
358.314975
355.370836
352.464645
349.622091
346.86977
344.23217
341.728563
339.371243
337.162521
335.095782
333.16115
331.351937
329.674324
328.142
326.779426
325.624396
324.723416
324.121272
472.534221
471.592711
470.627227
469.637711
468.624116
467.586402
466.524535
465.438489
464.328245
463.19379
462.035119
460.852236
459.64515
458.413875
457.158428
455.878823
454.57507
453.247166
451.895087
450.518787
449.118181
447.693151
446.243543
444.769146
443.269673
441.744755
440.193919
438.616574
437.011987
435.379259
433.71728
432.024684
430.300025
428.541819
426.748456
424.918201
423.049198
421.139461
419.187551
417.193628
415.157696
413.0786
410.95552
408.788037
406.576304
404.321046
402.023645
399.683546
397.301553
394.878722
392.413986
389.909715
387.368638
384.793653
382.187819
379.554165
376.895514
374.214308
371.512485
368.791472
366.052323
363.296082
360.528201
357.761359
355.010811
352.29457
349.633063
347.047999
344.560481
342.188773
339.945615
337.836865
335.860617
334.010903
332.279503
330.659343
329.15426
327.780579
326.566823
325.551856
472.51606
471.537872
470.53484
469.506955
468.454222
467.376662
466.27431
465.147216
463.995447
462.81909
461.618248
460.393048
459.143636
457.87018
456.572864
455.251893
453.907481
452.539854
451.149238
449.735855
448.299913
446.841598
445.36106
443.858406
442.33368
440.78685
439.217796
437.626291
436.011987
434.374398
432.712894
431.026687
429.314839
427.576271
425.809772
424.014029
422.187665
420.329305
418.43702
416.507486
414.53771
412.525948
410.470426
408.3693
406.225181
404.040968
401.816297
399.551604
397.248427
394.909435
392.534615
390.125643
387.684798
385.211097
382.708925
380.183005
377.638064
375.078761
372.509373
369.933532
367.353997
364.772576
362.190308
359.607531
357.035298
354.485872
351.972938
349.511601
347.117964
344.808165
342.596881
340.495498
338.51059
336.643796
334.89099
333.245935
331.703671
330.261154
328.924509
327.715243
472.493398
471.469424
470.419496
469.343644
468.241922
467.114403
465.961187
464.782397
463.578184
462.348727
461.094242
459.814976
458.511214
457.18328
455.831536
454.456382
453.058251
451.637612
450.194958
448.730802
447.245671
445.740092
444.214586
442.669648
441.105739
439.523264
437.922558
436.303864
434.667315
433.012914
431.340518
429.649812
427.940301
426.211291
424.46188
422.69096
420.897212
419.079107
417.23492
415.362752
413.460646
411.526715
409.559257
407.556914
405.514927
403.429081
401.298584
399.12258
396.905557
394.655049
392.371358
390.056488
387.714543
385.345865
382.953263
380.540394
378.10652
375.658398
373.202753
370.745819
368.293301
365.849986
363.419473
361.003926
358.603887
356.224271
353.875973
351.569812
349.316706
347.127679
345.013564
342.984314
341.048051
339.210219
337.472456
335.832651
334.286197
332.827665
331.457574
330.189095
472.465834
471.386162
470.279154
469.144871
467.9834
466.79486
465.579401
464.33721
463.068512
461.773575
460.452714
459.106294
457.734738
456.338524
454.918193
453.474346
452.007645
450.518812
449.008625
447.477913
445.927549
444.358438
442.77151
441.167704
439.547952
437.913162
436.264196
434.601849
432.926823
431.239702
429.540926
427.830764
426.109292
424.376357
422.631565
420.874258
419.103506
417.31809
415.516517
413.697036
411.85766
409.996215
408.11038
406.197749
404.255863
402.28248
400.275872
398.235003
396.155238
394.030879
391.8631
389.652596
387.412712
385.150829
382.868701
380.571265
378.259674
375.938386
373.612885
371.281081
368.951791
366.633212
364.332352
362.055146
359.80614
357.58852
355.402886
353.255609
351.156208
349.113079
347.133664
345.22454
343.391325
341.638386
339.968224
338.380483
336.872598
335.440356
334.077111
332.803252
472.433188
471.287533
470.112877
468.909292
467.676883
466.415797
465.126221
463.808389
462.462586
461.089152
459.68849
458.261074
456.807451
455.328246
453.824172
452.296027
450.744703
449.171177
447.57652
445.961887
444.328511
442.6777
441.010822
439.329293
437.63456
435.928085
434.211318
432.485672
430.752498
429.013049
427.26845
425.519661
423.767447
422.012335
420.254587
418.494163
416.730704
414.963492
413.191458
411.413165
409.626819
407.830301
406.021205
404.196892
402.354562
400.491351
398.604432
396.691107
394.74888
392.775823
390.771096
388.735202
386.659791
384.543339
382.390105
380.203391
378.009428
375.812184
373.616478
371.423583
369.239774
367.072521
364.914943
362.777488
360.669196
358.597259
356.56708
354.582992
352.647051
350.761466
348.933794
347.169684
345.473254
343.847225
342.292877
340.809632
339.395009
338.044991
336.756309
335.530015
472.395663
471.17415
469.921689
468.638344
467.324217
465.979463
464.604283
463.198938
461.763752
460.299119
458.805512
457.28349
455.733708
454.156925
452.554009
450.925945
449.273837
447.598916
445.902538
444.186182
442.451449
440.700055
438.933822
437.154665
435.364576
433.565604
431.75983
429.949342
428.136198
426.322394
424.50982
422.700221
420.89515
419.095921
417.303567
415.518793
413.741941
411.972947
410.21132
408.456127
406.705964
404.958979
403.2129
401.465073
399.712527
397.952056
396.180316
394.393937
392.589656
390.764465
388.915751
387.041411
385.139861
383.210868
381.255846
379.27791
377.263945
375.221016
373.156797
371.077295
369.019013
366.985413
364.977384
362.998211
361.054639
359.155133
357.288763
355.465754
353.693919
351.978887
350.324908
348.734202
347.205495
345.741335
344.343608
343.012134
341.744818
340.538023
339.388008
338.28208
472.353963
471.048141
469.709177
468.337101
466.931992
465.493985
464.023275
462.520123
460.98487
459.417937
457.819845
456.191218
454.532797
452.845452
451.130186
449.388154
447.620659
445.82917
444.015316
442.180896
440.327872
438.45837
436.574669
434.679191
432.774484
430.863205
428.948091
427.031931
425.117529
423.20766
421.305031
419.412225
417.531649
415.665474
413.815578
411.983492
410.170343
408.376802
406.603054
404.848763
403.113039
401.394436
399.690961
398.000115
396.318938
394.644087
392.971934
391.298672
389.620452
387.933524
386.23439
384.519961
382.787709
381.035834
379.263363
377.470194
375.657018
373.826731
371.984147
370.135844
368.266684
366.38968
364.516213
362.65373
360.831708
359.07068
357.366064
355.71741
354.12756
352.597375
351.119607
349.702663
348.351544
347.0692
345.857028
344.714957
343.641305
342.632177
341.677576
340.729649
472.309397
470.913455
469.481997
468.014994
466.512476
464.974535
463.401331
461.793106
460.150187
458.473002
456.762094
455.018126
453.241905
451.434385
449.596689
447.730117
445.836157
443.916496
441.973027
440.007855
438.023297
436.021884
434.006351
431.979631
429.944838
427.905247
425.864268
423.825411
421.792247
419.768359
417.757291
415.762483
413.787218
411.834544
409.907213
408.007604
406.137663
404.29882
402.491941
400.7173
398.974522
397.262574
395.579768
393.923791
392.291747
390.680231
389.085424
387.503213
385.929329
384.359497
382.789606
381.215871
379.635001
378.044358
376.442092
374.827255
373.199887
371.561087
369.912961
368.258469
366.601157
364.947011
363.303874
361.681833
360.07427
358.484197
356.929547
355.423918
353.979404
352.621882
351.327179
350.101466
348.951737
347.884396
346.905169
346.018823
345.226635
344.521107
343.870205
343.1619
472.263893
470.775923
469.249979
467.685954
466.083803
464.443552
462.765305
461.049256
459.2957
457.505049
455.677843
453.814768
451.916671
449.984581
448.019716
446.023511
443.997623
441.943951
439.864642
437.762107
435.639016
433.49831
431.343188
429.177107
427.003757
424.827047
422.65107
420.480069
418.318394
416.170446
414.040621
411.933239
409.852468
407.802246
405.786194
403.807529
401.869003
399.972784
398.120404
396.312709
394.549801
392.831014
391.154913
389.519313
387.92133
386.357458
384.823663
383.31552
381.828351
380.357397