/*--------------------------------*- C++ -*----------------------------------*\
  =========                 |
  \\      /  F ield         | OpenFOAM: The Open Source CFD Toolbox
   \\    /   O peration     | Website:  https://openfoam.org
    \\  /    A nd           | Version:  8
     \\/     M anipulation  |
\*---------------------------------------------------------------------------*/
FoamFile
{
    version     2.0;
    format      ascii;
    class       volScalarField;
    location    "0.076";
    object      p;
}
// * * * * * * * * * * * * * * * * * * * * * * * * * * * * * * * * * * * * * //

dimensions      [1 -1 -2 0 0 0 0];

internalField   nonuniform List<scalar> 
42400
(
101667.816
101667.803
101667.788
101667.775
101667.764
101667.753
101667.743
101667.735
101667.728
101667.722
101667.717
101667.714
101667.712
101667.711
101667.712
101667.714
101667.717
101667.722
101667.728
101667.735
101667.743
101667.753
101667.764
101667.775
101667.788
101667.802
101667.817
101667.833
101667.849
101667.866
101667.884
101667.903
101667.922
101667.942
101667.962
101667.983
101668.005
101668.027
101668.051
101668.086
101668.137
101668.192
101668.225
101668.229
101668.228
101668.229
101668.248
101668.287
101668.329
101668.373
101668.418
101668.462
101668.501
101668.572
101668.675
101668.797
101668.886
101668.925
101668.988
101669.102
101669.249
101669.395
101669.55
101669.724
101669.93
101670.17
101670.411
101670.714
101671.183
101671.407
101671.87
101673.549
101674.183
101673.749
101676.855
101677.77
101677.261
101678.23
101681.785
101682.598
101667.513
101667.502
101667.491
101667.48
101667.471
101667.463
101667.455
101667.449
101667.444
101667.44
101667.437
101667.436
101667.436
101667.437
101667.439
101667.443
101667.447
101667.453
101667.461
101667.469
101667.479
101667.49
101667.502
101667.515
101667.53
101667.545
101667.561
101667.578
101667.596
101667.614
101667.633
101667.653
101667.673
101667.693
101667.713
101667.741
101667.778
101667.819
101667.863
101667.887
101667.887
101667.887
101667.903
101667.935
101667.97
101668.005
101668.042
101668.08
101668.114
101668.141
101668.196
101668.294
101668.363
101668.379
101668.41
101668.478
101668.574
101668.668
101668.758
101668.856
101668.97
101669.108
101669.27
101669.457
101669.69
101670.014
101670.351
101670.69
101671.299
101671.862
101672.151
101673.541
101674.918
101675.033
101677.115
101681.133
101682.304
101681.828
101682.238
101685.076
101667.084
101667.076
101667.067
101667.059
101667.052
101667.046
101667.041
101667.037
101667.034
101667.032
101667.032
101667.033
101667.035
101667.038
101667.042
101667.048
101667.055
101667.064
101667.074
101667.085
101667.097
101667.111
101667.126
101667.142
101667.16
101667.179
101667.199
101667.22
101667.242
101667.264
101667.287
101667.315
101667.347
101667.382
101667.421
101667.456
101667.477
101667.49
101667.503
101667.527
101667.563
101667.6
101667.636
101667.673
101667.707
101667.733
101667.777
101667.841
101667.929
101667.984
101667.994
101668.031
101668.097
101668.166
101668.229
101668.294
101668.365
101668.448
101668.542
101668.65
101668.769
101668.905
101669.083
101669.308
101669.6
101670.017
101670.511
101670.961
101671.535
101672.334
101672.651
101673.401
101676.711
101679.249
101678.66
101678.043
101681.393
101683.803
101685.821
101687.628
101666.546
101666.539
101666.531
101666.525
101666.52
101666.516
101666.513
101666.511
101666.511
101666.511
101666.513
101666.516
101666.521
101666.527
101666.534
101666.543
101666.554
101666.566
101666.58
101666.596
101666.613
101666.631
101666.652
101666.674
101666.697
101666.722
101666.749
101666.777
101666.807
101666.841
101666.878
101666.915
101666.948
101666.976
101667.005
101667.034
101667.072
101667.116
101667.16
101667.203
101667.248
101667.29
101667.325
101667.378
101667.465
101667.524
101667.541
101667.574
101667.627
101667.697
101667.759
101667.817
101667.878
101667.944
101668.015
101668.093
101668.177
101668.271
101668.374
101668.495
101668.653
101668.84
101669.086
101669.378
101669.804
101670.365
101671.17
101671.912
101672.31
101673.408
101676.352
101678.406
101678.082
101678.146
101680.363
101682.356
101683.951
101685.028
101686.114
101687.243
101665.904
101665.897
101665.891
101665.886
101665.882
101665.879
101665.878
101665.877
101665.878
101665.881
101665.885
101665.891
101665.898
101665.908
101665.919
101665.932
101665.946
101665.963
101665.982
101666.003
101666.026
101666.051
101666.077
101666.104
101666.134
101666.167
101666.203
101666.242
101666.28
101666.32
101666.36
101666.401
101666.447
101666.497
101666.548
101666.6
101666.652
101666.706
101666.758
101666.803
101666.864
101666.953
101667.017
101667.045
101667.092
101667.158
101667.223
101667.283
101667.342
101667.405
101667.469
101667.536
101667.606
101667.681
101667.767
101667.864
101667.974
101668.102
101668.258
101668.434
101668.65
101668.88
101669.182
101669.474
101669.931
101670.231
101670.872
101673.107
101676.055
101676.797
101676.749
101677.82
101678.977
101679.83
101680.853
101682.317
101683.573
101685.174
101686.591
101687.688
101665.135
101665.129
101665.123
101665.118
101665.115
101665.113
101665.113
101665.114
101665.117
101665.121
101665.128
101665.137
101665.147
101665.16
101665.175
101665.192
101665.212
101665.234
101665.258
101665.283
101665.31
101665.341
101665.377
101665.416
101665.458
101665.502
101665.548
101665.597
101665.648
101665.702
101665.757
101665.814
101665.873
101665.933
101665.995
101666.057
101666.114
101666.183
101666.277
101666.346
101666.387
101666.448
101666.524
101666.595
101666.662
101666.728
101666.795
101666.861
101666.928
101666.997
101667.071
101667.153
101667.244
101667.35
101667.472
101667.617
101667.796
101668.011
101668.271
101668.562
101668.913
101669.305
101669.726
101670.198
101670.913
101673.122
101674.993
101675.126
101675.125
101675.976
101677.177
101678.387
101679.701
101681.292
101682.7
101683.762
101685.075
101686.215
101687.219
101688.443
101664.214
101664.208
101664.201
101664.197
101664.194
101664.193
101664.194
101664.197
101664.202
101664.209
101664.218
101664.23
101664.244
101664.261
101664.28
101664.302
101664.326
101664.353
101664.385
101664.422
101664.461
101664.504
101664.548
101664.595
101664.646
101664.699
101664.755
101664.813
101664.875
101664.939
101665.005
101665.075
101665.145
101665.212
101665.289
101665.388
101665.467
101665.521
101665.595
101665.682
101665.763
101665.84
101665.916
101665.991
101666.066
101666.14
101666.216
101666.294
101666.376
101666.465
101666.563
101666.676
101666.807
101666.964
101667.156
101667.391
101667.677
101668.029
101668.454
101668.958
101669.53
101670.216
101670.866
101672.149
101673.628
101674.271
101674.71
101675.499
101676.838
101677.899
101678.814
101680.084
101681.608
101682.77
101683.458
101684.385
101685.764
101687.102
101688.871
101690.152
101663.097
101663.091
101663.085
101663.081
101663.079
101663.08
101663.083
101663.088
101663.095
101663.105
101663.116
101663.131
101663.149
101663.171
101663.196
101663.225
101663.258
101663.294
101663.333
101663.375
101663.421
101663.471
101663.524
101663.581
101663.642
101663.706
101663.773
101663.844
101663.918
101663.99
101664.064
101664.147
101664.25
101664.336
101664.404
101664.49
101664.587
101664.678
101664.767
101664.856
101664.945
101665.034
101665.122
101665.212
101665.303
101665.397
101665.494
101665.597
101665.71
101665.836
101665.978
101666.143
101666.339
101666.572
101666.849
101667.196
101667.617
101668.165
101668.713
101669.162
101669.963
101671.11
101672.489
101673.779
101674.24
101674.687
101675.391
101676.246
101677.25
101678.619
101679.824
101681.022
101682.394
101683.475
101684.404
101685.463
101686.748
101687.961
101689.227
101690.072
101661.729
101661.724
101661.719
101661.717
101661.717
101661.72
101661.725
101661.733
101661.745
101661.76
101661.778
101661.8
101661.824
101661.852
101661.883
101661.918
101661.957
101662
101662.048
101662.099
101662.154
101662.213
101662.276
101662.343
101662.415
101662.489
101662.563
101662.645
101662.743
101662.84
101662.92
101663.003
101663.098
101663.202
101663.303
101663.403
101663.505
101663.609
101663.713
101663.818
101663.925
101664.035
101664.147
101664.264
101664.386
101664.517
101664.657
101664.812
101664.983
101665.174
101665.388
101665.627
101665.891
101666.196
101666.525
101666.916
101667.177
101667.691
101669.094
101670.781
101671.833
101672.636
101673.19
101673.413
101674.017
101675.156
101676.389
101677.533
101678.588
101679.76
101680.835
101681.719
101682.677
101683.846
101685.186
101686.571
101688.13
101689.87
101691.652
101693.169
101660.075
101660.072
101660.07
101660.07
101660.074
101660.08
101660.09
101660.103
101660.12
101660.139
101660.162
101660.189
101660.22
101660.255
101660.294
101660.338
101660.386
101660.437
101660.494
101660.554
101660.62
101660.689
101660.763
101660.837
101660.921
101661.018
101661.108
101661.191
101661.287
101661.391
101661.498
101661.604
101661.712
101661.823
101661.936
101662.052
101662.171
101662.293
101662.419
101662.549
101662.685
101662.828
101662.981
101663.146
101663.325
101663.521
101663.738
101663.978
101664.245
101664.543
101664.868
101665.225
101665.619
101666.031
101666.46
101667.328
101669.033
101670.285
101670.545
101670.581
101671.071
101671.72
101672.52
101673.772
101675.02
101676.165
101677.131
101678.178
101679.262
101680.383
101681.672
101682.714
101683.839
101685.207
101686.438
101687.67
101689.833
101692.175
101694.122
101696.128
101658.088
101658.088
101658.09
101658.095
101658.103
101658.114
101658.129
101658.148
101658.17
101658.197
101658.227
101658.262
101658.301
101658.345
101658.393
101658.446
101658.503
101658.565
101658.632
101658.704
101658.777
101658.859
101658.953
101659.042
101659.127
101659.224
101659.33
101659.436
101659.545
101659.658
101659.774
101659.893
101660.016
101660.142
101660.272
101660.407
101660.547
101660.694
101660.85
101661.016
101661.196
101661.392
101661.608
101661.848
101662.117
101662.419
101662.761
101663.148
101663.589
101664.092
101664.663
101665.304
101666.054
101666.813
101667.692
101668.261
101668.524
101669.04
101669.946
101670.908
101671.686
101672.863
101674.142
101675.184
101676.345
101677.615
101678.589
101679.577
101680.871
101681.747
101682.648
101684.193
101685.688
101687.199
101688.881
101690.484
101691.96
101693.298
101694.71
101696.198
101655.721
101655.726
101655.733
101655.744
101655.758
101655.776
101655.798
101655.824
101655.854
101655.889
101655.928
101655.973
101656.022
101656.075
101656.134
101656.197
101656.266
101656.338
101656.416
101656.506
101656.594
101656.68
101656.777
101656.882
101656.988
101657.097
101657.211
101657.328
101657.449
101657.574
101657.703
101657.836
101657.974
101658.118
101658.268
101658.426
101658.595
101658.775
101658.971
101659.185
101659.421
101659.684
101659.977
101660.306
101660.675
101661.089
101661.548
101662.056
101662.61
101663.218
101663.883
101664.632
101665.385
101666.271
101667.196
101668.075
101668.845
101669.747
101670.828
101671.743
101672.586
101673.651
101674.94
101676.186
101677.388
101678.537
101679.806
101681.14
101682.253
101683.312
101684.473
101685.88
101687.29
101688.661
101690.343
101692.096
101693.128
101694.268
101695.932
101697.497
101652.929
101652.94
101652.955
101652.973
101652.995
101653.022
101653.052
101653.088
101653.128
101653.173
101653.223
101653.278
101653.338
101653.402
101653.472
101653.549
101653.634
101653.72
101653.807
101653.903
101654.006
101654.111
101654.221
101654.335
101654.453
101654.576
101654.703
101654.834
101654.97
101655.111
101655.257
101655.41
101655.571
101655.741
101655.923
101656.119
101656.332
101656.566
101656.824
101657.112
101657.432
101657.791
101658.194
101658.648
101659.155
101659.718
101660.347
101661.051
101661.745
101662.432
101663.097
101664.042
101665.316
101666.388
101667.322
101668.074
101668.872
101670.004
101671.317
101672.309
101673.046
101674.3
101675.766
101676.93
101678.022
101679.101
101680.307
101681.565
101682.949
101684.418
101685.769
101687.096
101688.592
101689.91
101691.108
101692.848
101694.731
101696.071
101698.278
101699.931
101649.668
101649.687
101649.711
101649.739
101649.771
101649.807
101649.849
101649.896
101649.947
101650.004
101650.066
101650.134
101650.209
101650.287
101650.369
101650.458
101650.553
101650.655
101650.76
101650.87
101650.986
101651.106
101651.231
101651.361
101651.496
101651.636
101651.782
101651.934
101652.094
101652.262
101652.439
101652.629
101652.833
101653.053
101653.294
101653.558
101653.848
101654.17
101654.526
101654.921
101655.356
101655.835
101656.359
101656.928
101657.532
101658.163
101658.821
101659.736
101661.078
101662.518
101664.106
101665.175
101665.727
101666.488
101667.285
101668.401
101669.991
101671.061
101671.525
101672.293
101674.338
101675.546
101676.13
101676.871
101677.491
101678.231
101679.459
101681.197
101682.951
101684.743
101686.644
101688.362
101690.21
101692.194
101694.263
101695.672
101697.072
101699.3
101700.196
101701.132
101645.894
101645.923
101645.959
101645.998
101646.042
101646.091
101646.145
101646.204
101646.269
101646.341
101646.417
101646.498
101646.586
101646.68
101646.779
101646.883
101646.993
101647.109
101647.23
101647.357
101647.489
101647.627
101647.771
101647.921
101648.078
101648.243
101648.418
101648.603
101648.8
101649.012
101649.242
101649.493
101649.767
101650.071
101650.407
101650.78
101651.194
101651.655
101652.165
101652.729
101653.35
101654.029
101654.767
101655.568
101656.404
101657.301
101658.607
101660.03
101660.886
101661.631
101662.463
101663.436
101664.633
101665.634
101666.713
101668.125
101669.362
101670.507
101671.725
101672.584
101673.061
101674.257
101676.254
101678.184
101680.118
101682.229
101684.002
101685.226
101686.293
101687.471
101688.947
101690.594
101692.365
101693.929
101695.479
101697.038
101698.371
101700.032
101701.961
101703.366
101641.573
101641.614
101641.663
101641.716
101641.773
101641.836
101641.905
101641.979
101642.058
101642.143
101642.234
101642.331
101642.433
101642.542
101642.656
101642.776
101642.902
101643.034
101643.172
101643.316
101643.468
101643.626
101643.793
101643.97
101644.157
101644.357
101644.571
101644.803
101645.056
101645.333
101645.638
101645.975
101646.349
101646.765
101647.227
101647.74
101648.308
101648.934
101649.622
101650.373
101651.189
101652.069
101653.01
101654.021
101655.046
101656.179
101657.141
101657.87
101658.715
101659.772
101660.983
101662.225
101663.563
101665.136
101666.782
101668.27
101669.713
101671.061
101672.435
101673.96
101675.415
101676.742
101678.208
101679.803
101681.45
101683.191
101684.784
101686.129
101687.51
101689.034
101690.611
101692.048
101693.371
101695.155
101696.955
101698.362
101699.98
101702.272
101703.905
101705.153
101636.692
101636.747
101636.812
101636.88
101636.952
101637.03
101637.113
101637.202
101637.297
101637.397
101637.503
101637.615
101637.733
101637.857
101637.987
101638.123
101638.266
101638.417
101638.574
101638.741
101638.916
101639.103
101639.301
101639.514
101639.744
101639.994
101640.267
101640.567
101640.897
101641.263
101641.67
101642.12
101642.621
101643.174
101643.785
101644.456
101645.189
101645.985
101646.843
101647.76
101648.732
101649.76
101650.842
101651.964
101653.17
101654.448
101655.645
101656.826
101658.119
101659.415
101660.669
101662.329
101664.579
101666.161
101667.327
101668.624
101669.904
101671.213
101672.675
101674.196
101675.802
101677.405
101678.94
101680.493
101682.057
101683.635
101685.314
101686.964
101688.426
101689.654
101691.511
101694.362
101696.026
101697.032
101698.95
101701.628
101703.969
101705.069
101705.988
101708.205
101631.293
101631.363
101631.445
101631.53
101631.618
101631.712
101631.811
101631.916
101632.026
101632.142
101632.264
101632.392
101632.526
101632.668
101632.816
101632.972
101633.137
101633.311
101633.495
101633.692
101633.903
101634.13
101634.377
101634.646
101634.941
101635.267
101635.627
101636.026
101636.47
101636.963
101637.51
101638.115
101638.784
101639.519
101640.324
101641.2
101642.15
101643.175
101644.27
101645.41
101646.573
101647.723
101648.823
101650.014
101651.719
101653.575
101655.431
101656.938
101658.13
101659.368
101660.699
101662.171
101663.544
101665.083
101666.339
101667.095
101668.264
101669.872
101671.718
101673.766
101675.643
101677.466
101679.389
101681.262
101683.201
101685.123
101687.07
101689.251
101691.349
101693.588
101695.073
101695.809
101697.565
101700.573
101702.346
101703.622
101704.843
101706.235
101708.281
101710.007
101625.436
101625.522
101625.622
101625.724
101625.829
101625.939
101626.055
101626.177
101626.305
101626.439
101626.579
101626.727
101626.883
101627.048
101627.223
101627.408
101627.606
101627.819
101628.048
101628.297
101628.568
101628.866
101629.194
101629.556
101629.958
101630.403
101630.897
101631.443
101632.047
101632.711
101633.438
101634.228
101635.079
101635.989
101636.953
101637.962
101638.987
101640.038
101641.396
101643.195
101645.211
101647.274
101649.285
101651.011
101652.397
101653.424
101654.175
101655.423
101657.388
101659.431
101661.424
101662.733
101663.527
101664.272
101665.95
101669.281
101671.645
101673.25
101674.67
101676.108
101677.857
101679.853
101681.461
101682.809
101684.279
101685.832
101687.463
101689.117
101691.135
101693.987
101696.753
101699.008
101700.601
101701.925
101703.503
101705.538
101706.796
101707.957
101709.895
101710.841
101619.233
101619.334
101619.452
101619.571
101619.692
101619.819
101619.951
101620.089
101620.235
101620.387
101620.548
101620.718
101620.899
101621.092
101621.3
101621.524
101621.768
101622.034
101622.327
101622.651
101623.01
101623.41
101623.856
101624.355
101624.913
101625.536
101626.231
101627.003
101627.858
101628.801
101629.837
101630.968
101632.199
101633.533
101634.972
101636.508
101638.135
101639.865
101641.831
101643.486
101644.571
101645.663
101646.86
101648.087
101649.266
101650.759
101652.662
101654.534
101656.598
101658.748
101660.765
101662.9
101665.33
101667.592
101669.355
101671.014
101672.547
101674.008
101675.519
101676.881
101678.142
101679.443
101681.316
101684.109
101686.454
101688.467
101690.474
101692.408
101694.477
101696.271
101697.829
101699.726
101701.871
101703.892
101705.816
101707.93
101709.618
101710.904
101712.952
101715.319
101632.626
101632.627
101632.628
101632.63
101632.633
101632.637
101632.642
101632.648
101632.655
101632.663
101632.672
101632.683
101632.694
101632.706
101632.72
101632.735
101632.751
101632.769
101632.788
101632.808
101632.829
101632.853
101632.877
101632.904
101632.932
101632.962
101632.994
101633.028
101633.064
101633.103
101633.144
101633.187
101633.234
101633.284
101633.337
101633.393
101633.453
101633.517
101633.585
101633.658
101633.736
101633.821
101633.913
101634.011
101634.116
101634.229
101634.349
101634.479
101634.617
101634.765
101634.921
101635.088
101635.265
101635.453
101635.647
101635.849
101636.056
101636.266
101636.476
101636.681
101636.874
101637.046
101637.184
101637.272
101637.296
101637.238
101637.085
101636.784
101636.349
101635.8
101635.139
101634.336
101633.365
101632.2
101630.834
101629.433
101628.489
101628.137
101627.672
101624.612
101636.417
101636.417
101636.419
101636.421
101636.425
101636.431
101636.437
101636.446
101636.455
101636.466
101636.478
101636.492
101636.507
101636.524
101636.543
101636.563
101636.585
101636.608
101636.634
101636.661
101636.69
101636.721
101636.755
101636.791
101636.829
101636.869
101636.912
101636.958
101637.007
101637.059
101637.114
101637.173
101637.235
101637.301
101637.371
101637.446
101637.525
101637.61
101637.7
101637.795
101637.897
101638.005
101638.121
101638.247
101638.38
101638.521
101638.672
101638.833
101639.005
101639.188
101639.383
101639.591
101639.812
101640.044
101640.286
101640.538
101640.801
101641.074
101641.35
101641.627
101641.901
101642.167
101642.424
101642.666
101642.882
101643.076
101643.12
101643.035
101642.868
101642.604
101642.252
101641.793
101641.257
101640.646
101639.934
101638.866
101637.867
101637.419
101636.994
101636.129
101640.036
101640.036
101640.038
101640.042
101640.047
101640.053
101640.061
101640.071
101640.082
101640.095
101640.11
101640.126
101640.145
101640.165
101640.187
101640.211
101640.237
101640.265
101640.295
101640.328
101640.363
101640.4
101640.44
101640.483
101640.528
101640.577
101640.628
101640.682
101640.74
101640.802
101640.867
101640.936
101641.01
101641.087
101641.17
101641.257
101641.35
101641.449
101641.555
101641.667
101641.786
101641.912
101642.045
101642.186
101642.335
101642.495
101642.666
101642.848
101643.042
101643.249
101643.467
101643.7
101643.947
101644.21
101644.489
101644.787
101645.104
101645.433
101645.77
101646.116
101646.465
101646.806
101647.119
101647.381
101647.57
101647.644
101647.767
101648
101648.208
101648.416
101648.4
101648.161
101647.862
101647.496
101647.088
101646.771
101646.294
101645.377
101644.67
101644.347
101643.446
101643.447
101643.449
101643.453
101643.459
101643.466
101643.475
101643.486
101643.498
101643.513
101643.529
101643.548
101643.568
101643.59
101643.615
101643.642
101643.671
101643.702
101643.736
101643.772
101643.811
101643.852
101643.896
101643.944
101643.994
101644.047
101644.104
101644.164
101644.228
101644.295
101644.367
101644.442
101644.523
101644.607
101644.697
101644.792
101644.893
101645.001
101645.114
101645.234
101645.36
101645.494
101645.635
101645.785
101645.944
101646.113
101646.291
101646.48
101646.681
101646.894
101647.12
101647.361
101647.618
101647.889
101648.174
101648.472
101648.783
101649.106
101649.444
101649.793
101650.151
101650.513
101650.877
101651.243
101651.612
101651.997
101652.331
101652.516
101652.561
101652.483
101652.561
101652.809
101653.054
101653.073
101652.865
101652.604
101652.249
101651.849
101651.387
101651.177
101646.629
101646.63
101646.633
101646.637
101646.643
101646.65
101646.66
101646.672
101646.685
101646.7
101646.718
101646.737
101646.759
101646.783
101646.809
101646.837
101646.868
101646.901
101646.936
101646.974
101647.015
101647.059
101647.105
101647.155
101647.208
101647.264
101647.323
101647.386
101647.453
101647.523
101647.598
101647.677
101647.76
101647.848
101647.941
101648.04
101648.145
101648.255
101648.37
101648.491
101648.62
101648.755
101648.898
101649.049
101649.209
101649.378
101649.557
101649.745
101649.943
101650.153
101650.373
101650.608
101650.856
101651.114
101651.385
101651.669
101651.967
101652.277
101652.607
101652.958
101653.327
101653.716
101654.13
101654.54
101654.933
101655.318
101655.686
101656.05
101656.414
101656.732
101656.89
101656.819
101656.513
101656.494
101656.785
101657.006
101657.345
101657.726
101658.096
101657.97
101649.567
101649.569
101649.571
101649.575
101649.581
101649.589
101649.599
101649.611
101649.625
101649.64
101649.658
101649.678
101649.7
101649.724
101649.751
101649.78
101649.811
101649.844
101649.881
101649.919
101649.961
101650.005
101650.052
101650.103
101650.156
101650.213
101650.273
101650.336
101650.403
101650.474
101650.549
101650.628
101650.712
101650.8
101650.894
101650.992
101651.096
101651.204
101651.318
101651.438
101651.565
101651.699
101651.84
101651.988
101652.145
101652.311
101652.484
101652.667
101652.858
101653.06
101653.274
101653.502
101653.739
101653.987
101654.25
101654.526
101654.817
101655.122
101655.444
101655.78
101656.128
101656.486
101656.848
101657.215
101657.588
101657.984
101658.425
101658.904
101659.378
101659.781
101660.142
101660.482
101660.842
101661.057
101661.003
101660.798
101660.696
101661.133
101661.848
101662.062
101652.261
101652.262
101652.265
101652.269
101652.275
101652.283
101652.292
101652.304
101652.318
101652.333
101652.351
101652.371
101652.392
101652.416
101652.443
101652.471
101652.502
101652.535
101652.571
101652.609
101652.65
101652.694
101652.74
101652.79
101652.842
101652.898
101652.957
101653.019
101653.085
101653.155
101653.228
101653.305
101653.387
101653.473
101653.564
101653.659
101653.759
101653.864
101653.974
101654.091
101654.213
101654.342
101654.478
101654.62
101654.77
101654.927
101655.092
101655.264
101655.445
101655.636
101655.837
101656.05
101656.273
101656.506
101656.752
101657.011
101657.283
101657.568
101657.869
101658.183
101658.511
101658.851
101659.204
101659.565
101659.943
101660.346
101660.771
101661.197
101661.604
101662.028
101662.493
101663.012
101663.517
101663.925
101664.286
101664.677
101664.99
101664.999
101664.902
101664.663
101654.708
101654.709
101654.711
101654.715
101654.721
101654.728
101654.737
101654.749
101654.762
101654.777
101654.794
101654.813
101654.834
101654.857
101654.882
101654.91
101654.939
101654.971
101655.006
101655.043
101655.082
101655.124
101655.169
101655.217
101655.267
101655.321
101655.378
101655.437
101655.501
101655.567
101655.637
101655.712
101655.79
101655.872
101655.958
101656.049
101656.143
101656.243
101656.348
101656.458
101656.575
101656.697
101656.824
101656.957
101657.097
101657.242
101657.395
101657.556
101657.725
101657.902
101658.089
101658.286
101658.491
101658.706
101658.932
101659.17
101659.42
101659.683
101659.961
101660.255
101660.564
101660.892
101661.238
101661.604
101661.992
101662.402
101662.82
101663.239
101663.665
101664.139
101664.634
101665.113
101665.554
101665.976
101666.466
101666.978
101667.333
101667.552
101667.801
101668.168
101656.92
101656.92
101656.922
101656.926
101656.931
101656.937
101656.946
101656.956
101656.969
101656.983
101656.998
101657.016
101657.036
101657.058
101657.082
101657.108
101657.136
101657.166
101657.199
101657.234
101657.271
101657.311
101657.353
101657.398
101657.446
101657.497
101657.55
101657.607
101657.666
101657.729
101657.795
101657.864
101657.937
101658.014
101658.095
101658.181
101658.27
101658.364
101658.463
101658.565
101658.672
101658.784
101658.901
101659.024
101659.153
101659.289
101659.431
101659.58
101659.736
101659.901
101660.075
101660.258
101660.449
101660.649
101660.858
101661.078
101661.313
101661.561
101661.824
101662.101
101662.394
101662.705
101663.037
101663.39
101663.766
101664.168
101664.597
101665.055
101665.547
101666.05
101666.55
101667.035
101667.507
101668.028
101668.578
101668.976
101669.325
101669.72
101670.171
101670.754
101658.903
101658.903
101658.904
101658.906
101658.911
101658.916
101658.924
101658.933
101658.944
101658.956
101658.971
101658.987
101659.005
101659.025
101659.047
101659.071
101659.097
101659.125
101659.155
101659.188
101659.222
101659.259
101659.298
101659.34
101659.385
101659.432
101659.482
101659.534
101659.59
101659.649
101659.71
101659.776
101659.844
101659.916
101659.99
101660.068
101660.149
101660.235
101660.324
101660.418
101660.517
101660.621
101660.73
101660.844
101660.962
101661.086
101661.218
101661.359
101661.507
101661.662
101661.824
101661.995
101662.174
101662.366
101662.568
101662.781
101663.002
101663.232
101663.476
101663.734
101664.008
101664.309
101664.639
101664.989
101665.36
101665.757
101666.184
101666.642
101667.133
101667.656
101668.211
101668.791
101669.388
101669.979
101670.487
101670.979
101671.545
101672.029
101672.385
101672.735
101660.674
101660.673
101660.673
101660.674
101660.677
101660.682
101660.688
101660.695
101660.705
101660.716
101660.728
101660.743
101660.759
101660.777
101660.796
101660.818
101660.841
101660.867
101660.894
101660.924
101660.956
101660.99
101661.026
101661.064
101661.105
101661.148
101661.193
101661.241
101661.291
101661.345
101661.4
101661.459
101661.52
101661.585
101661.652
101661.723
101661.798
101661.876
101661.959
101662.045
101662.134
101662.227
101662.326
101662.432
101662.545
101662.664
101662.787
101662.916
101663.053
101663.197
101663.349
101663.509
101663.679
101663.858
101664.049
101664.254
101664.474
101664.71
101664.965
101665.241
101665.529
101665.815
101666.11
101666.427
101666.769
101667.162
101667.611
101668.091
101668.603
101669.148
101669.73
101670.352
101671.01
101671.693
101672.395
101673.115
101673.757
101674.288
101674.636
101674.898
101662.241
101662.239
101662.237
101662.237
101662.238
101662.241
101662.245
101662.25
101662.257
101662.266
101662.276
101662.288
101662.302
101662.317
101662.334
101662.353
101662.373
101662.396
101662.42
101662.446
101662.474
101662.504
101662.536
101662.57
101662.606
101662.645
101662.685
101662.728
101662.774
101662.822
101662.872
101662.925
101662.981
101663.04
101663.103
101663.167
101663.233
101663.302
101663.374
101663.453
101663.539
101663.629
101663.722
101663.818
101663.92
101664.029
101664.145
101664.266
101664.393
101664.529
101664.673
101664.826
101664.989
101665.162
101665.346
101665.542
101665.751
101665.973
101666.208
101666.459
101666.742
101667.058
101667.402
101667.783
101668.204
101668.609
101668.999
101669.428
101669.893
101670.395
101670.994
101671.69
101672.422
101673.18
101673.956
101674.729
101675.471
101676.157
101676.714
101677.129
101663.617
101663.613
101663.609
101663.606
101663.605
101663.606
101663.607
101663.611
101663.615
101663.621
101663.629
101663.638
101663.649
101663.661
101663.675
101663.691
101663.708
101663.727
101663.748
101663.771
101663.795
101663.822
101663.85
101663.88
101663.912
101663.946
101663.982
101664.021
101664.062
101664.105
101664.151
101664.198
101664.247
101664.297
101664.35
101664.408
101664.472
101664.538
101664.608
101664.679
101664.753
101664.832
101664.918
101665.006
101665.1
101665.199
101665.305
101665.417
101665.538
101665.666
101665.804
101665.951
101666.108
101666.277
101666.457
101666.65
101666.857
101667.077
101667.313
101667.565
101667.835
101668.125
101668.434
101668.766
101669.124
101669.536
101670.011
101670.533
101671.123
101671.795
101672.451
101673.054
101673.702
101674.409
101675.154
101675.915
101676.753
101677.647
101678.446
101679.093
101664.807
101664.801
101664.794
101664.789
101664.785
101664.783
101664.782
101664.782
101664.784
101664.787
101664.792
101664.798
101664.806
101664.815
101664.826
101664.838
101664.853
101664.868
101664.886
101664.905
101664.926
101664.949
101664.974
101665.001
101665.029
101665.059
101665.091
101665.124
101665.159
101665.195
101665.234
101665.276
101665.321
101665.37
101665.42
101665.471
101665.525
101665.581
101665.641
101665.705
101665.772
101665.843
101665.918
101665.998
101666.084
101666.175
101666.272
101666.377
101666.489