/*--------------------------------*- C++ -*----------------------------------*\
  =========                 |
  \\      /  F ield         | OpenFOAM: The Open Source CFD Toolbox
   \\    /   O peration     | Website:  https://openfoam.org
    \\  /    A nd           | Version:  8
     \\/     M anipulation  |
\*---------------------------------------------------------------------------*/
FoamFile
{
    version     2.0;
    format      ascii;
    class       volScalarField;
    location    "0.076";
    object      p_rgh;
}
// * * * * * * * * * * * * * * * * * * * * * * * * * * * * * * * * * * * * * //

dimensions      [1 -1 -2 0 0 0 0];

internalField   nonuniform List<scalar> 
42400
(
101667.067
101667.054
101667.039
101667.026
101667.015
101667.004
101666.994
101666.986
101666.979
101666.973
101666.968
101666.964
101666.962
101666.961
101666.961
101666.963
101666.966
101666.97
101666.976
101666.983
101666.991
101667
101667.01
101667.021
101667.033
101667.047
101667.061
101667.076
101667.091
101667.108
101667.125
101667.143
101667.161
101667.18
101667.199
101667.219
101667.239
101667.26
101667.285
101667.321
101667.37
101667.424
101667.454
101667.457
101667.455
101667.455
101667.473
101667.512
101667.553
101667.595
101667.64
101667.682
101667.72
101667.789
101667.891
101668.012
101668.099
101668.137
101668.2
101668.314
101668.46
101668.605
101668.759
101668.931
101669.135
101669.37
101669.606
101669.916
101670.35
101670.555
101671.109
101672.587
101672.849
101672.558
101675.544
101676.513
101675.954
101676.982
101680
101680.592
101666.71
101666.699
101666.688
101666.677
101666.668
101666.659
101666.652
101666.646
101666.641
101666.637
101666.634
101666.632
101666.632
101666.633
101666.635
101666.638
101666.643
101666.649
101666.656
101666.664
101666.673
101666.684
101666.696
101666.709
101666.722
101666.737
101666.753
101666.769
101666.787
101666.805
101666.823
101666.842
101666.862
101666.882
101666.901
101666.928
101666.965
101667.006
101667.047
101667.068
101667.068
101667.067
101667.081
101667.113
101667.146
101667.18
101667.216
101667.251
101667.285
101667.313
101667.369
101667.466
101667.533
101667.548
101667.578
101667.645
101667.74
101667.833
101667.923
101668.019
101668.133
101668.271
101668.433
101668.619
101668.85
101669.163
101669.478
101669.825
101670.416
101670.913
101671.3
101672.742
101673.945
101674.105
101676.2
101679.834
101680.974
101680.816
101681.461
101684.222
101666.227
101666.218
101666.209
101666.201
101666.194
101666.188
101666.183
101666.179
101666.176
101666.175
101666.174
101666.175
101666.176
101666.18
101666.184
101666.19
101666.197
101666.205
101666.215
101666.226
101666.238
101666.252
101666.267
101666.283
101666.3
101666.318
101666.338
101666.359
101666.38
101666.403
101666.425
101666.452
101666.484
101666.519
101666.558
101666.591
101666.611
101666.624
101666.636
101666.66
101666.695
101666.731
101666.767
101666.803
101666.837
101666.862
101666.906
101666.97
101667.057
101667.108
101667.115
101667.152
101667.218
101667.286
101667.349
101667.412
101667.483
101667.566
101667.66
101667.767
101667.886
101668.022
101668.2
101668.425
101668.718
101669.13
101669.591
101670.025
101670.593
101671.316
101671.658
101672.433
101675.381
101677.898
101677.779
101677.738
101680.858
101682.936
101685.08
101686.866
101665.635
101665.629
101665.621
101665.615
101665.61
101665.606
101665.603
101665.601
101665.6
101665.601
101665.603
101665.606
101665.611
101665.617
101665.624
101665.633
101665.644
101665.656
101665.669
101665.685
101665.702
101665.72
101665.741
101665.763
101665.786
101665.811
101665.837
101665.865
101665.895
101665.929
101665.965
101666.002
101666.034
101666.062
101666.09
101666.12
101666.157
101666.201
101666.244
101666.288
101666.332
101666.374
101666.408
101666.461
101666.547
101666.606
101666.623
101666.655
101666.708
101666.778
101666.839
101666.896
101666.956
101667.022
101667.093
101667.169
101667.253
101667.345
101667.448
101667.568
101667.726
101667.912
101668.157
101668.451
101668.882
101669.451
101670.239
101670.968
101671.39
101672.36
101675.094
101677.201
101677.279
101677.662
101679.71
101681.603
101683.151
101684.222
101685.359
101686.574
101664.942
101664.936
101664.93
101664.925
101664.921
101664.918
101664.916
101664.916
101664.917
101664.92
101664.924
101664.93
101664.937
101664.947
101664.958
101664.97
101664.985
101665.002
101665.021
101665.042
101665.065
101665.09
101665.116
101665.143
101665.173
101665.206
101665.242
101665.28
101665.318
101665.358
101665.398
101665.439
101665.485
101665.535
101665.586
101665.637
101665.689
101665.743
101665.795
101665.84
101665.9
101665.99
101666.053
101666.081
101666.128
101666.195
101666.259
101666.319
101666.379
101666.441
101666.506
101666.572
101666.642
101666.719
101666.804
101666.901
101667.011
101667.138
101667.294
101667.47
101667.687
101667.917
101668.225
101668.523
101668.99
101669.297
101669.951
101672.135
101675.011
101676.027
101676.114
101676.981
101678.008
101678.906
101680.071
101681.525
101682.791
101684.524
101686.032
101687.134
101664.127
101664.121
101664.115
101664.111
101664.107
101664.106
101664.105
101664.106
101664.109
101664.114
101664.12
101664.129
101664.14
101664.152
101664.167
101664.185
101664.204
101664.227
101664.25
101664.275
101664.303
101664.333
101664.369
101664.408
101664.45
101664.494
101664.54
101664.589
101664.64
101664.693
101664.749
101664.806
101664.864
101664.925
101664.987
101665.049
101665.105
101665.174
101665.268
101665.338
101665.378
101665.439
101665.516
101665.587
101665.654
101665.721
101665.788
101665.855
101665.923
101665.993
101666.069
101666.151
101666.244
101666.352
101666.474
101666.62
101666.8
101667.013
101667.269
101667.557
101667.907
101668.291
101668.721
101669.192
101669.922
101672.172
101674.032
101674.222
101674.229
101675.035
101676.211
101677.443
101678.885
101680.489
101681.767
101682.843
101684.222
101685.509
101686.612
101687.879
101663.162
101663.156
101663.15
101663.146
101663.143
101663.142
101663.143
101663.146
101663.15
101663.157
101663.167
101663.179
101663.193
101663.21
101663.229
101663.251
101663.275
101663.302
101663.334
101663.371
101663.411
101663.453
101663.497
101663.544
101663.595
101663.648
101663.704
101663.763
101663.824
101663.888
101663.955
101664.024
101664.094
101664.16
101664.237
101664.337
101664.415
101664.469
101664.544
101664.631
101664.712
101664.789
101664.865
101664.941
101665.016
101665.092
101665.168
101665.248
101665.332
101665.422
101665.522
101665.638
101665.772
101665.932
101666.128
101666.366
101666.655
101667.009
101667.43
101667.924
101668.488
101669.175
101669.835
101671.252
101672.784
101673.314
101673.722
101674.556
101675.855
101676.883
101677.829
101679.139
101680.617
101681.772
101682.633
101683.812
101685.27
101686.651
101688.351
101689.594
101662.008
101662.001
101661.996
101661.992
101661.99
101661.991
101661.994
101661.999
101662.006
101662.016
101662.027
101662.042
101662.06
101662.082
101662.107
101662.136
101662.169
101662.205
101662.244
101662.286
101662.332
101662.382
101662.435
101662.492
101662.552
101662.616
101662.684
101662.755
101662.828
101662.9
101662.975
101663.059
101663.162
101663.247
101663.314
101663.4
101663.497
101663.588
101663.676
101663.766
101663.855
101663.944
101664.033
101664.123
101664.215
101664.309
101664.407
101664.512
101664.627
101664.755
101664.901
101665.07
101665.27
101665.51
101665.793
101666.149
101666.583
101667.14
101667.711
101668.215
101668.956
101670.078
101671.504
101672.695
101673.146
101673.637
101674.411
101675.324
101676.394
101677.705
101678.875
101680.157
101681.588
101682.748
101683.77
101684.884
101686.163
101687.33
101688.667
101689.739
101660.607
101660.601
101660.597
101660.594
101660.595
101660.598
101660.603
101660.611
101660.622
101660.637
101660.656
101660.677
101660.702
101660.73
101660.761
101660.796
101660.835
101660.878
101660.925
101660.976
101661.031
101661.091
101661.154
101661.221
101661.292
101661.366
101661.44
101661.523
101661.621
101661.717
101661.796
101661.88
101661.976
101662.08
101662.18
101662.28
101662.382
101662.486
101662.59
101662.695
101662.802
101662.911
101663.023
101663.14
101663.263
101663.393
101663.535
101663.69
101663.863
101664.057
101664.274
101664.519
101664.79
101665.106
101665.449
101665.853
101666.146
101666.652
101667.963
101669.585
101670.796
101671.694
101672.188
101672.414
101673.036
101674.176
101675.371
101676.451
101677.52
101678.799
101679.948
101680.911
101681.931
101683.094
101684.4
101685.774
101687.32
101688.987
101690.621
101692.022
101658.925
101658.921
101658.919
101658.92
101658.923
101658.93
101658.94
101658.953
101658.969
101658.989
101659.012
101659.039
101659.07
101659.105
101659.144
101659.188
101659.236
101659.287
101659.344
101659.405
101659.47
101659.54
101659.613
101659.688
101659.771
101659.868
101659.958
101660.041
101660.137
101660.242
101660.348
101660.454
101660.562
101660.674
101660.787
101660.903
101661.022
101661.144
101661.27
101661.4
101661.536
101661.68
101661.833
101661.997
101662.176
101662.372
101662.589
101662.829
101663.096
101663.392
101663.715
101664.07
101664.457
101664.866
101665.304
101666.158
101667.827
101669.128
101669.482
101669.588
101670.081
101670.693
101671.511
101672.778
101674.028
101675.194
101676.234
101677.284
101678.417
101679.585
101680.78
101681.758
101682.884
101684.243
101685.452
101686.777
101689.002
101691.29
101693.235
101695.184
101656.913
101656.913
101656.915
101656.92
101656.928
101656.94
101656.955
101656.973
101656.996
101657.022
101657.053
101657.088
101657.127
101657.171
101657.219
101657.272
101657.33
101657.392
101657.459
101657.53
101657.604
101657.686
101657.78
101657.87
101657.955
101658.052
101658.158
101658.265
101658.374
101658.487
101658.603
101658.723
101658.846
101658.973
101659.103
101659.239
101659.38
101659.528
101659.684
101659.851
101660.032
101660.229
101660.446
101660.687
101660.957
101661.26
101661.601
101661.989
101662.429
101662.929
101663.496
101664.134
101664.874
101665.622
101666.547
101667.222
101667.498
101667.982
101668.839
101669.727
101670.544
101671.759
101673.014
101674.082
101675.276
101676.526
101677.494
101678.603
101679.875
101680.682
101681.68
101683.242
101684.753
101686.303
101687.979
101689.564
101691.03
101692.449
101694.033
101695.545
101654.526
101654.531
101654.538
101654.549
101654.563
101654.581
101654.603
101654.629
101654.66
101654.695
101654.734
101654.778
101654.827
101654.881
101654.94
101655.004
101655.072
101655.144
101655.223
101655.313
101655.401
101655.488
101655.585
101655.69
101655.796
101655.906
101656.02
101656.138
101656.26
101656.385
101656.515
101656.649
101656.788
101656.933
101657.084
101657.244
101657.413
101657.596
101657.794
101658.01
101658.249
101658.515
101658.812
101659.145
101659.52
101659.939
101660.405
101660.921
101661.487
101662.107
101662.783
101663.534
101664.29
101665.185
101666.109
101666.943
101667.709
101668.642
101669.702
101670.61
101671.481
101672.6
101673.893
101675.133
101676.337
101677.511
101678.752
101680.052
101681.193
101682.294
101683.506
101684.922
101686.344
101687.778
101689.501
101691.161
101692.213
101693.423
101695.028
101696.58
101651.717
101651.728
101651.743
101651.761
101651.783
101651.809
101651.84
101651.876
101651.916
101651.961
101652.011
101652.066
101652.126
101652.191
101652.261
101652.338
101652.424
101652.51
101652.597
101652.693
101652.796
101652.902
101653.012
101653.126
101653.245
101653.368
101653.496
101653.627
101653.764
101653.905
101654.052
101654.206
101654.368
101654.539
101654.722
101654.92
101655.135
101655.37
101655.63
101655.92
101656.242
101656.604
101657.009
101657.465
101657.974
101658.541
101659.172
101659.874
101660.587
101661.316
101662.037
101662.967
101664.133
101665.146
101666.015
101666.79
101667.658
101668.771
101670.018
101670.998
101671.831
101673.147
101674.689
101675.914
101677.018
101678.138
101679.373
101680.624
101681.984
101683.386
101684.726
101686.116
101687.625
101688.976
101690.28
101691.965
101693.749
101695.171
101697.217
101698.756
101648.442
101648.461
101648.485
101648.513
101648.545
101648.582
101648.623
101648.67
101648.722
101648.779
101648.84
101648.908
101648.984
101649.062
101649.145
101649.234
101649.329
101649.431
101649.536
101649.647
101649.762
101649.883
101650.008
101650.138
101650.274
101650.414
101650.561
101650.713
101650.873
101651.042
101651.22
101651.41
101651.615
101651.836
101652.078
101652.343
101652.636
101652.959
101653.318
101653.715
101654.155
101654.639
101655.169
101655.745
101656.358
101657.001
101657.673
101658.547
101659.749
101661.101
101662.623
101663.713
101664.437
101665.321
101666.168
101667.259
101668.748
101669.913
101670.628
101671.531
101673.355
101674.47
101675.033
101675.811
101676.604
101677.457
101678.653
101680.267
101682.038
101683.815
101685.603
101687.265
101689.111
101691.021
101692.996
101694.593
101696.113
101698.137
101699.263
101700.365
101644.66
101644.689
101644.725
101644.764
101644.808
101644.857
101644.912
101644.971
101645.036
101645.108
101645.184
101645.265
101645.353
101645.447
101645.546
101645.651
101645.761
101645.877
101645.999
101646.126
101646.258
101646.396
101646.541
101646.691
101646.849
101647.015
101647.19
101647.376
101647.574
101647.787
101648.017
101648.269
101648.544
101648.848
101649.185
101649.559
101649.974
101650.435
101650.945
101651.509
101652.129
101652.806
101653.543
101654.34
101655.175
101656.089
101657.393
101658.875
101659.92
101660.714
101661.532
101662.481
101663.601
101664.581
101665.717
101667.197
101668.437
101669.476
101670.494
101671.327
101671.996
101673.24
101675.107
101676.919
101678.752
101680.79
101682.669
101684.073
101685.198
101686.463
101688.071
101689.756
101691.449
101693.031
101694.633
101696.132
101697.571
101699.229
101700.95
101702.33
101640.337
101640.378
101640.427
101640.48
101640.538
101640.6
101640.669
101640.743
101640.822
101640.908
101640.999
101641.096
101641.199
101641.308
101641.422
101641.542
101641.669
101641.801
101641.94
101642.085
101642.236
101642.396
101642.564
101642.741
101642.929
101643.13
101643.346
101643.579
101643.834
101644.112
101644.419
101644.759
101645.135
101645.553
101646.018
101646.534
101647.105
101647.735
101648.425
101649.179
101649.997
101650.877
101651.818
101652.822
101653.842
101655.034
101656.114
101656.84
101657.637
101658.687
101659.91
101661.171
101662.522
101664.055
101665.613
101667.048
101668.474
101669.831
101671.228
101672.736
101674.083
101675.416
101677.01
101678.692
101680.389
101682.101
101683.655
101685.029
101686.488
101688.089
101689.67
101691.138
101692.574
101694.332
101696.055
101697.518
101699.135
101701.316
101703.051
101704.417
101635.46
101635.515
101635.58
101635.648
101635.72
101635.798
101635.882
101635.971
101636.065
101636.166
101636.272
101636.384
101636.503
101636.627
101636.757
101636.894
101637.038
101637.188
101637.347
101637.514
101637.69
101637.877
101638.077
101638.291
101638.523
101638.774
101639.049
101639.351
101639.684
101640.053
101640.462
101640.917
101641.421
101641.98
101642.596
101643.273
101644.013
101644.816
101645.682
101646.608
101647.59
101648.627
101649.714
101650.843
101652.038
101653.307
101654.466
101655.612
101656.898
101658.184
101659.434
101661.069
101663.196
101664.838
101666.202
101667.586
101668.874
101670.173
101671.634
101673.177
101674.784
101676.37
101677.897
101679.452
101681.033
101682.639
101684.337
101685.979
101687.461
101688.786
101690.64
101693.203
101694.795
101696.103
101698.222
101700.556
101702.641
101704
101705.137
101707.25
101630.067
101630.137
101630.219
101630.303
101630.392
101630.486
101630.585
101630.69
101630.8
101630.916
101631.038
101631.167
101631.302
101631.443
101631.592
101631.748
101631.913
101632.088
101632.273
101632.47
101632.682
101632.91
101633.158
101633.428
101633.724
101634.05
101634.411
101634.812
101635.257
101635.751
101636.299
101636.907
101637.577
101638.313
101639.12
101639.998
101640.949
101641.978
101643.078
101644.233
101645.424
101646.619
101647.782
101648.982
101650.608
101652.39
101654.13
101655.611
101656.866
101658.156
101659.589
101661.173
101662.666
101664.139
101665.295
101666.128
101667.278
101668.746
101670.568
101672.658
101674.587
101676.444
101678.355
101680.243
101682.193
101684.125
101686.048
101688.076
101690.031
101692.129
101693.718
101694.882
101696.912
101699.604
101701.181
101702.612
101704.286
101705.557
101707.395
101709.326
101624.217
101624.303
101624.403
101624.505
101624.61
101624.721
101624.837
101624.958
101625.086
101625.22
101625.361
101625.509
101625.665
101625.83
101626.004
101626.19
101626.388
101626.6
101626.83
101627.079
101627.351
101627.649
101627.977
101628.34
101628.742
101629.189
101629.684
101630.233
101630.839
101631.506
101632.237
101633.032
101633.89
101634.808
101635.782
101636.802
101637.842
101638.91
101640.2
101641.889
101643.859
101645.867
101647.819
101649.601
101651.143
101652.202
101653.032
101654.365
101656.239
101658.2
101660.037
101661.236
101662.048
101663.056
101665.032
101668.152
101670.546
101672.257
101673.74
101675.237
101676.864
101678.643
101680.188
101681.542
101683.011
101684.573
101686.328
101688.369
101690.603
101693.437
101696.098
101698.108
101699.582
101700.971
101702.72
101704.776
101705.903
101707.145
101709.28
101710.263
101618.026
101618.128
101618.246
101618.364
101618.486
101618.612
101618.745
101618.884
101619.029
101619.182
101619.343
101619.514
101619.695
101619.889
101620.097
101620.321
101620.565
101620.832
101621.125
101621.448
101621.807
101622.207
101622.653
101623.151
101623.707
101624.327
101625.018
101625.786
101626.635
101627.57
101628.595
101629.713
101630.928
101632.242
101633.657
101635.162
101636.751
101638.552
101640.698
101642.452
101643.612
101644.722
101645.89
101647.082
101648.219
101649.7
101651.642
101653.545
101655.599
101657.748
101659.787
101661.946
101664.285
101666.386
101668.09
101669.741
101671.357
101672.924
101674.424
101675.801
101677.215
101678.817
101680.737
101683.214
101685.378
101687.381
101689.454
101691.414
101693.427
101695.205
101696.892
101698.938
101701.116
101703.114
101704.981
101706.967
101708.454
101709.96
101712.31
101714.529
101633.005
101633.005
101633.007
101633.009
101633.012
101633.017
101633.022
101633.029
101633.037
101633.046
101633.056
101633.067
101633.08
101633.094
101633.109
101633.126
101633.144
101633.163
101633.184
101633.206
101633.23
101633.256
101633.283
101633.312
101633.344
101633.377
101633.412
101633.45
101633.49
101633.533
101633.578
101633.626
101633.677
101633.732
101633.79
101633.852
101633.918
101633.988
101634.063
101634.142
101634.228
101634.32
101634.419
101634.525
101634.639
101634.76
101634.89
101635.029
101635.178
101635.336
101635.504
101635.683
101635.872
101636.071
101636.279
101636.494
101636.714
101636.938
101637.163
101637.386
101637.597
101637.79
101637.95
101638.061
101638.107
101638.069
101637.937
101637.669
101637.266
101636.745
101636.116
101635.354
101634.431
101633.327
101632.02
101630.629
101629.608
101629.138
101628.688
101626.115
101636.754
101636.754
101636.756
101636.759
101636.763
101636.769
101636.776
101636.785
101636.795
101636.807
101636.82
101636.835
101636.851
101636.87
101636.889
101636.911
101636.934
101636.96
101636.987
101637.016
101637.047
101637.081
101637.117
101637.155
101637.196
101637.239
101637.286
101637.335
101637.387
101637.442
101637.501
101637.564
101637.63
101637.701
101637.775
101637.855
101637.94
101638.029
101638.125
101638.227
101638.335
101638.45
101638.573
101638.705
101638.845
101638.994
101639.152
101639.322
101639.502
101639.694
101639.899
101640.116
101640.347
101640.59
101640.845
101641.111
101641.388
101641.676
101641.97
101642.262
101642.548
101642.823
101643.081
101643.32
101643.537
101643.733
101643.821
101643.778
101643.631
101643.381
101643.037
101642.591
101642.061
101641.454
101640.751
101639.763
101638.727
101638.09
101637.55
101636.7
101640.322
101640.323
101640.325
101640.329
101640.334
101640.341
101640.349
101640.36
101640.372
101640.385
101640.401
101640.418
101640.438
101640.459
101640.482
101640.507
101640.535
101640.565
101640.597
101640.631
101640.668
101640.707
101640.749
101640.794
101640.842
101640.892
101640.946
101641.004
101641.064
101641.129
101641.197
101641.27
101641.347
101641.428
101641.515
101641.606
101641.703
101641.807
101641.917
101642.034
101642.158
101642.289
101642.428
101642.574
101642.73
101642.896
101643.073
101643.261
101643.461
101643.674
101643.9
101644.14
101644.396
101644.666
101644.953
101645.258
101645.579
101645.913
101646.256
101646.608
101646.965
101647.316
101647.645
101647.931
101648.149
101648.259
101648.362
101648.54
101648.731
101648.925
101648.96
101648.786
101648.494
101648.115
101647.682
101647.301
101646.819
101645.973
101645.204
101644.765
101643.676
101643.677
101643.679
101643.683
101643.689
101643.696
101643.706
101643.717
101643.73
101643.746
101643.763
101643.782
101643.803
101643.827
101643.852
101643.88
101643.91
101643.943
101643.978
101644.016
101644.056
101644.099
101644.145
101644.194
101644.246
101644.302
101644.36
101644.423
101644.489
101644.559
101644.633
101644.712
101644.795
101644.883
101644.976
101645.074
101645.179
101645.29
101645.407
101645.53
101645.66
101645.798
101645.943
101646.098
101646.261
101646.434
101646.617
101646.811
101647.016
101647.234
101647.466
101647.712
101647.973
101648.249
101648.538
101648.841
101649.157
101649.487
101649.83
101650.186
101650.549
101650.917
101651.285
101651.653
101652.023
101652.403
101652.748
101652.974
101653.053
101652.987
101653.003
101653.176
101653.389
101653.453
101653.305
101653.044
101652.686
101652.319
101651.933
101651.703
101646.797
101646.798
101646.8
101646.805
101646.811
101646.819
101646.829
101646.841
101646.855
101646.87
101646.889
101646.909
101646.931
101646.956
101646.982
101647.012
101647.043
101647.077
101647.114
101647.153
101647.196
101647.241
101647.289
101647.34
101647.394
101647.452
101647.513
101647.578
101647.647
101647.719
101647.796
101647.877
101647.963
101648.053
101648.149
101648.251
101648.358
101648.47
101648.588
101648.713
101648.844
101648.983
101649.129
101649.284
101649.447
101649.619
101649.801
101649.993
101650.195
101650.408
101650.633
101650.871
101651.121
101651.383
101651.656
101651.943
101652.243
101652.558
101652.89
101653.243
101653.613
101654.003
101654.415
101654.832
101655.237
101655.632
101656.009
101656.374
101656.732
101657.057
101657.247
101657.219
101656.969
101656.853
101657.007
101657.192
101657.479
101657.898
101658.312
101658.285
101649.669
101649.671
101649.673
101649.678
101649.684
101649.692
101649.702
101649.714
101649.729
101649.745
101649.763
101649.783
101649.806
101649.831
101649.858
101649.888
101649.92
101649.954
101649.991
101650.031
101650.074
101650.119
101650.168
101650.219
101650.274
101650.332
101650.393
101650.458
101650.527
101650.6
101650.676
101650.757
101650.842
101650.933
101651.028
101651.129
101651.234
101651.345
101651.461
101651.583
101651.713
101651.848
101651.992
101652.143
101652.303
101652.47
101652.647
101652.832
101653.026
101653.231
101653.448
101653.677
101653.917
101654.168
101654.433
101654.712
101655.005
101655.313
101655.637
101655.976
101656.327
101656.688
101657.055
101657.427
101657.804
101658.199
101658.63
101659.099
101659.578
101660.002
101660.37
101660.709
101661.052
101661.289
101661.284
101661.1
101660.943
101661.205
101661.836
101662.141
101652.296
101652.297
101652.3
101652.304
101652.31
101652.318
101652.328
101652.34
101652.354
101652.37
101652.388
101652.408
101652.431
101652.455
101652.482
101652.511
101652.542
101652.576
101652.613
101652.652
101652.694
101652.738
101652.786
101652.836
101652.89
101652.946
101653.007
101653.07
101653.137
101653.208
101653.282
101653.361
101653.444
101653.532
101653.624
101653.721
101653.822
101653.929
101654.041
101654.159
101654.283
101654.414
101654.551
101654.696
101654.848
101655.007
101655.173
101655.348
101655.531
101655.724
101655.928
101656.143
101656.368
101656.604
101656.853
101657.114
101657.389
101657.677
101657.98
101658.297
101658.628
101658.972
101659.327
101659.692
101660.071
101660.471
101660.894
101661.323
101661.737
101662.154
101662.603
101663.104
101663.601
101664.013
101664.367
101664.715
101665.01
101665.072
101664.996
101664.73
101654.676
101654.677
101654.679
101654.683
101654.689
101654.697
101654.706
101654.718
101654.731
101654.746
101654.763
101654.783
101654.804
101654.828
101654.853
101654.881
101654.912
101654.944
101654.979
101655.017
101655.057
101655.1
101655.145
101655.193
101655.245
101655.299
101655.356
101655.417
101655.481
101655.549
101655.62
101655.695
101655.774
101655.858
101655.945
101656.036
101656.132
101656.233
101656.339
101656.451
101656.568
101656.692
101656.821
101656.956
101657.096
101657.244
101657.399
101657.561
101657.732
101657.911
101658.1
101658.299
101658.506
101658.723
101658.951
101659.191
101659.444
101659.71
101659.99
101660.285
101660.597
101660.927
101661.275
101661.642
101662.031
101662.442
101662.865
101663.289
101663.717
101664.176
101664.66
101665.137
101665.569
101665.976
101666.43
101666.909
101667.29
101667.549
101667.808
101668.175
101656.822
101656.822
101656.824
101656.828
101656.833
101656.84
101656.848
101656.859
101656.871
101656.886
101656.902
101656.92
101656.94
101656.962
101656.986
101657.012
101657.041
101657.071
101657.104
101657.14
101657.178
101657.218
101657.261
101657.306
101657.354
101657.405
101657.459
101657.516
101657.576
101657.64
101657.706
101657.777
101657.85
101657.928
101658.009
101658.095
101658.186
101658.281
101658.38
101658.484
101658.592
101658.705
101658.823
101658.947
101659.078
101659.215
101659.358
101659.508
101659.666
101659.833
101660.008
101660.192
101660.385
101660.586
101660.798
101661.021
101661.257
101661.508
101661.772
101662.051
101662.347
101662.661
101662.995
101663.35
101663.728
101664.131
101664.561
101665.02
101665.509
101666.014
101666.517
101667.002
101667.474
101667.991
101668.524
101668.937
101669.278
101669.615
101669.995
101670.523
101658.741
101658.741
101658.742
101658.744
101658.749
101658.755
101658.762
101658.771
101658.782
101658.795
101658.81
101658.826
101658.844
101658.864
101658.886
101658.911
101658.937
101658.965
101658.995
101659.028
101659.063
101659.1
101659.139
101659.181
101659.226
101659.273
101659.323
101659.376
101659.432
101659.491
101659.553
101659.619
101659.688
101659.76
101659.835
101659.913
101659.995
101660.081
101660.171
101660.266
101660.365
101660.47
101660.579
101660.694
101660.813
101660.938
101661.071
101661.213
101661.362
101661.518
101661.682
101661.854
101662.035
101662.227
101662.431
101662.645
101662.867
101663.1
101663.346
101663.606
101663.885
101664.191
101664.523
101664.875
101665.249
101665.649
101666.079
101666.54
101667.035
101667.563
101668.123
101668.71
101669.318
101669.916
101670.444
101670.941
101671.461
101671.909
101672.243
101672.598
101660.45
101660.449
101660.449
101660.451
101660.454
101660.458
101660.464
101660.472
101660.481
101660.492
101660.505
101660.519
101660.536
101660.554
101660.573
101660.595
101660.618
101660.644
101660.672
101660.701
101660.733
101660.767
101660.803
101660.842
101660.882
101660.925
101660.971
101661.019
101661.069
101661.122
101661.178
101661.237
101661.298
101661.363
101661.43
101661.501
101661.576
101661.655
101661.738
101661.824
101661.913
101662.006
101662.105
101662.212
101662.325
101662.444
101662.568
101662.697
101662.835
101662.98
101663.132
101663.293
101663.464
101663.645
101663.838
101664.045
101664.267
101664.505
101664.763
101665.04
101665.326
101665.612
101665.911
101666.233
101666.581
101666.982
101667.436
101667.92
101668.437
101668.987
101669.574
101670.202
101670.867
101671.557
101672.263
101672.981
101673.636
101674.192
101674.563
101674.826
101661.959
101661.957
101661.955
101661.955
101661.956
101661.958
101661.963
101661.968
101661.975
101661.984
101661.994
101662.006
101662.02
101662.035
101662.052
101662.071
101662.091
101662.113
101662.137
101662.163
101662.191
101662.221
101662.253
101662.287
101662.323
101662.361
101662.401
101662.444
101662.489
101662.537
101662.587
101662.64
101662.696
101662.754
101662.817
101662.881
101662.946
101663.015
101663.087
101663.166
101663.251
101663.342
101663.434
101663.53
101663.632
101663.741
101663.856
101663.977
101664.105
101664.241
101664.385
101664.538
101664.701
101664.875
101665.059
101665.256
101665.466
101665.688
101665.925
101666.181
101666.467
101666.786
101667.135
101667.519
101667.935
101668.336
101668.731
101669.168
101669.641
101670.151
101670.76
101671.464
101672.205
101672.974
101673.761
101674.549
101675.311
101676.021
101676.611
101677.057
101663.279
101663.275
101663.271
101663.269
101663.267
101663.268
101663.269
101663.273
101663.277
101663.283
101663.291
101663.3
101663.31
101663.323
101663.337
101663.352
101663.369
101663.388
101663.409
101663.431
101663.455
101663.481
101663.509
101663.539
101663.57
101663.604
101663.64
101663.678
101663.719
101663.762
101663.807
101663.854
101663.902
101663.952
101664.004
101664.062
101664.124
101664.19
101664.259
101664.33
101664.402
101664.482
101664.566
101664.654
101664.747
101664.846
101664.951
101665.063
101665.183
101665.311
101665.448
101665.594
101665.751
101665.919
101666.099
101666.292
101666.498
101666.718
101666.953
101667.205
101667.476
101667.765
101668.074
101668.406
101668.771
101669.19
101669.667
101670.192
101670.784
101671.452
101672.107
101672.716
101673.372
101674.09
101674.848
101675.629
101676.492
101677.414
101678.244
101678.913
101664.416
101664.41
101664.403
101664.398
101664.394
101664.392
101664.391
101664.391
101664.392
101664.396
101664.4
101664.406
101664.414
101664.423
101664.433
101664.446
101664.459
101664.475
101664.492
101664.511
101664.532
101664.554
101664.579
101664.605
101664.633
101664.662
101664.693
101664.726
101664.76
101664.795
101664.833
101664.874
101664.919
101664.967
101665.016
101665.067
101665.119
101665.175
101665.234
101665.297
101665.363
101665.432
101665.507
101665.586
101665.67
101665.76
101665.856
101665.96
101666.071
101666.19
101666.319
101666.458
101666.607
101666.768