/*--------------------------------*- C++ -*----------------------------------*\
  =========                 |
  \\      /  F ield         | OpenFOAM: The Open Source CFD Toolbox
   \\    /   O peration     | Website:  https://openfoam.org
    \\  /    A nd           | Version:  8
     \\/     M anipulation  |
\*---------------------------------------------------------------------------*/
FoamFile
{
    version     2.0;
    format      ascii;
    class       surfaceScalarField;
    location    "0.076";
    object      phi;
}
// * * * * * * * * * * * * * * * * * * * * * * * * * * * * * * * * * * * * * //

dimensions      [1 0 -1 0 0 0 0];

internalField   nonuniform List<scalar> 
84340
(
-7.32948064e-08
3.71352859e-07
-2.98203396e-07
-2.92453208e-07
1.12820915e-06
-9.0928584e-07
-6.61714751e-07
1.91874765e-06
-1.54977642e-06
-1.1856435e-06
2.74043762e-06
-2.21684719e-06
-1.86916585e-06
3.59393166e-06
-2.91079058e-06
-2.71750855e-06
4.48128768e-06
-3.63336678e-06
-3.73619036e-06
5.40541292e-06
-4.38719325e-06
-4.9309902e-06
6.36956751e-06
-5.17527161e-06
-6.3078987e-06
7.37702001e-06
-6.00065994e-06
-7.87305537e-06
8.43081889e-06
-6.86625868e-06
-9.63267164e-06
9.53367358e-06
-7.77470608e-06
-1.15929388e-05
1.06879144e-05
-8.72835307e-06
-1.3759924e-05
1.18955068e-05
-9.72928986e-06
-1.61394546e-05
1.31580939e-05
-1.07793998e-05
-1.87369848e-05
1.44770431e-05
-1.18804237e-05
-2.15574669e-05
1.58535052e-05
-1.30340153e-05
-2.46051959e-05
1.7288455e-05
-1.42418067e-05
-2.78836591e-05
1.87827296e-05
-1.55054434e-05
-3.13953647e-05
2.03370605e-05
-1.68266366e-05
-3.51416605e-05
2.19520885e-05
-1.8207188e-05
-3.91225379e-05
2.36283736e-05
-1.96490148e-05
-4.33364152e-05
2.53663925e-05
-2.11541671e-05
-4.77798945e-05
2.71665179e-05
-2.27248354e-05
-5.24474967e-05
2.9028995e-05
-2.43633457e-05
-5.73313497e-05
3.09538839e-05
-2.60721531e-05
-6.24208366e-05
3.29409954e-05
-2.7853813e-05
-6.77022004e-05
3.49897892e-05
-2.97109273e-05
-7.31580732e-05
3.70992534e-05
-3.16460946e-05
-7.87669418e-05
3.92677338e-05
-3.36618093e-05
-8.4502484e-05
4.14926999e-05
-3.57603484e-05
-9.03328006e-05
4.37704793e-05
-3.79436211e-05
-9.6219653e-05
4.60960869e-05
-4.02129797e-05
-0.000102118059
4.84633502e-05
-4.25690011e-05
-0.000107976331
5.08650433e-05
-4.50111625e-05
-0.0001137357
5.32920733e-05
-4.75374569e-05
-0.000119327133
5.57308484e-05
-5.01445511e-05
-0.000124660486
5.81564908e-05
-5.28286949e-05
-0.00012963868
6.05578472e-05
-5.55856813e-05
-0.000134165278
6.2921082e-05
-5.84009981e-05
-0.000138149519
6.52398451e-05
-6.12626451e-05
-0.000141483476
6.74526763e-05
-6.41262182e-05
-0.000143968756
6.9475662e-05
-6.69983264e-05
-0.000145288999
7.11936579e-05
-6.98821298e-05
-0.000145113732
7.25608243e-05
-7.27456379e-05
-0.000143106262
7.34819904e-05
-7.54997796e-05
-0.000138887655
7.3825314e-05
-7.80551475e-05
-0.000132082802
7.3442201e-05
-8.02592659e-05
-0.000122239703
7.21863535e-05
-8.20426627e-05
-0.000108808705
6.98912518e-05
-8.33365821e-05
-9.12545192e-05
6.63660981e-05
-8.3935762e-05
-6.89462763e-05
6.13040857e-05
-8.36290583e-05
-4.13501246e-05
5.46014436e-05
-8.22156207e-05
-8.28511023e-06
4.64332216e-05
-7.95176692e-05
3.11555669e-05
3.56398423e-05
-7.51014851e-05
7.80043391e-05
2.20977748e-05
-6.8968792e-05
0.000133431081
5.22896819e-06
-6.06790775e-05
0.000198748903
-1.49386174e-05
-5.04044654e-05
0.000275491206
-3.99318515e-05
-3.6837739e-05
0.00036555239
-7.02663628e-05
-1.98239825e-05
0.000470544651
-0.000106466836
1.44370175e-06
0.000592703235
-0.000149119148
2.69278448e-05
0.000733484479
-0.000199480743
5.86648512e-05
0.000895407296
-0.000258667424
9.67076127e-05
0.0010808246
-0.000328057424
0.000142600624
0.00129345133
-0.00040950571
0.000196836945
0.00153688603
-0.000504318443
0.000260842033
0.00181003687
-0.000608350579
0.000335160168
0.00211588857
-0.000731077025
0.000425187147
0.00246649622
-0.000878700156
0.00052805477
0.00284062804
-0.00100170728
0.000627537795
0.00321403158
-0.00117404611
0.000800604518
0.00368563555
-0.00145851261
0.000986869205
0.00426892115
-0.00157912287
0.000995796294
0.00469288089
-0.00163210564
0.00120810341
0.00502500805
-0.00200766695
0.00167549565
0.00559926023
-0.00242052713
0.00184623441
0.00639660169
-0.00249024119
0.00169286356
0.00698400168
-0.00253003939
0.00194260468
0.00722458144
-0.00273091098
0.00249029486
-0.00295534066
0.00280228319
0.00737761255
-5.99065198e-08
4.30945994e-07
-2.38587339e-07
1.3064397e-06
-5.39241021e-07
2.21887853e-06
-9.65412586e-07
3.16601984e-06
-1.52080527e-06
4.14867269e-06
-2.20943559e-06
5.1692057e-06
-3.03551649e-06
6.2307203e-06
-4.00340671e-06
7.33662076e-06
-5.11754011e-06
8.49024951e-06
-6.38234246e-06
9.69464607e-06
-7.80213414e-06
1.09524137e-05
-9.3810193e-06
1.22656659e-05
-1.11227595e-05
1.36360249e-05
-1.30306297e-05
1.50646468e-05
-1.51072688e-05
1.65522624e-05
-1.73544989e-05
1.80992052e-05
-1.97731439e-05
1.97054506e-05
-2.23628239e-05
2.1370632e-05
-2.51217283e-05
2.3094049e-05
-2.80463716e-05
2.48746667e-05
-3.11313218e-05
2.67110977e-05
-3.43688913e-05
2.86015621e-05
-3.77488057e-05
3.05438445e-05
-4.12578164e-05
3.25352151e-05
-4.48792685e-05
3.45723257e-05
-4.85926111e-05
3.66510904e-05
-5.23728293e-05
3.87665025e-05
-5.61898152e-05
4.09124562e-05
-6.00077678e-05
4.30816013e-05
-6.37846903e-05
4.52652107e-05
-6.74717754e-05
4.74527995e-05
-7.10120523e-05
4.96312212e-05
-7.43376447e-05
5.17833814e-05
-7.73727889e-05
5.38941554e-05
-8.00346346e-05
5.59474119e-05
-8.22383745e-05
5.79276527e-05
-8.38992511e-05
5.98099425e-05
-8.4874183e-05
6.15247089e-05
-8.49853891e-05
6.30235068e-05
-8.39675812e-05
6.4212598e-05
-8.15469314e-05
6.50218785e-05
-7.74431679e-05
6.53608805e-05
-7.13804551e-05
6.51189791e-05
-6.30173475e-05
6.41848383e-05
-5.19595374e-05
6.24103138e-05
-3.77929595e-05
5.96438556e-05
-2.00130543e-05
5.56463257e-05
1.77761383e-06
5.0378614e-05
2.81253189e-05
4.35252687e-05
5.91562986e-05
3.53156084e-05
9.58994433e-05
2.45405162e-05
0.000139286628
1.11929397e-05
0.000190473164
-4.77621878e-06
0.000250680371
-2.45918539e-05
0.000321395932
-4.86437308e-05
0.000403996491
-7.73989822e-05
0.00050039597
-0.000111366968
0.000611805222
-0.000151371348
0.000739799235
-0.000198292143
0.000886320631
-0.00025302165
0.00105369361
-0.000316527283
0.00124431041
-0.000390134199
0.00146073504
-0.000475129297
0.00170532896
-0.000572686684
0.00198082921
-0.00068503886
0.00229125364
-0.000814773833
0.00263447178
-0.000951598789
0.0030007607
-0.00109739564
0.00340175262
-0.00127972236
0.00385503645
-0.00145502238
0.00428393584
-0.0016029785
0.00468897084
-0.00186358198
0.00523877975
-0.00212896653
0.00584094423
-0.00223430447
0.00619855643
-0.00236531203
0.00640039717
-0.00262240149
0.00671600802
-0.00280589232
0.0071059854
-0.00292004854
0.00738841961
-0.00301336527
-0.00311420001
0.00754726557
-4.74513008e-08
4.78151014e-07
-1.8838576e-07
1.44702101e-06
-4.24683401e-07
2.45476683e-06
-7.58547058e-07
3.49942208e-06
-1.19231986e-06
4.58193456e-06
-1.72833888e-06
5.70466472e-06
-2.36908085e-06
6.87085168e-06
-3.11708267e-06
8.08395844e-06
-3.97479048e-06
9.34723548e-06
-4.94445417e-06
1.06635253e-05
-6.0280083e-06
1.2035115e-05
-7.22693772e-06
1.3463668e-05
-8.542129e-06
1.49502074e-05
-9.97370317e-06
1.64951235e-05
-1.15208294e-05
1.80981943e-05
-1.31815236e-05
1.97586001e-05
-1.49524166e-05
2.14749302e-05
-1.68285085e-05
2.32451869e-05
-1.88028885e-05
2.50667581e-05
-2.08664266e-05
2.69363893e-05
-2.30074332e-05
2.88501327e-05
-2.52112753e-05
3.08032644e-05
-2.74599346e-05
3.27901828e-05
-2.97314653e-05
3.48042299e-05
-3.19994147e-05
3.68375495e-05
-3.42322098e-05
3.88809348e-05
-3.63925162e-05
4.09236172e-05
-3.84364661e-05
4.29529568e-05
-4.03139187e-05
4.49553238e-05
-4.19685934e-05
4.6915849e-05
-4.33376358e-05
4.88174966e-05
-4.4355164e-05
5.06441007e-05
-4.49522903e-05
5.23755129e-05
-4.50230495e-05
5.39595152e-05
-4.44371469e-05
5.5355706e-05
-4.30236648e-05
5.65079278e-05
-4.05759332e-05
5.73554665e-05
-3.68791405e-05
5.78206688e-05
-3.16817187e-05
5.7818239e-05
-2.47226621e-05
5.72450522e-05
-1.57226322e-05
5.60127072e-05
-4.36203956e-06
5.39904575e-05
9.71159863e-06
5.10347655e-05
2.69553294e-05
4.69297587e-05
4.77786077e-05
4.15748695e-05
7.22974022e-05
3.51119978e-05
0.000101263874
2.66657712e-05
0.000135434263
1.61934203e-05
0.00017563768
3.30636322e-06
0.000222848754
-1.19122174e-05
0.000278213694
-3.08426047e-05
0.000343037626
-5.36503978e-05
0.00041900449
-8.07637588e-05
0.000507101912
-0.00011271118
0.000608635435
-0.000150200431
0.000725163891
-0.000193951885
0.000858534893
-0.000244763786
0.00101062627
-0.000303489663
0.00118333655
-0.000371030521
0.00137885395
-0.000448568401
0.00159939947
-0.000537102098
0.00184673084
-0.000637492858
0.00212243219
-0.000750856284
0.00242707461
-0.000877353423
0.00276098683
-0.00101897487
0.00312467345
-0.0011784841
0.00352196348
-0.00134891313
0.00393743529
-0.0015128928
0.00434897833
-0.00169129228
0.00479762645
-0.00190369931
0.00527034899
-0.00207572991
0.00565434844
-0.00224760955
0.00597521854
-0.00244986923
0.00634621178
-0.0026053368
0.00669280797
-0.0027119411
0.00688087413
-0.00281049273
0.00699652385
-0.00292156623
0.00711769785
-0.00304124307
0.00725423672
-0.0031499222
-0.00323738305
0.00737741091
-3.92570993e-08
5.16987151e-07
-1.54574096e-07
1.56173493e-06
-3.46332954e-07
2.64582757e-06
-6.15077548e-07
3.76738194e-06
-9.61519922e-07
4.92751146e-06
-1.3863253e-06
6.12852664e-06
-1.88997202e-06
7.37347694e-06
-2.47263641e-06
8.66552131e-06
-3.13441433e-06
1.00078281e-05
-3.87497405e-06
1.14028113e-05
-4.69340654e-06
1.28521797e-05
-5.58806903e-06
1.43568625e-05
-6.55640264e-06
1.59169661e-05
-7.59473984e-06
1.75317715e-05
-8.69808747e-06
1.91997306e-05
-9.85987878e-06
2.09184495e-05
-1.10717125e-05
2.26846825e-05
-1.23230487e-05
2.44942925e-05
-1.36008667e-05
2.63421856e-05
-1.48892279e-05
2.82221889e-05
-1.61687731e-05
3.01269327e-05
-1.74162147e-05
3.20477648e-05
-1.86039646e-05
3.3974781e-05
-1.97000347e-05
3.58969223e-05
-2.06679347e-05
3.78018247e-05
-2.14664288e-05
3.9675537e-05
-2.20495135e-05
4.15025365e-05
-2.23672674e-05
4.32662522e-05
-2.23521672e-05
4.4935442e-05
-2.19239601e-05
4.64825205e-05
-2.09864695e-05
4.78745267e-05
-1.94204361e-05
4.9072173e-05
-1.7078416e-05
5.00271321e-05
-1.38045902e-05
5.06788617e-05
-9.41601738e-06
5.09597897e-05
-3.7044475e-06
5.07884222e-05
3.56856243e-06
5.00738868e-05
1.26468052e-05
4.87332039e-05
2.3807876e-05
4.66472487e-05
3.73590515e-05
4.3683217e-05
5.37064434e-05
3.96538797e-05
7.32447309e-05
3.44398828e-05
9.6115254e-05
2.81510383e-05
0.000123040301
1.99908319e-05
0.000154677884
9.92270844e-06
0.000191828571
-2.0544435e-06
0.000235367873
-1.68905117e-05
0.000286362591
-3.48193673e-05
0.000345889078
-5.62393686e-05
0.0004155258
-8.15693477e-05
0.00049606237
-0.000111400765
0.000588733953
-0.00014634473
0.000694984804
-0.000187038572
0.000816419213
-0.000234170683
0.000954690205
-0.000288497436
0.0011115539
-0.000350842281
0.00128881184
-0.000422049274
0.00148840915
-0.00050311527
0.00171211146
-0.000594760343
0.00196124781
-0.000697729877
0.00223675776
-0.000812635282
0.00253817813
-0.000938934942
0.00286454057
-0.00107723961
0.00321335047
-0.00122618381
0.00358294682
-0.00138859201
0.00396464774
-0.00156020641
0.0043651188
-0.00174940682
0.00477837948
-0.00192617717
0.00517344936
-0.00208638697
0.0055196481
-0.00224992285
0.00584054621
-0.00239665323
0.00610810166
-0.00251520042
0.00629168749
-0.00263349244
0.00643715718
-0.00275083437
0.00658652395
-0.00286133385
0.00673661684
-0.00296061069
0.00686214834
-0.00304712078
0.00695485386
-0.00313396731
0.00704103018
-0.00323611525
-0.00333188656
0.00713552493
-3.61462667e-08
5.5280597e-07
-1.40811711e-07
1.66592942e-06
-3.12685565e-07
2.81715477e-06
-5.50521108e-07
4.00460128e-06
-8.52979033e-07
5.22928752e-06
-1.21871877e-06
6.49351979e-06
-1.64608319e-06
7.80002832e-06
-2.13294748e-06
9.15150269e-06
-2.67635869e-06
1.05502821e-05
-3.27286178e-06
1.19982771e-05
-3.91808344e-06
1.34962774e-05
-4.60653424e-06
1.50440956e-05
-5.33139431e-06
1.66405068e-05
-6.08427288e-06
1.82832209e-05
-6.85493973e-06
1.99688496e-05
-7.63102132e-06
2.16928554e-05
-8.39763273e-06
2.34494804e-05
-9.13699063e-06
2.52316893e-05
-9.82812765e-06
2.70312032e-05
-1.04467587e-05
2.88385295e-05
-1.09650569e-05
3.06427561e-05
-1.13512607e-05
3.24313042e-05
-1.15683066e-05
3.41889611e-05
-1.15705312e-05
3.589606e-05
-1.13051455e-05
3.75331155e-05
-1.0710155e-05
3.90769742e-05
-9.71198742e-06
4.05005335e-05
-8.22124756e-06
4.17713949e-05
-6.14059054e-06
4.28503611e-05
-3.3538371e-06
4.36910237e-05
2.76886246e-07
4.42387194e-05
4.91440061e-06
4.44291866e-05
1.07481016e-05
4.41875432e-05
1.79720038e-05
4.34486495e-05
2.68093844e-05
4.21156451e-05
3.75096064e-05
4.00809545e-05
5.03534151e-05
3.72223171e-05
6.57034156e-05
3.33749047e-05
8.39332514e-05
2.84085186e-05
0.000105214374
2.23925485e-05
0.000130221216
1.46369947e-05
0.000159555756
5.09480686e-06
0.000193916209
-6.2207952e-06
0.000234082388
-2.01876555e-05
0.000280978016
-3.69860925e-05
0.000335887759
-5.69782546e-05
0.000399573994
-8.05917379e-05
0.00047307364
-0.000108334953
0.000557571081
-0.000140753733
0.000654409812
-0.000178426027
0.000764973553
-0.000221983459
0.000890709544
-0.000272100511
0.00103312807
-0.000329477617
0.00119379345
-0.000394857271
0.00137427592
-0.000469001923
0.00157620273
-0.000552791712
0.00180098722
-0.00064685582
0.00204956327
-0.000751711725
0.00232210574
-0.000867321906
0.0026176345
-0.000993276678
0.00293443272
-0.00112945097
0.00326945198
-0.00127397142
0.00361890159
-0.00142670671
0.00397705264
-0.00158435299
0.00434170723
-0.0017532658
0.00470322618
-0.0019217451
0.00503580884
-0.00208200826
0.00533339369
-0.00222378234
0.00559530703
-0.00234833058
0.00579948874
-0.00245413587
0.00596184656
-0.00255903275
0.00610156847
-0.00265494692
0.00621931897
-0.00275128052
0.00632183831
-0.00285339013
0.00641703294
-0.0029565546
0.00650997217
-0.0030535726
0.00660399212
-0.00314116131
0.00669718584
-0.00322718087
0.00678591921
-0.00332486627
-0.00342631248
0.00688033565
-3.7125471e-08
5.89396692e-07
-1.42767964e-07
1.77081098e-06
-3.13773615e-07
2.98728367e-06
-5.46889879e-07
4.23673542e-06
-8.38555147e-07
5.51987305e-06
-1.18479923e-06
6.83859033e-06
-1.58126095e-06
8.19522235e-06
-2.02298958e-06
9.59186642e-06
-2.50381539e-06
1.1029642e-05
-3.0162941e-06
1.25091841e-05
-3.55172301e-06
1.40300228e-05
-4.09975205e-06
1.55903224e-05
-4.64810358e-06
1.718693e-05
-5.18227412e-06
1.88153291e-05
-5.68520319e-06
2.04695743e-05
-6.13696378e-06
2.21422594e-05
-6.51459418e-06
2.38245913e-05
-6.79142878e-06
2.5505837e-05
-6.93555074e-06
2.71724615e-05
-6.91033598e-06
2.88102585e-05
-6.67341624e-06
3.04025731e-05
-6.17543179e-06
3.19298372e-05
-5.35942111e-06
3.33692358e-05
-4.16112721e-06
3.46938025e-05
-2.50371541e-06
3.58714773e-05
-2.95815836e-07
3.68645674e-05
2.57067851e-06
3.76292122e-05
6.22359048e-06
3.81133112e-05
1.08001958e-05
3.82682291e-05
1.64574274e-05
3.8027884e-05
2.33740434e-05
3.73157822e-05
3.17510662e-05
3.60453999e-05
4.18134922e-05
3.41178793e-05
5.38332743e-05
3.14211204e-05
6.81334549e-05
2.78071813e-05
8.50648971e-05
2.31406312e-05
0.000104816245
1.74614274e-05
0.000128001494
1.01795975e-05
0.000155166466
1.23296962e-06
0.000186923689
-9.37610009e-06
0.000223969378
-2.24210636e-05
0.000267106899
-3.80559666e-05
0.000317480543
-5.66086133e-05
0.000375770106
-7.8492351e-05
0.000442928755
-0.000104160865
0.000520038736
-0.000134105386
0.00060828504
-0.000168856276
0.000708909242
-0.000208978437
0.000823204246
-0.000255068929
0.000952501194
-0.000307743959
0.00109811284
-0.000367616794
0.00126131205
-0.000435322096
0.00144328899
-0.000511477705
0.00164521766
-0.000596809632
0.00186795289
-0.000691760095
0.00211187794
-0.000796737881
0.00237667373
-0.000911671158
0.0026610741
-0.00103613036
0.00296270689
-0.00116897206
0.00327779471
-0.0013083813
0.00360123436
-0.00145290726
0.00392835353
-0.0016011075
0.00425250608
-0.00175087693
0.00457013862
-0.00190200332
0.00485766024
-0.00204080462
0.00510265891
-0.00216676136
0.00529518182
-0.0022745537
0.00544991379
-0.00237854602
0.00558700029
-0.00248544666
0.00571785942
-0.00258501747
0.00583771383
-0.00267890979
0.00594848502
-0.0027657475
0.00604156286
-0.00284438703
0.00611798041
-0.00292983252
0.00618244284
-0.0030210401
0.00624698227
-0.00311813092
0.00632119781
-0.00321540314
0.00640775447
-0.00331376045
0.00650113701
-0.00341826173
-0.00352879375
0.00660360947
-3.969176e-08
6.28644122e-07
-1.50998588e-07
1.88148058e-06
-3.28567204e-07
3.16411419e-06
-5.66716029e-07
4.47405384e-06
-8.59179571e-07
5.8114197e-06
-1.19895712e-06
7.17736675e-06
-1.57811623e-06
8.57329509e-06
-1.98762706e-06
1.00002012e-05
-2.41738467e-06
1.14581282e-05
-2.85514313e-06
1.29455699e-05
-3.28650585e-06
1.44599047e-05
-3.69477798e-06
1.59969973e-05
-4.06065899e-06
1.75510882e-05
-4.36168136e-06
1.91144939e-05
-4.57177375e-06
2.06776687e-05
-4.66060055e-06
2.2228937e-05
-4.59320251e-06
2.37548766e-05
-4.32939749e-06
2.52395422e-05
-3.82352305e-06
2.66639163e-05
-3.02238444e-06
2.80062539e-05
-1.86331657e-06
2.92404303e-05
-2.73055851e-07
3.03362729e-05
1.83375238e-06
3.12588834e-05
4.55289767e-06
3.19708635e-05
7.99370291e-06
3.24266105e-05
1.22810475e-05
3.25728755e-05
1.75570429e-05
3.2348568e-05
2.39821754e-05
3.16832108e-05
3.17487397e-05
3.04963591e-05
4.10758322e-05
2.86951283e-05
5.22064064e-05
2.61791633e-05
6.54268906e-05
2.28184738e-05
8.10528749e-05
1.84850155e-05
9.92918715e-05
1.31747606e-05
0.0001206956
6.3957052e-06
0.000145756946
-1.92884333e-06
0.000175014843
-1.18052123e-05
0.00020908708
-2.39020643e-05
0.000248674669
-3.83646831e-05
0.00029477759
-5.54897589e-05
0.000348010973
-7.56658964e-05
0.000409243493
-9.93006852e-05
0.000479460731
-0.000126838842
0.000559716489
-0.000158761954
0.000651123895
-0.00019558297
0.000754840786
-0.000237837771
0.000872037607
-0.000286069339
0.00100385895
-0.000340816743
0.00115137617
-0.000402603797
0.00131554308
-0.000471929208
0.00149713814
-0.000549230982
0.00169682491
-0.000635028712
0.00191492304
-0.00072959541
0.00215125318
-0.000833158104
0.00240482236
-0.000945346519
0.00267383838
-0.00106577025
0.00295543572
-0.00119328421
0.00324609371
-0.00132680366
0.00354069063
-0.00146358421
0.00383314142
-0.00160084739
0.00411684404
-0.00173662563
0.00438655877
-0.00187083871
0.00463082817
-0.00199516287
0.00483973384
-0.00211092552
0.00500574036
-0.00220682972
0.00513523508
-0.00229627942
0.00524792118
-0.002387265
0.00534750614
-0.00247815479
0.00543351149
-0.00257148216
0.00551339646
-0.00266493395
0.00559204487
-0.00275758455
0.00567230941
-0.00284603714
0.00575384008
-0.00292594421
0.00583360443
-0.00300962999
0.00591164258
-0.00309910939
0.00598472331
-0.0031912351
0.00605980007
-0.00329050015
0.00613749844
-0.00339147429
0.0062190292
-0.00349980695
-0.00362213473
0.0063123576
-4.12913784e-08
6.69308426e-07
-1.54356966e-07
1.99365619e-06
-3.30998777e-07
3.33973246e-06
-5.62505408e-07
4.70441535e-06
-8.39224048e-07
6.08688034e-06
-1.15032999e-06
7.48710608e-06
-1.48354379e-06
8.90503393e-06
-1.82481761e-06
1.03398884e-05
-2.15807972e-06
1.17896866e-05
-2.46491244e-06
1.32505766e-05
-2.72381823e-06
1.47168558e-05
-2.90995399e-06
1.61810393e-05
-2.99464456e-06
1.76335362e-05
-2.94469223e-06
1.90621431e-05
-2.72178198e-06
2.0452199e-05
-2.28200394e-06
2.17864277e-05
-1.57460185e-06
2.30445547e-05
-5.40548157e-07
2.42023696e-05
8.87417736e-07
2.52326226e-05
2.78634914e-06
2.61037741e-05
5.24449941e-06
2.67784967e-05
8.36231757e-06
2.72144192e-05
1.2254508e-05
2.73623894e-05
1.70548128e-05
2.71659719e-05
2.29164509e-05
2.65600843e-05
3.00137722e-05
2.54703457e-05
3.85452204e-05
2.38115692e-05
4.87359875e-05
2.14865336e-05
6.08503903e-05
1.83756691e-05
7.50990638e-05
1.44397393e-05
9.1822027e-05
9.44901193e-06
0.000111453554
3.17937282e-06
0.000134410242
-4.47963532e-06
0.000161176103
-1.35996613e-05
0.000192305182
-2.4742595e-05
0.000228412845
-3.80463588e-05
0.000270370469
-5.37733597e-05
0.00031873453
-7.22773622e-05
0.000374286655
-9.39287985e-05
0.000437915798
-0.000119131696
0.000510558115
-0.000148321876
0.000593204271
-0.000181961382
0.000686884257
-0.000220534204
0.000792637248
-0.00026453114
0.00091147661
-0.000314439323
0.00104434927
-0.000370728196
0.00119209304
-0.000433831612
0.00135538473
-0.000504127661
0.00153468011
-0.00058191921
0.00173018865
-0.000667458728
0.00194173458
-0.000760797801
0.00216857833
-0.00086189214
0.0024092992
-0.000970334775
0.00266179265
-0.00108566903
0.00292290715
-0.0012064777
0.00318921671
-0.00133209593
0.00345523179
-0.00145931506
0.00371783393
-0.00158942147
0.00396972097
-0.00171548696
0.00420384339
-0.00183498532
0.00441141661
-0.00194421492
0.00458823181
-0.00204767087
0.00473283754
-0.00213978391
0.00484332484
-0.00222143046
0.00493584831
-0.00229937719
0.00502010662
-0.00238056421
0.00509694662
-0.00246413031
0.00516703159
-0.00254826209
0.00522703146
-0.00263150434
0.00527999455
-0.00271792191
0.00533105999
-0.00280867271
0.00538630624
-0.0029013038
0.00545274974
-0.00299241259
0.00552667038
-0.00308357933
0.00560607717
-0.00317854003
0.00569559829
-0.00328077555
0.00578954297
-0.00338446787
0.00588302005
-0.00348497156
0.00597525411
-0.00359205866
-0.00372875818
0.00608186329
-3.80977267e-08
7.06828151e-07
-1.38956423e-07
2.09368913e-06
-2.91065505e-07
3.49088757e-06
-4.81960795e-07
4.89423955e-06
-6.97772017e-07
6.30151099e-06
-9.22891367e-07
7.71093871e-06
-1.13954289e-06
9.1202919e-06
-1.32732995e-06
1.05261702e-05
-1.46275485e-06
1.19234885e-05
-1.518871e-06
1.33049461e-05
-1.46476571e-06
1.46608718e-05
-1.26471807e-06
1.59789698e-05
-8.77382625e-07
1.72440255e-05
-2.55243407e-07
1.84376671e-05
6.56039613e-07
1.95384069e-05
1.91878349e-06
2.05209905e-05
3.60429334e-06
2.13561551e-05
5.79384058e-06
2.20097263e-05
8.58077773e-06
2.24423712e-05
1.2071814e-05
2.26091883e-05
1.63888385e-05
2.2457673e-05
2.16710597e-05
2.19281365e-05
2.80768859e-05
2.09522244e-05
3.57863021e-05
1.94519231e-05
4.50064473e-05
1.73350001e-05
5.59656962e-05
1.45058251e-05
6.88558264e-05
1.0915797e-05
8.40342905e-05
6.30209812e-06
0.000101835592
5.68106828e-07
0.000122642182
-6.37352001e-06
0.000146896581
-1.48125583e-05
0.000175080416
-2.50121223e-05
0.000207741181
-3.71485577e-05
0.000245625636
-5.14927999e-05
0.000289234636
-6.83608377e-05
0.000339260537
-8.80820918e-05
0.00039649495
-0.000111018232
0.000461767767
-0.00013756132
0.000535955071
-0.000168127936
0.000619965962
-0.000203155099
0.000714718861
-0.000243087963
0.000821114565
-0.000288370962
0.000940000674
-0.000339434875
0.00107213362
-0.000396679344
0.001218131
-0.000460452635
0.00137841663
-0.000531030448
0.00155316592
-0.000608598291
0.00174225254
-0.00069323259
0.00194521113
-0.000784896452
0.00216103866
-0.000883304338
0.00238806866
-0.000987845026
0.00262377354
-0.00109761352
0.00286489293
-0.00121147007
0.00310794081
-0.00132873246
0.00334902935
-0.00144758159
0.00358602081
-0.00156910276
0.00381159657
-0.00168490578
0.00401576121
-0.00179360016
0.00419315724
-0.00189289752
0.00434277216
-0.00198461643
0.00446750897
-0.00206896621
0.00456964768
-0.00214982568
0.00465409692
-0.00222425509
0.00472982035
-0.00229717598
0.00479612805
-0.0023657064
0.00485293535
-0.00243739372
0.00490360716
-0.00251482484
0.00495118638
-0.00259586582
0.00499984545
-0.00268018672
0.00504783565
-0.00276593516
0.0050955263
-0.002856391
0.0051454732
-0.00295127952
0.00520297603
-0.00304994237
0.00526950433
-0.00315013161
0.00534566473
-0.00325472377
0.00543797495
-0.00337310827
0.00554683456
-0.0034933482
0.00566136329
-0.0035995199
0.00577159999
-0.00370231552
-0.00383280288
0.00587562493
-2.98446577e-08
7.35959883e-07
-1.02103693e-07
2.16493696e-06
-2.00709839e-07
3.58833119e-06
-3.08162273e-07
5.00039151e-06
-4.04904855e-07
6.39682407e-06
-4.68860704e-07
7.77334037e-06
-4.74880935e-07
9.12463351e-06
-3.94157205e-07
1.04436388e-05
-1.93572075e-07
1.17209605e-05
1.64937012e-07
1.29443524e-05
7.24942818e-07
1.40986308e-05
1.53632495e-06
1.51651923e-05
2.65605739e-06
1.61217272e-05
4.14911184e-06
1.69418655e-05
6.08952578e-06
1.7595055e-05
8.56216148e-06
1.80452143e-05
1.16637976e-05
1.82511603e-05
1.55047845e-05
1.81651488e-05
2.02108308e-05
1.77324897e-05
2.5925226e-05
1.68906986e-05
3.28100328e-05
1.55684965e-05
4.10507873e-05
1.36827232e-05
5.08557784e-05
1.11422614e-05
6.24086182e-05
7.89377205e-06
7.60160668e-05
3.72193126e-06
9.19818415e-05
-1.46588851e-06
0.000110643772
-7.75249073e-06
0.000132388271
-1.54492056e-05
0.000157633781
-2.46846487e-05
0.000186933753
-3.56812146e-05
0.000220793066
-4.86801007e-05
0.000259725334
-6.39531582e-05
0.000304363991
-8.17965513e-05
0.000355396805
-0.000102535557
0.00041354651
-0.000126521142
0.000479579256
-0.000154126111
0.000554291923
-0.000185742838
0.000638491492
-0.000221773505
0.000732972699
-0.000262622443
0.000838488849
-0.000308685246
0.000955720042
-0.000360333853
0.00108523235
-0.00041789867
0.00122742873
-0.000481647366
0.00138249393
-0.000551761336
0.0015503365
-0.000628312736
0.00173053932
-0.000711251668
0.00192234381
-0.000800421943
0.00212456062
-0.000895468438
0.00233544463
-0.000995798676
0.00255259951
-0.0011004767
0.0027730189
-0.00120828128
0.0029930615
-0.00131767253
0.00320862013
-0.00142704499
0.00341516655
-0.00153529526
0.00360983593
-0.00164226642
0.00378205436
-0.00174133527
0.00392912815
-0.00183199365
0.00405046449
-0.0019149535
0.00415388181
-0.00199633534
0.00424613748
-0.00207689053
0.00433092201
-0.00215376898
0.00440864583
-0.00222756997
0.00447709891
-0.00229272791
0.00453651654
-0.00235661378
0.00459160317
-0.00242081412
0.00464278653
-0.00248860056
0.00469131884
-0.00256337779
0.00473712981
-0.00264169564
0.00478535209
-0.00272843015
0.00483857876
-0.00281918357
0.00489107634
-0.00290891246
0.00494568093
-0.003005908
0.00500530638
-0.00310959149
0.00507287186
-0.00321772093
0.0051493092
-0.0033311847
0.00522872297
-0.00345254316
0.00531690402
-0.00358154918
0.00542411942
-0.00370675668
0.00553712434
-0.00381534271
-0.00392858381
0.00563288678
-1.51492074e-08
7.50400709e-07
-3.89184935e-08
2.18769825e-06
-4.93055781e-08
3.5975567e-06
-2.21591568e-08
4.97194297e-06
6.95610263e-08
6.30366976e-06
2.56415104e-07
7.58492371e-06
5.73123036e-07
8.80623389e-06
1.05922746e-06
9.95570927e-06
1.75983024e-06
1.10183925e-05
2.72630099e-06
1.19757678e-05
4.01731854e-06
1.28053409e-05
5.69985117e-06
1.34802182e-05
7.84991953e-06
1.39690389e-05
1.05546335e-05
1.42343417e-05
1.39130746e-05
1.4233598e-05
1.80378822e-05
1.39171712e-05
2.30570151e-05
1.32285599e-05
2.91152967e-05
1.21031536e-05
3.63776419e-05
1.04661716e-05
4.50312001e-05
8.23288785e-06
5.5249232e-05
5.34590985e-06
6.72974447e-05
1.62967267e-06
8.14419877e-05
-3.00741116e-06
9.79810191e-05
-8.65075421e-06
0.00011725063
-1.55535679e-05
0.000139628118
-2.38496574e-05
0.000165595732
-3.37268003e-05
0.000195544997
-4.54056045e-05
0.000229978675
-5.91259243e-05
0.000269441192
-7.51518174e-05
0.000314525029
-9.37725433e-05
0.000365862796
-0.000115300087
0.00042412324
-0.000140066731
0.00049000058
-0.000168423207
0.000564199675
-0.000200731124
0.000647418257
-0.000237356175
0.000740322773
-0.000278659438
0.000843521519
-0.000324984951
0.000957530472
-0.000376644718
0.00108273195
-0.000433900682
0.00121932753
-0.000496944015
0.00136728575
-0.000565872126
0.00152628699
-0.000640664471
0.00169566896
-0.000721159917
0.00187438564
-0.000807046896
0.00206102233
-0.000897906307
0.00225369061
-0.000993107864
0.00244995794
-0.00109175284
0.00264685174
-0.00119270907
0.00284105891
-0.00129470011
0.00302905259
-0.00139629096
0.00320715012
-0.00149578597
0.00337183873
-0.00159174932
0.0035186119
-0.00168208361
0.00364289735
-0.00176656804
0.00374331165
-0.00184176804
0.00382802566
-0.00191672737
0.00390474625
-0.00199169311
0.00397497906
-0.00206658658
0.00403953359
-0.00214146481
0.0041002965
-0.00221454932
0.00415795835
-0.00228524898
0.0042116513
-0.0023464408
0.00426411933
-0.00240910124
0.00431735613
-0.00247406955
0.00437284803
-0.00254411161
0.00442914457
-0.0026196933
0.00448731481
-0.00269988404
0.00454009275
-0.00278122783
0.00459441243
-0.00287352528
0.00465603436
-0.00297055664
0.00472162312
-0.00307151924
0.00478956717
-0.00317755814
0.00486104529
-0.00328922194
0.00492977757
-0.00339993965
0.0049895696
-0.00351235746
0.00504654357
-0.00363854567
0.0051169599
-0.00377719958
0.00520450581
-0.00390291564
-0.00401820516
0.00529410888
6.55598458e-09
7.43056516e-07
5.33224278e-08
2.13981623e-06
1.69716266e-07
3.47988153e-06
3.88180941e-07
4.75204489e-06
7.4504446e-07
5.94523039e-06
1.28124511e-06
7.04700879e-06
2.04311228e-06
8.04251317e-06
3.08327755e-06
8.91354671e-06
4.46160875e-06
9.63791298e-06
6.24623168e-06
1.01888366e-05
8.51430073e-06
1.05347953e-05
1.13540737e-05
1.06377899e-05
1.48656847e-05
1.04545781e-05
1.9162928e-05
9.93404099e-06
2.43737889e-05
9.01946e-06
3.06435043e-05
7.64394614e-06
3.8135839e-05
5.73246445e-06
4.70138886e-05
3.22107204e-06
5.75064919e-05
-3.07250547e-08
6.98470694e-05
-4.11225495e-06
8.42960021e-05
-9.10791786e-06
0.000101145921
-1.52254949e-05
0.00012072222
-2.25893188e-05
0.000143435858
-3.13703818e-05
0.0001696392
-4.17633031e-05
0.000199763338
-5.39806178e-05
0.000234285403
-6.82561416e-05
0.000273717934
-8.48458938e-05
0.000318610252
-0.000104026518
0.000369542861
-0.000126093241
0.000427119416
-0.000151358457
0.000491955668
-0.000180146252
0.000564664985
-0.000212786531
0.000645838855
-0.000249608142
0.00073602487
-0.000290928799
0.000835699136
-0.000337042707
0.000945232468
-0.000388205646
0.00106485166
-0.000444617639
0.00119459609
-0.000506403265
0.00133427144
-0.000573590765
0.00148340226
-0.000646090184
0.00164118692
-0.000723672757
0.00180645956
-0.000805953801
0.00197766873
-0.00089238663
0.00215291813
-0.000982314145
0.00232992366
-0.00107492934
0.00250595913
-0.00116916036
0.00267799751
-0.00126380792
0.00284277129
-0.00135749927
0.00299721371
-0.0014491589
0.00313835923
-0.00153745279
0.0032647111
-0.00162215458
0.00337386658
-0.00170092145
0.00346588015
-0.00177411159
0.00353980763
-0.00184051063