/*--------------------------------*- C++ -*----------------------------------*\
  =========                 |
  \\      /  F ield         | OpenFOAM: The Open Source CFD Toolbox
   \\    /   O peration     | Website:  https://openfoam.org
    \\  /    A nd           | Version:  8
     \\/     M anipulation  |
\*---------------------------------------------------------------------------*/
FoamFile
{
    version     2.0;
    format      ascii;
    class       volScalarField;
    location    "0.076";
    object      T;
}
// * * * * * * * * * * * * * * * * * * * * * * * * * * * * * * * * * * * * * //

dimensions      [0 0 0 1 0 0 0];

internalField   nonuniform List<scalar> 
42400
(
472.22295
470.651596
469.038823
467.383611
465.684989
463.94205
462.153964
460.319998
458.439534
456.512093
454.537361
452.515215
450.445756
448.329339
446.166611
443.958548
441.706491
439.412189
437.077838
434.706118
432.300233
429.863946
427.401607
424.918179
422.419254
419.911064
417.400476
414.894975
412.40264
409.932094
407.492452
405.093238
402.744297
400.455692
398.237585
396.100122
394.053299
392.106827
390.270013
388.551679
386.960101
385.502914
384.187003
383.018368
382.002084
381.142186
380.441598
379.902017
379.524002
379.306918
379.248517
379.341348
379.583403
379.967429
380.482757
381.115249
381.845276
382.648582
383.494012
384.359478
385.25248
385.957728
386.339685
386.302036
385.80298
384.946707
383.752898
382.124113
379.899688
377.026781
373.128611
368.372525
363.709262
357.672343
349.920611
343.197305
337.202245
330.865699
322.66021
317.193084
472.255814
470.750946
469.206488
467.621528
465.995208
464.326739
462.61542
460.860652
459.061958
457.21901
455.331649
453.399918
451.424087
449.404692
447.342564
445.238871
443.09515
440.913353
438.69588
436.445621
434.165988
431.860955
429.535082
427.19354
424.842126
422.487275
420.136048
417.796126
415.475771
413.183791
410.929471
408.722509
406.572914
404.49091
402.486817
400.57094
398.753459
397.044319
395.453072
393.988727
392.659599
391.473068
390.435397
389.551505
388.824885
388.257407
387.849086
387.597648
387.498701
387.544236
387.726657
388.032673
388.444342
388.939407
389.490566
390.073912
390.675056
391.187516
391.44894
391.395107
390.907558
390.094459
389.005746
387.5512
385.629631
383.062084
379.810827
375.80241
370.997577
365.650279
359.524874
352.505824
345.827955
339.231119
331.923106
324.573004
318.618626
313.074287
308.764376
304.29187
472.298383
470.879628
469.42364
467.929633
466.396885
464.824753
463.212687
461.560251
459.867138
458.133199
456.358461
454.543162
452.687773
450.793038
448.860001
446.890044
444.884925
442.846812
440.77832
438.682551
436.563119
434.42419
432.270502
430.107384
427.940774
425.777219
423.623867
421.488447
419.379237
417.305016
415.275002
413.298778
411.386214
409.547375
407.792386
406.131289
404.573871
403.129471
401.80672
400.613289
399.555632
398.638734
397.865842
397.238171
396.754461
396.410815
396.201298
396.115813
396.137069
396.246888
396.426956
396.65563
396.917568
397.104459
397.108001
396.908419
396.344306
395.485879
394.397625
393.006616
391.236897
388.954055
386.072098
382.529958
378.268635
373.28781
367.70198
361.595421
354.965327
348.09769
341.205353
334.078848
327.23249
321.141346
315.65272
310.687911
306.499558
303.144163
300.613649
300.064275
472.3474
471.027796
469.67366
468.284341
466.859265
465.397946
463.900002
462.365175
460.793345
459.184561
457.539055
455.85728
454.139929
452.387972
450.602684
448.78568
446.938949
445.064884
443.166318
441.246555
439.309397
437.359166
435.400729
433.439503
431.481464
429.533141
427.601599
425.694418
423.819649
421.98576
420.20155
418.476059
416.818442
415.237825
413.743091
412.34267
411.044272
409.854609
408.779103
407.821554
406.983771
406.265133
405.662227
405.16908
404.775236
404.466685
404.228037
404.0414
403.89123
403.676702
403.347899
402.845242
402.096431
401.138814
399.979032
398.558603
396.812081
394.64272
391.971704
388.754236
384.954564
380.543246
375.509442
369.887228
363.722601
357.119519
350.25576
343.372385
336.531631
329.857131
323.637238
317.919736
312.81471
308.447156
305.026046
302.373268
300.486137
299.986933
299.877693
299.86218
472.399178
471.184306
469.937743
468.658978
467.347585
466.003236
464.625719
463.214954
461.771011
460.294133
458.784762
457.243559
455.671434
454.069575
452.439474
450.782957
449.102213
447.399821
445.678776
443.942513
442.194923
440.44037
438.683696
436.930223
435.185742
433.456486
431.749095
430.070565
428.428172
426.829367
425.281654
423.792429
422.368788
421.017298
419.743744
418.552845
417.447923
416.430561
415.500205
414.653794
413.885809
413.187405
412.54689
411.951512
411.360747
410.73756
410.040707
409.223209
408.231977
407.105821
405.801459
404.272654
402.465932
400.30321
397.721953
394.682629
391.152484
387.108998
382.544556
377.454377
371.859106
365.822213
359.416116
352.748251
345.917864
339.093146
332.441491
326.181471
320.415934
315.231759
310.736216
307.013906
304.113051
301.943298
300.442341
300.013135
299.911152
299.881029
299.864949
299.861764
472.449616
471.336764
470.194986
469.0239
467.823218
466.592759
465.332463
464.042409
462.722831
461.37414
459.996946
458.592077
457.160606
455.703871
454.223502
452.721437
451.199952
449.661667
448.109572
446.547029
444.977776
443.405925
441.835948
440.272646
438.721115
437.186681
435.674829
434.191096
432.740942
431.329592
429.961851
428.641883
427.37295
426.157132
424.995033
423.885409
422.824823
421.807556
420.824959
419.865331
418.907418
417.925099
416.888839
415.766792
414.55313
413.219105
411.732032
410.05416
408.138761
405.922182
403.365029
400.431048
397.088733
393.314213
389.093529
384.422889
379.310201
373.769164
367.835625
361.582962
355.099508
348.49238
341.871016
335.361413
329.099405
323.220413
317.848914
313.10617
309.082188
305.85053
303.40125
301.646732
300.449513
300.01376
299.907742
299.878418
299.869625
299.864764
299.857303
299.854995
472.494148
471.471366
470.422098
469.346071
468.243107
467.113136
465.95621
464.772515
463.56239
462.326338
461.065051
459.77942
458.470555
457.139803
455.788757
454.41927
453.033463
451.633729
450.222728
448.803374
447.378821
445.952425
444.527703
443.108264
441.697736
440.299657
438.917356
437.553795
436.211397
434.891841
433.595827
432.322809
431.070712
429.835631
428.611627
427.390262
426.159777
424.904798
423.608494
422.249418
420.808608
419.263855
417.588549
415.750072
413.70556
411.421644
408.8646
406.001183
402.802311
399.24406
395.309091
390.987793
386.279902
381.19483
375.751039
369.974195
363.896742
357.591575
351.152998
344.686748
338.303328
332.105319
326.224493
320.765375
315.852412
311.561883
307.964207
305.090575
302.933292
301.448788
300.495322
300.057317
299.947064
299.907166
299.888506
299.876098
299.866841
299.857657
299.846364
299.836423
472.527954
471.573546
470.594501
469.590616
468.561775
467.507961
466.429263
465.32589
464.198179
463.046608
461.871804
460.674556
459.455819
458.216721
456.958564
455.682818
454.391117
453.085239
451.76708
450.438623
449.101884
447.758853
446.411411
445.06124
443.709698
442.357683
441.005471
439.65253
438.297313
436.93705
435.567565
434.183308
432.776636
431.337537
429.853996
428.311506
426.693594
424.982022
423.153859
421.184717
419.049023
416.719908
414.169843
411.371394
408.297983
404.926796
401.239077
397.22135
392.866595
388.175264
383.156312
377.827109
372.213871
366.351571
360.271367
354.037453
347.737937
341.46786
335.339082
329.459777
323.940814
318.863241
314.342271
310.446759
307.228174
304.6908
302.799609
301.485521
300.660835
300.186057
300.009901
299.951875
299.921879
299.898817
299.879149
299.863339
299.851352
299.841796
299.828101
299.823526
472.546512
471.629637
470.689126
469.724788
468.736499
467.724206
466.687934
465.627791
464.543972
463.436761
462.306536
461.153765
459.979001
458.782881
457.566108
456.329437
455.073647
453.799512
452.507755
451.198994
449.873672
448.531975
447.173719
445.798227
444.404204
442.989576
441.551268
440.084906
438.58442
437.041441
435.447488
433.792221
432.063672
430.248245
428.330094
426.291549
424.113344
421.774869
419.254533
416.530321
413.580357
410.383408
406.921005
403.17774
399.142208
394.807996
390.174634
385.248509
380.043671
374.58258
368.896604
363.024606
357.009039
350.900694
344.781332
338.738517
332.879873
327.30499
322.114622
317.394233
313.22597
309.6687
306.755695
304.482939
302.796062
301.615093
300.84918
300.39444
300.148023
300.036205
299.971555
299.9246
299.884094
299.856594
299.839235
299.831657
299.829411
299.829217
299.822241
299.818334
472.546554
471.629748
470.689258
469.724838
468.736283
467.723431
466.686165
465.624411
464.538131
463.427322
462.292
461.132194
459.947916
458.739149
457.50583
456.247815
454.964836
453.656448
452.321962
450.960359
449.570188
448.149443
446.695405
445.202971
443.665821
442.078489
440.43469
438.727045
436.94737
435.08701
433.134366
431.076311
428.898408
426.585013
424.119451
421.484288
418.661686
415.633812
412.383225
408.894359
405.153875
401.151353
396.880116
392.338084
387.528607
382.461275
377.152685
371.627342
365.918391
360.068325
354.128297
348.152021
342.210511
336.384601
330.76746
325.45789
320.548066
316.115982
312.232223
308.94464
306.273958
304.204507
302.677201
301.607344
300.896003
300.448919
300.184458
300.018652
299.933604
299.884755
299.854286
299.833041
299.828904
299.824434
299.820371
299.817349
299.817855
299.817957
299.814586
299.807441
472.528569
471.575401
470.597593
469.594839
468.566838
467.513294
466.433913
465.32839
464.196405
463.037622
461.851671
460.638141
459.39568
458.12238
456.816707
455.477135
454.101796
452.688424
451.234277
449.736078
448.189938
446.591299
444.934924
443.21637
441.430599
439.569906
437.625415
435.587201
433.444338
431.18491
428.796043
426.264027
423.574494
420.712659
417.663606
414.412595
410.946024
407.251861
403.320129
399.143596
394.718521
390.04544
385.129996
379.983772
374.62509
369.079726
363.381748
357.574325
351.710101
345.850642
340.061097
334.422992
329.023232
323.947808
319.277537
315.089842
311.440356
308.363798
305.868273
303.929753
302.496474
301.492186
300.820618
300.39419
300.128083
299.973463
299.890759
299.873732
299.861285
299.850168
299.840834
299.83368
299.828181
299.823326
299.81987
299.812691
299.807701
299.805816
299.804851
299.805345
472.491286
471.462718
470.407475
469.32511
468.215135
467.077008
465.910121
464.713448
463.485427
462.224775
460.929972
459.599224
458.231289
456.825018
455.378346
453.888556
452.352521
450.766651
449.126832
447.428397
445.666049
443.833777
441.92488
439.931906
437.846545
435.659635
433.361179
430.940376
428.385708
425.685049
422.825833
419.795253
416.580496
413.169335
409.550615
405.714589
401.653493
397.362193
392.838893
388.085927
383.110596
377.926041
372.552128
367.016236
361.353883
355.60927
349.835799
344.095809
338.459473
332.999418
327.794528
322.928456
318.478832
314.512475
311.072302
308.178708
305.825401
303.980543
302.591441
301.590869
300.903936
300.456821
300.179185
300.010612
299.92923
299.895701
299.878754
299.867742
299.858772
299.848541
299.838212
299.830412
299.823755
299.818069
299.814328
299.812373
299.808713
299.806067
299.80499
299.805222
472.436046
471.295747
470.125711
468.925271
467.693653
466.429956
465.132502
463.800139
462.431893
461.026103
459.580856
458.093965
456.562931
454.984903
453.356626
451.674398
449.93402
448.130756
446.259269
444.313627
442.287246
440.17283
437.962392
435.647253
433.218054
430.664803
427.976945
425.14347
422.153052
418.99423
415.65575
412.127054
408.398522
404.461943
400.311066
395.942236
391.3551
386.553404
381.54584
376.346934
370.97793
365.467595
359.852865
354.179158
348.50028
342.878252
337.382551
332.087489
327.068643
322.394852
318.133306
314.339209
311.052114
308.288577
306.037825
304.259306
302.897767
301.890762
301.17139
300.676419
300.347165
300.138302
300.014755
299.947979
299.910902
299.886348
299.867727
299.85486
299.846076
299.837233
299.827592
299.820965
299.816435
299.813514
299.811759
299.812246
299.809368
299.806151
299.804769
299.804712
472.3672
471.087665
469.774644
468.427259
467.04447
465.624862
464.167242
462.669971
461.131161
459.548635
457.919892
456.242074
454.51193
452.725777
450.879457
448.968308
446.987129
444.930144
442.790959
440.562573
438.237361
435.807082
433.262899
430.595431
427.794822
424.85084
421.75302
418.490843
415.054198
411.433556
407.620354
403.607461
399.389717
394.964566
390.332765
385.499169
380.473577
375.271596
369.915491
364.434926
358.867524
353.259109
347.663479
342.141504
336.759628
331.588159
326.699103
322.161281
318.031991
314.35457
311.159321
308.455048
306.23344
304.463502
303.096561
302.071368
301.324614
300.797129
300.434217
300.194349
300.031219
299.94163
299.897617
299.872062
299.854934
299.842696
299.833752
299.827103
299.823564
299.82127
299.817725
299.81284
299.808396
299.804913
299.799727
299.799761
299.801122
299.800355
299.799614
299.80128
472.287873
470.847918
469.370195
467.853626
466.296909
464.698498
463.05677
461.369694
459.634923
457.849761
456.011123
454.115502
452.158936
450.136972
448.044632
445.876388
443.626145
441.287223
438.852358
436.313709
433.66289
430.891017
427.988777
424.946536
421.75447
418.402858
414.882314
411.184065
407.300336
403.224801
398.953124
394.483577
389.817739
384.961263
379.924689
374.724268
369.382751
363.930051
358.403705
352.849
347.318632
341.871783
336.572442
331.486865
326.680486
322.214777
318.144523
314.509939
311.338205
308.637162
306.397089
304.592274
303.180117
302.111159
301.330942
300.78043
300.405151
300.159193
300.001027
299.910455
299.881709
299.865231
299.851918
299.843046
299.835471
299.828027
299.820953
299.81437
299.808164
299.803208
299.799954
299.796907
299.793935
299.791107
299.789274
299.788678
299.789028
299.790663
299.789541
299.794085
472.200045
470.582481
468.922427
467.218595
465.469415
463.673156
461.827805
459.930932
457.979729
455.970977
453.901014
451.765695
449.560367
447.279845
444.918389
442.469694
439.926891
437.282559
434.528753
431.657054
428.658649
425.524427
422.245151
418.811704
415.215296
411.447767
407.501965
403.372193
399.054734
394.548454
389.855475
384.981916
379.938658
374.742121
369.414979
363.986754
358.494196
352.981332
347.499087
342.104313
336.858164
331.823832
327.063534
322.635068
318.588252
314.961499
311.779858
309.053542
306.774896
304.921377
303.45492
302.329303
301.492633
300.8933
300.483474
300.216865
300.051903
299.955264
299.913551
299.890663
299.874979
299.86237
299.850823
299.84159
299.833354
299.825953
299.818911
299.811795
299.805476
299.80138
299.799451
299.797852
299.795452
299.79215
299.790137
299.788566
299.788325
299.79018
299.787965
299.786234
472.104945
470.295066
468.437588
466.531036
464.573656
462.563412
460.497855
458.374142
456.188992
453.93866
451.618905
449.224965
446.751536
444.192759
441.542225
438.792982
435.937567
432.96806
429.876155
426.653269
423.290723
419.779934
416.112645
412.281223
408.279029
404.10085
399.743409
395.205943
390.490848
385.604381
380.557384
375.366007
370.052367
364.64508
359.179586
353.698157
348.249503
342.887876
337.67162
332.660944
327.915203
323.489829
319.432911
315.782593
312.563986
309.786557
307.444596
305.517212
303.971819
302.767435
301.857189
301.191786
300.722546
300.4038
300.195019
300.063583
299.983368
299.934762
299.901803
299.878479
299.860809
299.846568
299.835092
299.826063
299.81922
299.813948
299.809895
299.806818
299.803868
299.800582
299.798872
299.797974
299.795233
299.793176
299.790984
299.787975
299.786965
299.791558
299.794061
299.788529
472.003594
469.988754
467.92089
465.798333
463.619064
461.380683
459.080371
456.71486
454.280403
451.772739
449.187084
446.518108
443.759937
440.906163
437.949875
434.883706
431.699905
428.390444
424.947199
421.362108
417.627415
413.735954
409.681504
405.459203
401.066039
396.501395
391.767669
386.870927
381.821596
376.635131
371.33264
365.941372
360.495015
355.033696
349.60361
344.256175
339.04666
334.032315
329.270108
324.813291
320.708816
316.99398
313.694091
310.821929
308.37566
306.337775
304.678529
303.359555
302.338584
301.570224
301.008852
300.611601
300.338838
300.156392
300.03632
299.958984
299.909815
299.87337
299.851425
299.838649
299.830086
299.82429
299.819229
299.814971
299.811418
299.808462
299.805972
299.803562
299.800419
299.79702
299.793831
299.793037
299.793486
299.793545
299.795217
299.796605
299.798124
299.796609
299.800847
299.809131
471.896905
469.666307
467.376949
465.026932
462.613964
460.135321
457.587819
454.967781
452.271019
449.492815
446.627912
443.670531
440.614385
437.452729
434.178428
430.784055
427.262047
423.60487
419.805242
415.856404
411.752453
407.488739
403.062321
398.472482
393.721312
388.814326
383.761111
378.57596
373.278466
367.893993
362.453977
356.995963
351.563293
346.204375
340.971451
335.918865
331.100828
326.568977
322.37028
318.541397
315.109308
312.089373
309.484455
307.284174
305.466841
303.999817
302.844066
301.955559
301.289943
300.804815
300.461306
300.225384
300.068666
299.967924
299.903202
299.866145
299.845883
299.841177
299.836333
299.8289
299.823074
299.817495
299.812608
299.807344
299.803589
299.800632
299.798414
299.796499
299.794948
299.792792
299.790267
299.788574
299.788795
299.789874
299.793444
299.79744
299.803906
299.805049
299.800488
299.805702
471.785932
469.330909
466.81116
464.224558
461.568542
458.840082
456.035655
453.151224
450.18223
447.123589
443.969716
440.714555
437.351643
433.874194
430.275239
426.547775
422.684971
418.680418
414.528442
410.22446
405.765411
401.150235
396.380413
391.460546
386.398962
381.208326
375.9062
370.515525
365.064939
359.58888
354.127377
348.725474
343.432208
338.299133
333.378399
328.720452
324.3715
320.370955
316.748833
313.526522
310.713675
308.308392
306.296175
304.651645
303.340501
302.321802
301.550987
300.983845
300.578888
300.299031
300.112063
299.991882
299.918291
299.876284
299.859027
299.850166
299.843674
299.839606
299.83518
299.829065
299.823457
299.817168
299.811491
299.807639
299.804272
299.80124
299.79848
299.795606
299.792879
299.790318
299.788549
299.787717
299.787182
299.787178
299.789448
299.793889
299.795677
299.801724
299.801351
299.801039
472.615786
471.838869
471.041608
470.223562
469.384282
468.523312
467.640184
466.734417
465.805514
464.852961
463.876225
462.874754
461.847973
460.795283
459.716063
458.609664
457.475412
456.312604
455.120509
453.898365
452.645377
451.360716
450.043516
448.692875
447.307845
445.887431
444.430582
442.936184
441.403044
439.829877
438.215284
436.557722
434.855477
433.106612
431.30892
429.459852
427.55644
425.595196
423.572006
421.482
419.319415
417.077198
414.746941
412.318785
409.781353
407.121888
404.319874
401.355009
398.203994
394.847797
391.261517
387.420802
383.30465
378.899162
374.202864
369.233304
364.034417
358.683536
353.296169
348.02544
343.053186
338.571015
334.752038
331.718252
329.513033
328.087929
327.311348
327.077491
327.107618
327.317644
327.541704
327.753276
327.934369
328.07687
328.176384
328.246815
328.311121
328.366968
328.412461
328.446302
472.616921
471.842266
471.04726
470.231418
469.394244
468.535233
467.653864
466.749602
465.821892
464.870163
463.893824
462.89226
461.86484
460.810908
459.729787
458.62078
457.483169
456.316215
455.119159
453.891225
452.631622
451.339543
450.014166
448.65466
447.26018
445.829871
444.362865
442.858281
441.31522
439.732755
438.109925
436.445717
434.739043
432.988714
431.193401
429.351584
427.461491
425.521011
423.527593
421.478111
419.368676
417.194583
414.950065
412.628038
410.219857
407.715092
405.100945
402.362211
399.481878
396.434385
393.195622
389.739322
386.042849
382.081949
377.838809
373.307167
368.499047
363.452578
358.239741
352.971701
347.799031
342.9039
338.481162
334.70859
331.713414
329.543423
328.155325
327.427429
327.256363
327.367046
327.643794
327.966657
328.285053
328.573128
328.809975
328.988165
329.116397
329.231517
329.332994
329.431093
472.614545
471.835057
471.035031
470.213939
469.371238
468.506374
467.618779
466.707863
465.773019
464.813622
463.829022
462.818554
461.781527
460.717236
459.624954
458.503939
457.353434
456.172669
454.960866
453.717239
452.441001
451.131369
449.787565
448.408824
446.994398
445.543566
444.055629
442.529923
440.96582
439.362725
437.720077
436.037346
434.314016
432.549578
430.743498
428.895188
427.003965
425.068982
423.089156
421.063061
418.98882
416.86395
414.685189
412.44827
410.147639
407.776097
405.324565
402.782004
400.134692
397.365875
394.455244
391.380022
388.111687
384.623653
380.88963
376.887706
372.605542
368.047067
363.240305
358.245248
353.16008
348.123208
343.30789
338.907007
335.106956
332.05173
329.80865
328.351219
327.574425
327.377581
327.517578
327.878614
328.313785
328.759065
329.200484
329.602115
329.920718
330.146428
330.328216
330.50048
472.608546
471.816899
471.004345
470.170312
469.314215
468.435455
467.533418
466.607468
465.65695
464.681192
463.679496
462.65115
461.59542
460.511556
459.398795
458.256359
457.083465
455.879321
454.643138
453.374129
452.07152
450.734554
449.362499
447.954656
446.510371
445.029041
443.510124
441.953149
440.357726
438.723553
437.05042
435.338216
433.586924
431.796623
429.96747
428.099691
426.193543
424.249277
422.267074
420.24698
418.188809
416.092019
413.955557
411.777672
409.555693
407.285778
404.962624
402.579143
400.126068
397.591503
394.960906
392.216167
389.335011
386.291913
383.059165
379.608355
375.913506
371.955608
367.728921
363.24862
358.559119
353.741289
348.915887
344.239979
339.8937
336.056228
332.871999
330.427018
328.747543
327.783305
327.462317
327.530024
327.882739
328.397626
328.99405
329.622575
330.247081
330.796759
331.239929
331.541188
472.598735
471.787231
470.954261
470.099214
469.221471
468.320394
467.395331
466.445611
465.470545
464.469424
463.441521
462.386094
461.302385
460.189625
459.047033
457.873826
456.669219
455.432428
454.162682
452.859223
451.521317
450.14826
448.73939
447.294092
445.811814
444.292074
442.734475
441.138717
439.504607
437.832074
436.12118
434.37213
432.585277
430.761132
428.900357
427.003767
425.072307
423.10704
421.109106
419.079687
417.019933
414.930879
412.813324
410.667688
408.493824
406.290787
404.05655
401.787674
399.478928
397.122917
394.709765
392.22696
389.65953
386.98865
384.190803
381.238448
378.103196
374.756933
371.175849
367.345727
363.268777
358.971461
354.512108
349.986408
345.528563
341.301595
337.462605
334.146514
331.460766
329.46995
328.184247
327.575436
327.560086
327.791383
328.280855
328.949068
329.718327
330.50115
331.255515
331.941767
472.58494
471.74553
470.883902
469.999419
469.091435
468.159288
467.202302
466.219788
465.211037
464.175329
463.111928
462.020087
460.89905
459.748056
458.566341
457.353144
456.107711
454.829302
453.517195
452.170693
450.789133
449.371895
447.918409
446.428166
444.90073
443.335751
441.732975
440.092258
438.413583
436.697071
434.942998
433.151806
431.324118
429.460744
427.562693
425.631176
423.667605
421.673591
419.650926
417.601562
415.527573
413.431099
411.314274
409.179127
407.02745
404.860628
402.679411
400.483666
398.272023
396.041495
393.786921
391.500374
389.170096
386.78112
384.320871
381.770974
379.106959
376.298994
373.318063
370.137733
366.737629
363.10965
359.26482
355.2408
351.108457
346.972099
342.960907
339.1959
335.804846
332.908742
330.602491
328.943223
327.943765
327.702044
327.772392
328.102589
328.73185
329.587075
330.562948
331.571659
472.567014
471.691354
470.792527
469.869879
468.922748
467.950461
466.952334
465.927673
464.875772
463.795915
462.68738
461.54944
460.381366
459.182431
457.951917
456.689116
455.393339
454.063919
452.700218
451.301635
449.867614
448.39765
446.891299
445.348189
443.768029
442.15062
440.495872
438.80381
437.074593
435.308527
433.506077
431.667887
429.794787
427.887812
425.948213
423.977469
421.977294
419.949644
417.896713
415.820927
413.724925
411.611543
409.483763
407.344647
405.19727
403.044592
400.889312
398.733686
396.579276
394.426654
392.275003
390.12178
387.962237
385.7889
383.586019
381.336942
379.021977
376.634097
374.149603
371.538738
368.766355
365.812718
362.662262
359.313695
355.786112
352.123343
348.398718
344.702811
341.131194
337.794335
334.798969
332.245416
330.210778
328.718597
327.942596
327.871681
328.019559
328.443685
329.235363
330.371593
472.544779
471.624165
470.679224
469.709291
468.713696
467.691764
466.642816
465.566164
464.461117
463.326984
462.163069
460.968686
459.743152
458.485801
457.195982
455.873068
454.516461
453.1256
451.699965
450.239083
448.742539
447.209982
445.641133
444.035794
442.393857
440.715317
439.000279
437.248973
435.461764
433.639165
431.781851
429.890672
427.966667
426.011076
424.025358
422.011201
419.970535
417.905542
415.818662
413.712593
411.590289
409.454956
407.31003
405.159143
403.006089
400.854753
398.709012
396.572617
394.449027
392.341185
390.251243
388.180219
386.127664
384.091065
382.065363
380.042814
378.012746
375.947119
373.825782
371.627688
369.357571
366.983863
364.473202
361.801874
358.960292
355.952804
352.803843
349.561157
346.28844
343.050693
339.922956
336.993033
334.35115
332.074588
330.240653
328.844909
328.135463
328.158549
328.353172
328.923286
472.51808
471.543491
470.543187
469.516495
468.462742
467.381254
466.271358
465.132383
463.96366
462.764526
461.534329
460.272429
458.978208
457.651071
456.290454
454.89583
453.466717
452.002681
450.503345
448.968399
447.397602
445.790792
444.147895
442.468931
440.754024
439.003408
437.217439
435.396604
433.54153
431.652994
429.731937
427.77947
425.796888
423.785685
421.747557
419.684419
417.598407
415.491896
413.367504
411.228101
409.076809
406.917012
404.752347
402.586694
400.424162
398.269053
396.125808
393.998931
391.892884
389.811943
387.76003
385.740433
383.755574
381.806554
379.892753
378.011345
376.156767
374.320056
372.489647
370.649947
368.758463
366.792197
364.755944
362.645732
360.43273
358.085413
355.598819
352.981133
350.256434
347.467922
344.65949
341.886406
339.208921
336.690316
334.393524
332.372611
330.701825
329.338815
328.61527
328.736347
472.486888
471.449242
470.384256
469.291247
468.169533
467.018439
465.837299
464.625452
463.382253
462.107068
460.799288
459.458326
458.08363
456.674684
455.23102
453.75222
452.23793
450.687862
449.101804
447.479628
445.821299
444.126879
442.396536
440.630555
438.829341
436.993428
435.123487
433.220333
431.284931
429.318404
427.322042
425.297303
423.245828
421.169442
419.07016
416.950195
414.811961
412.658078
410.491377
408.314901
406.131915
403.94591
401.7606
399.57992
397.408017
395.249239
393.108121
390.989342
388.897673
386.837928
384.814811
382.832756
380.895739
379.006983
377.168629
375.381347
373.643924
371.952777
370.301567
368.680841
367.078011
365.481327
363.851095
362.152615
360.363356
358.524678
356.620819
354.629222
352.524807
350.323508
348.047115
345.728075
343.399142
341.103878
338.885558
336.789254
334.860683
333.1252
331.658728
330.416699
472.451442
471.342133
470.203629
469.035223
467.836219
466.605931
465.343687
464.048833
462.720734
461.358782
459.962402
458.531055
457.064251
455.561552
454.022583
452.447042
450.834706
449.185443
447.499221
445.776112
444.016309
442.220127
440.388015
438.520562
436.618507
434.68274
432.714317
430.714456
428.684547
426.626154
424.541021
422.431068
420.298395
418.145284
415.974193
413.787757
411.588783
409.38025
407.165302
404.94724
402.729518
400.515733
398.309634
396.115114
393.936211
391.777121
389.642236
387.536054
385.463165
383.42829
381.436143
379.49136
377.598371
375.761215
373.983301
372.26711
370.613861
369.023128
367.492454
366.017003
364.589352
363.199463
361.83403
360.479209
359.125743
357.709185
356.215406
354.630092
353.022081
351.374981
349.67304
347.898066
346.076475
344.235691
342.400293
340.598126
338.858854
337.208058
335.674537
334.223107
472.412367
471.22405
470.004478
468.752908
467.46861
466.150876
464.799015
463.412361
461.990281
460.532176
459.037492
457.505729
455.936446
454.329275
452.68393
451.000219
449.278051
447.517454
445.71858
443.881721
442.007314
440.095955
438.148409
436.165616
434.148698
432.098969
430.017938
427.907312
425.769
423.605114
421.417965
419.21006
416.984093
414.742943
412.489659
410.227441
407.959626
405.689667
403.42112
401.15763
398.902921
396.660778
394.435074
392.2297
390.048568
387.895602
385.774852
383.690369
381.646242
379.64664
377.695759
375.797788
373.956847
372.176873
370.461459
368.81364
367.23562
365.728451
364.291689
362.923031
361.618028
360.370059
359.170281
358.007822
356.870111
355.742213
354.61397
353.482881
352.27874
351.008032
349.671878
348.341022
347.00607
345.648772
344.276154
342.905735
341.554356
340.235259
338.939045
337.580029
472.370786
471.09839
469.792526
468.452399
467.077233
465.666277
464.218804
462.734124
461.211584
459.650579
458.050565
456.411062
454.731668
453.012076
451.252078
449.451587
447.610645
445.72944
443.808319
441.847803
439.848597
437.811605
435.737944
433.628946
431.486177
429.311436
427.106763
424.874445
422.617006
420.337211
418.038054
415.722741
413.394677
411.057447
408.714791
406.370587
404.028823
401.693558
399.368899
397.058969
394.767866
392.499628
390.258274
388.047689
385.871644
383.733781
381.637693
379.586877
377.584771
375.634782
373.740303
371.90472
370.131395
368.423612
366.784481
365.216792
363.722807
362.304006
360.960803
359.692241
358.495698
357.366663
356.298655
355.283276
354.31047
353.369047
352.447957
351.536217
350.621914
349.702538
348.786801
347.826647
346.849656
345.853037
344.891626
343.966833
343.076354
342.204356
341.296046
340.209971
472.328415
470.970335
469.576512
468.146087
466.678222
465.172108
463.626967
462.042066
460.416721
458.750307
457.042273
455.292148
453.499563
451.664258
449.786103
447.865114
445.901468
443.895523
441.847833
439.759168
437.630527
435.463157
433.258564
431.018524
428.745095
426.440621
424.107734
421.749353
419.368684
416.969207
414.554671
412.129065
409.696604
407.261693
404.828893
402.402885
399.988428
397.590303
395.213255
392.861938
390.540863
388.254355
386.006559
383.801373
381.642438
379.533135
377.476607
375.475777
373.533394
371.65208
369.834378
368.082797
366.399838