/*--------------------------------*- C++ -*----------------------------------*\
  =========                 |
  \\      /  F ield         | OpenFOAM: The Open Source CFD Toolbox
   \\    /   O peration     | Website:  https://openfoam.org
    \\  /    A nd           | Version:  8
     \\/     M anipulation  |
\*---------------------------------------------------------------------------*/
FoamFile
{
    version     2.0;
    format      ascii;
    class       volScalarField;
    location    "0.082";
    object      p;
}
// * * * * * * * * * * * * * * * * * * * * * * * * * * * * * * * * * * * * * //

dimensions      [1 -1 -2 0 0 0 0];

internalField   nonuniform List<scalar> 
42400
(
101635.755
101635.746
101635.736
101635.727
101635.718
101635.711
101635.703
101635.696
101635.69
101635.684
101635.679
101635.675
101635.671
101635.668
101635.665
101635.663
101635.662
101635.662
101635.663
101635.664
101635.667
101635.67
101635.674
101635.679
101635.685
101635.692
101635.699
101635.709
101635.719
101635.73
101635.743
101635.758
101635.774
101635.792
101635.812
101635.834
101635.863
101635.903
101635.948
101635.985
101636.015
101636.048
101636.086
101636.136
101636.199
101636.267
101636.342
101636.422
101636.507
101636.597
101636.705
101636.839
101636.977
101637.095
101637.22
101637.377
101637.553
101637.733
101637.919
101638.108
101638.303
101638.5
101638.703
101638.91
101639.106
101639.283
101639.448
101639.568
101639.646
101639.89
101639.859
101639.21
101639.779
101640.395
101638.829
101638.629
101637.112
101634.895
101639.732
101644.124
101635.551
101635.544
101635.536
101635.529
101635.523
101635.517
101635.512
101635.507
101635.502
101635.499
101635.495
101635.493
101635.491
101635.49
101635.489
101635.489
101635.49
101635.492
101635.494
101635.498
101635.502
101635.507
101635.512
101635.519
101635.527
101635.535
101635.544
101635.554
101635.566
101635.578
101635.591
101635.605
101635.624
101635.649
101635.677
101635.708
101635.732
101635.747
101635.764
101635.79
101635.826
101635.865
101635.908
101635.954
101636.004
101636.057
101636.119
101636.197
101636.291
101636.374
101636.447
101636.541
101636.656
101636.782
101636.911
101637.049
101637.199
101637.361
101637.539
101637.737
101637.949
101638.172
101638.404
101638.651
101638.914
101639.186
101639.473
101639.771
101639.982
101640.388
101640.884
101640.701
101640.764
101641.103
101640.668
101641.781
101644.796
101645.993
101647.633
101650.991
101635.267
101635.261
101635.256
101635.251
101635.246
101635.242
101635.239
101635.236
101635.233
101635.231
101635.23
101635.229
101635.229
101635.229
101635.23
101635.232
101635.235
101635.239
101635.243
101635.248
101635.254
101635.261
101635.269
101635.277
101635.287
101635.297
101635.308
101635.32
101635.334
101635.351
101635.37
101635.391
101635.412
101635.427
101635.44
101635.453
101635.473
101635.5
101635.529
101635.559
101635.592
101635.627
101635.66
101635.7
101635.755
101635.824
101635.874
101635.912
101635.979
101636.063
101636.15
101636.242
101636.344
101636.456
101636.584
101636.732
101636.9
101637.088
101637.295
101637.526
101637.786
101638.077
101638.398
101638.761
101639.153
101639.591
101640.041
101640.577
101641.024
101641.61
101642.214
101642.717
101643.508
101646.614
101648.949
101648.885
101649.5
101652.064
101654.927
101655.681
101634.921
101634.917
101634.913
101634.91
101634.906
101634.904
101634.901
101634.899
101634.898
101634.897
101634.897
101634.898
101634.899
101634.901
101634.904
101634.907
101634.912
101634.917
101634.924
101634.931
101634.939
101634.949
101634.959
101634.97
101634.981
101634.994
101635.009
101635.025
101635.042
101635.058
101635.073
101635.088
101635.103
101635.123
101635.147
101635.171
101635.197
101635.224
101635.251
101635.275
101635.308
101635.359
101635.409
101635.435
101635.462
101635.512
101635.574
101635.633
101635.698
101635.77
101635.854
101635.952
101636.067
101636.199
101636.351
101636.527
101636.735
101636.979
101637.263
101637.59
101637.963
101638.392
101638.869
101639.424
101640.036
101640.751
101641.495
101642.386
101643.229
101644.198
101646.59
101648.998
101649.648
101649.328
101651.172
101653.887
101655.051
101656.245
101658.049
101660.005
101634.519
101634.516
101634.512
101634.509
101634.507
101634.504
101634.503
101634.501
101634.5
101634.5
101634.501
101634.503
101634.505
101634.508
101634.513
101634.518
101634.524
101634.532
101634.54
101634.55
101634.56
101634.57
101634.582
101634.595
101634.611
101634.628
101634.645
101634.663
101634.682
101634.702
101634.725
101634.748
101634.772
101634.797
101634.822
101634.848
101634.871
101634.899
101634.945
101634.986
101635.006
101635.031
101635.074
101635.121
101635.166
101635.215
101635.27
101635.335
101635.409
101635.496
101635.597
101635.715
101635.857
101636.028
101636.235
101636.484
101636.781
101637.13
101637.538
101638.015
101638.559
101639.185
101639.886
101640.696
101641.605
101642.64
101643.734
101644.985
101647.272
101648.999
101649.353
101649.999
101651.938
101653.638
101655.339
101657.008
101658.863
101660.865
101662.683
101664.533
101634.062
101634.058
101634.054
101634.051
101634.048
101634.046
101634.045
101634.044
101634.044
101634.044
101634.045
101634.048
101634.051
101634.056
101634.062
101634.069
101634.077
101634.085
101634.095
101634.107
101634.122
101634.138
101634.156
101634.175
101634.195
101634.216
101634.238
101634.261
101634.285
101634.311
101634.337
101634.364
101634.393
101634.418
101634.445
101634.487
101634.531
101634.552
101634.573
101634.613
101634.656
101634.697
101634.74
101634.789
101634.843
101634.904
101634.974
101635.055
101635.151
101635.267
101635.408
101635.578
101635.786
101636.038
101636.341
101636.701
101637.125
101637.624
101638.198
101638.865
101639.611
101640.455
101641.377
101642.419
101643.494
101644.935
101646.912
101648.165
101648.942
101650.247
101651.916
101653.444
101655.175
101656.781
101658.23
101660.249
101662.642
101664.345
101665.972
101667.618
101633.535
101633.531
101633.526
101633.523
101633.52
101633.518
101633.517
101633.516
101633.517
101633.518
101633.521
101633.524
101633.528
101633.533
101633.54
101633.55
101633.561
101633.575
101633.59
101633.606
101633.623
101633.642
101633.662
101633.684
101633.708
101633.733
101633.76
101633.788
101633.817
101633.848
101633.879
101633.909
101633.953
101634.001
101634.028
101634.052
101634.094
101634.139
101634.182
101634.226
101634.273
101634.325
101634.382
101634.446
101634.52
101634.607
101634.709
101634.832
101634.98
101635.159
101635.376
101635.639
101635.955
101636.329
101636.768
101637.281
101637.877
101638.565
101639.341
101640.229
101641.187
101642.237
101643.344
101644.689
101646.721
101648.051
101648.95
101650.429
101651.981
101653.457
101655.05
101656.884
101658.878
101661.024
101663.49
101664.929
101665.597
101667.029
101669.812
101671.727
101632.914
101632.91
101632.906
101632.902
101632.9
101632.898
101632.897
101632.898
101632.899
101632.902
101632.906
101632.912
101632.921
101632.93
101632.941
101632.953
101632.967
101632.983
101633.001
101633.021
101633.042
101633.066
101633.091
101633.118
101633.147
101633.178
101633.21
101633.244
101633.276
101633.314
101633.363
101633.403
101633.434
101633.479
101633.528
101633.575
101633.624
101633.676
101633.732
101633.792
101633.859
101633.935
101634.021
101634.12
101634.236
101634.374
101634.538
101634.736
101634.973
101635.257
101635.598
101635.998
101636.464
101637.005
101637.627
101638.336
101639.137
101640.038
101641.032
101642.136
101643.3
101644.649
101646.714
101648.37
101649.15
101650.24
101652.135
101653.823
101655.441
101657.573
101659.828
101661.775
101663.333
101664.655
101665.882
101667.425
101669.73
101671.637
101673.007
101675.078
101632.183
101632.179
101632.176
101632.173
101632.172
101632.172
101632.173
101632.176
101632.18
101632.186
101632.193
101632.202
101632.213
101632.226
101632.24
101632.257
101632.275
101632.296
101632.319
101632.344
101632.371
101632.401
101632.433
101632.466
101632.5
101632.535
101632.576
101632.626
101632.67
101632.706
101632.754
101632.808
101632.86
101632.915
101632.973
101633.035
101633.101
101633.174
101633.253
101633.343
101633.444
101633.56
101633.694
101633.852
101634.039
101634.26
101634.523
101634.836
101635.206
101635.641
101636.144
101636.725
101637.39
101638.146
101638.996
101639.946
101641
101642.148
101643.431
101644.747
101646.216
101647.667
101648.677
101649.803
101651.219
101652.965
101655.311
101657.312
101659.27
101661.031
101662.419
101663.844
101665.487
101667.413
101669.475
101671.266
101672.553
101674.662
101677.56
101679.311
101631.315
101631.313
101631.311
101631.311
101631.313
101631.316
101631.32
101631.326
101631.334
101631.343
101631.355
101631.368
101631.384
101631.402
101631.422
101631.444
101631.469
101631.497
101631.526
101631.559
101631.593
101631.629
101631.668
101631.716
101631.768
101631.809
101631.851
101631.903
101631.961
101632.018
101632.078
101632.142
101632.21
101632.283
101632.361
101632.446
101632.54
101632.644
101632.762
101632.896
101633.051
101633.231
101633.441
101633.688
101633.978
101634.318
101634.716
101635.18
101635.715
101636.326
101637.02
101637.801
101638.671
101639.632
101640.681
101641.817
101643.033
101644.323
101645.682
101647.119
101648.49
101649.961
101651.531
101652.99
101654.469
101656.577
101658.379
101659.559
101661.282
101663.801
101665.202
101666.562
101668.353
101670.335
101672.768
101674.569
101676.175
101678.327
101679.67
101681.562
101630.284
101630.285
101630.287
101630.291
101630.296
101630.303
101630.312
101630.323
101630.336
101630.352
101630.369
101630.389
101630.412
101630.438
101630.465
101630.496
101630.53
101630.566
101630.604
101630.646
101630.695
101630.745
101630.791
101630.841
101630.9
101630.961
101631.024
101631.089
101631.159
101631.232
101631.311
101631.395
101631.485
101631.584
101631.693
101631.814
101631.949
101632.103
101632.279
101632.482
101632.718
101632.992
101633.31
101633.681
101634.11
101634.606
101635.174
101635.818
101636.543
101637.353
101638.249
101639.231
101640.299
101641.444
101642.66
101643.961
101645.32
101646.729
101648.198
101649.683
101651.131
101652.507
101653.683
101655.541
101658.097
101660.018
101661.381
101663.415
101664.899
101665.875
101667.623
101670.153
101671.993
101673.368
101675.291
101677.715
101679.329
101680.955
101682.854
101684.436
101629.055
101629.061
101629.068
101629.077
101629.088
101629.102
101629.117
101629.135
101629.156
101629.179
101629.205
101629.234
101629.266
101629.301
101629.339
101629.38
101629.425
101629.476
101629.527
101629.578
101629.636
101629.698
101629.764
101629.831
101629.903
101629.978
101630.058
101630.143
101630.233
101630.329
101630.433
101630.546
101630.67
101630.807
101630.961
101631.135
101631.333
101631.56
101631.821
101632.122
101632.471
101632.873
101633.336
101633.866
101634.47
101635.153
101635.917
101636.766
101637.698
101638.71
101639.795
101640.946
101642.154
101643.398
101644.637
101645.941
101647.623
101649.391
101651.076
101652.992
101654.939
101656.883
101658.988
101660.552
101661.766
101662.774
101663.944
101665.367
101667.213
101669.471
101670.786
101671.564
101673.449
101676.323
101678.486
101680.552
101682.799
101684.679
101686.176
101687.434
101627.589
101627.6
101627.614
101627.63
101627.649
101627.67
101627.695
101627.722
101627.752
101627.785
101627.822
101627.862
101627.905
101627.953
101628.006
101628.06
101628.116
101628.178
101628.245
101628.314
101628.388
101628.465
101628.547
101628.633
101628.723
101628.819
101628.922
101629.031
101629.149
101629.276
101629.416
101629.57
101629.742
101629.935
101630.153
101630.402
101630.687
101631.013
101631.388
101631.817
101632.309
101632.869
101633.504
101634.221
101635.022
101635.913
101636.899
101637.979
101639.153
101640.416
101641.764
101643.193
101644.701
101646.271
101647.906
101649.557
101650.957
101652.361
101653.94
101655.543
101656.948
101657.932
101659.474
101661.57
101662.998
101664.517
101666.544
101668.239
101670.275
101672.559
101674.787
101677.584
101679.689
101680.738
101682.243
101684.179
101685.561
101686.97
101689.016
101691.233
101625.831
101625.85
101625.873
101625.899
101625.927
101625.958
101625.993
101626.032
101626.073
101626.119
101626.169
101626.224
101626.282
101626.342
101626.408
101626.479
101626.553
101626.632
101626.715
101626.802
101626.894
101626.992
101627.094
101627.203
101627.318
101627.442
101627.574
101627.718
101627.874
101628.046
101628.237
101628.451
101628.691
101628.962
101629.271
101629.622
101630.022
101630.478
101630.995
101631.579
101632.236
101632.972
101633.788
101634.687
101635.668
101636.729
101637.873
101639.106
101640.431
101641.811
101643.255
101644.773
101646.291
101647.783
101649.308
101650.879
101652.544
101654.295
101655.617
101657.235
101659.402
101661.066
101662.567
101664.158
101666.2
101668.537
101670.157
101671.771
101674.326
101676.443
101678.101
101679.742
101681.597
101684.269
101686.032
101687.312
101688.92
101690.981
101693.158
101694.974
101623.724
101623.753
101623.787
101623.824
101623.864
101623.907
101623.955
101624.007
101624.063
101624.123
101624.188
101624.258
101624.332
101624.41
101624.494
101624.582
101624.675
101624.773
101624.876
101624.985
101625.1
101625.222
101625.352
101625.49
101625.639
101625.799
101625.974
101626.167
101626.379
101626.615
101626.88
101627.178
101627.514
101627.895
101628.326
101628.814
101629.364
101629.982
101630.672
101631.439
101632.284
101633.209
101634.21
101635.283
101636.406
101637.54
101638.697
101639.849
101641.322
101643.153
101645.015
101646.867
101648.603
101650.31
101652.074
101653.909
101655.778
101657.72
101659.754
101661.359
101662.814
101664.876
101666.838
101668.548
101670.387
101671.676
101672.841
101674.605
101676.797
101679.216
101681.159
101682.611
101684.569
101686.383
101688.066
101690.076
101692.036
101694.397
101696.32
101698.49
101621.223
101621.263
101621.311
101621.361
101621.415
101621.473
101621.536
101621.603
101621.675
101621.752
101621.834
101621.921
101622.013
101622.11
101622.213
101622.322
101622.437
101622.558
101622.686
101622.822
101622.967
101623.122
101623.288
101623.468
101623.664
101623.879
101624.116
101624.38
101624.675
101625.005
101625.377
101625.797
101626.269
101626.802
101627.4
101628.07
101628.817
101629.644
101630.555
101631.553
101632.64
101633.816
101635.084
101636.453
101637.927
101639.454
101641.169
101643.531
101645.373
101646.949
101649.032
101650.627
101651.968
101653.406
101654.972
101656.543
101658.174
101659.899
101661.614
101663.465
101665.439
101667.186
101668.717
101670.121
101671.242
101673.044
101675.798
101677.566
101678.975
101680.728
101682.967
101685.157
101686.584
101688.209
101690.939
101693.058
101694.958
101697.068
101698.952
101700.922
101618.285
101618.338
101618.401
101618.466
101618.536
101618.61
101618.688
101618.772
101618.862
101618.956
101619.056
101619.162
101619.274
101619.392
101619.516
101619.648
101619.787
101619.935
101620.093
101620.262
101620.444
101620.641
101620.856
101621.092
101621.352
101621.641
101621.964
101622.325
101622.731
101623.189
101623.703
101624.281
101624.93
101625.654
101626.461
101627.353
101628.335
101629.41
101630.577
101631.836
101633.184
101634.617
101636.123
101637.689
101639.306
101640.999
101642.592
101644.076
101646.036
101647.503
101648.601
101650.188
101651.834
101653.516
101655.315
101657.193
101659.128
101661.209
101663.229
101664.986
101666.816
101668.571
101670.5
101672.851
101674.655
101675.591
101677.115
101680.142
101682.489
101683.672
101684.947
101687.87
101690.517
101691.758
101693.19
101695.767
101698.093
101700.57
101702.595
101703.754
101614.909
101614.977
101615.057
101615.139
101615.224
101615.315
101615.41
101615.511
101615.617
101615.729
101615.847
101615.972
101616.103
101616.242
101616.389
101616.545
101616.712
101616.89
101617.082
101617.29
101617.517
101617.766
101618.04
101618.344
101618.683
101619.062
101619.487
101619.963
101620.497
101621.094
101621.761
101622.502
101623.323
101624.225
101625.212
101626.283
101627.439
101628.677
101629.993
101631.384
101632.845
101634.373
101635.962
101637.6
101639.355
101641.326
101643.37
101644.807
101645.823
101647.584
101649.972
101651.973
101653.945
101655.836
101657.552
101659.69
101662.331
101664.27
101665.911
101667.686
101669.56
101671.46
101673.294
101675.11
101676.97
101678.991
101680.9
101682.527
101684.6
101686.992
101689.324
101691.406
101693.418
101695.97
101698.795
101701.156
101703.519
101705.846
101707.006
101708.187
101611.131
101611.214
101611.312
101611.41
101611.512
101611.619
101611.731
101611.848
101611.971
101612.101
101612.237
101612.381
101612.534
101612.695
101612.868
101613.053
101613.252
101613.468
101613.704
101613.964
101614.25
101614.567
101614.921
101615.317
101615.761
101616.258
101616.815
101617.438
101618.132
101618.904
101619.757
101620.694
101621.719
101622.831
101624.03
101625.315
101626.683
101628.13
101629.653
101631.238
101632.887
101634.602
101636.333
101637.987
101639.623
101641.822
101644.443
101647.072
101649.398
101651.451
101653.296
101655.056
101656.933
101658.938
101660.942
101663.021
101664.598
101666.027
101668.11
101670.653
101672.825
101674.579
101676.503
101678.864
101680.382
101681.788
101683.624
101685.79
101687.955
101690.564
101693.783
101696.028
101697.745
101698.89
101701.273
101704.208
101706.106
101707.738
101709.572
101711.767
101607.062
101607.162
101607.277
101607.392
101607.51
101607.633
101607.761
101607.895
101608.036
101608.184
101608.341
101608.508
101608.685
101608.876
101609.082
101609.306
101609.552
101609.822
101610.121
101610.455
101610.827
101611.245
101611.713
101612.239
101612.83
101613.491
101614.228
101615.047
101615.953
101616.949
101618.036
101619.215
101620.483
101621.838
101623.274
101624.782
101626.352
101627.973
101629.628
101631.265
101633.391
101636.141
101638.913
101641.773
101644.658
101646.579
101647.93
101649.299
101650.631
101651.978
101653.907
101656.528
101659.016
101661.521
101664.164
101665.918
101667.572
101670.623
101673.005
101674.646
101676.207
101677.563
101678.87
101679.724
101681.562
101684.178
101686.058
101688.943
101692.576
101695.324
101696.078
101697.374
101700.976
101703.114
101704.288
101705.872
101707.922
101709.882
101711.577
101713.457
101664.8
101664.801
101664.801
101664.802
101664.803
101664.805
101664.806
101664.808
101664.81
101664.812
101664.815
101664.818
101664.821
101664.824
101664.827
101664.831
101664.835
101664.839
101664.843
101664.847
101664.852
101664.857
101664.862
101664.867
101664.873
101664.879
101664.885
101664.892
101664.899
101664.906
101664.914
101664.923
101664.932
101664.942
101664.952
101664.962
101664.975
101664.99
101665.005
101665.022
101665.041
101665.061
101665.084
101665.109
101665.137
101665.168
101665.203
101665.241
101665.282
101665.327
101665.377
101665.43
101665.489
101665.554
101665.62
101665.686
101665.748
101665.802
101665.842
101665.857
101665.833
101665.751
101665.593
101665.335
101664.949
101664.398
101663.667
101662.784
101661.793
101660.733
101659.59
101658.313
101656.803
101654.994
101652.89
101650.641
101648.374
101646.048
101643.396
101640.227
101661.103
101661.104
101661.104
101661.105
101661.105
101661.104
101661.103
101661.103
101661.101
101661.1
101661.098
101661.095
101661.092
101661.089
101661.086
101661.082
101661.077
101661.072
101661.066
101661.06
101661.053
101661.045
101661.037
101661.028
101661.018
101661.008
101660.996
101660.984
101660.971
101660.958
101660.943
101660.927
101660.911
101660.894
101660.875
101660.856
101660.837
101660.817
101660.796
101660.774
101660.752
101660.729
101660.706
101660.682
101660.658
101660.633
101660.608
101660.583
101660.557
101660.531
101660.503
101660.473
101660.441
101660.405
101660.362
101660.309
101660.239
101660.146
101660.018
101659.842
101659.601
101659.275
101658.838
101658.267
101657.539
101656.634
101655.542
101654.275
101652.864
101651.32
101649.632
101647.749
101645.581
101643.025
101640.083
101636.886
101633.625
101630.43
101626.879
101621.229
101657.465
101657.466
101657.466
101657.466
101657.465
101657.463
101657.46
101657.456
101657.452
101657.446
101657.439
101657.432
101657.423
101657.413
101657.403
101657.391
101657.377
101657.363
101657.347
101657.329
101657.311
101657.29
101657.268
101657.244
101657.219
101657.191
101657.162
101657.13
101657.097
101657.061
101657.023
101656.982
101656.939
101656.893
101656.844
101656.793
101656.739
101656.682
101656.622
101656.559
101656.493
101656.423
101656.349
101656.272
101656.19
101656.104
101656.014
101655.919
101655.817
101655.71
101655.595
101655.471
101655.337
101655.188
101655.021
101654.829
101654.603
101654.332
101654.002
101653.599
101653.105
101652.499
101651.755
101650.847
101649.748
101648.444
101646.93
101645.212
101643.299
101641.19
101638.833
101636.17
101633.144
101629.681
101625.676
101621.034
101615.913
101610.416
101603.723
101595.113
101653.953
101653.954
101653.955
101653.954
101653.952
101653.948
101653.944
101653.937
101653.929
101653.92
101653.909
101653.897
101653.882
101653.867
101653.849
101653.829
101653.808
101653.784
101653.758
101653.73
101653.699
101653.666
101653.631
101653.592
101653.551
101653.507
101653.46
101653.409
101653.355
101653.297
101653.236
101653.17
101653.101
101653.027
101652.949
101652.866
101652.778
101652.685
101652.586
101652.481
101652.371
101652.254
101652.13
101651.999
101651.86
101651.712
101651.556
101651.39
101651.213
101651.023
101650.82
101650.6
101650.36
101650.093
101649.793
101649.451
101649.058
101648.601
101648.066
101647.436
101646.691
101645.81
101644.767
101643.534
101642.079
101640.38
101638.43
101636.236
101633.788
101631.039
101627.925
101624.368
101620.314
101615.762
101610.62
101604.686
101597.718
101589.137
101578.657
101571.012
101650.638
101650.64
101650.641
101650.64
101650.638
101650.633
101650.626
101650.618
101650.607
101650.595
101650.58
101650.563
101650.544
101650.523
101650.499
101650.472
101650.443
101650.412
101650.377
101650.339
101650.298
101650.254
101650.206
101650.155
101650.1
101650.04
101649.977
101649.909
101649.837
101649.76
101649.677
101649.589
101649.496
101649.397
101649.291
101649.18
101649.061
101648.935
101648.802
101648.66
101648.51
101648.35
101648.18
101648
101647.809
101647.605
101647.387
101647.155
101646.907
101646.64
101646.352
101646.038
101645.692
101645.308
101644.879
101644.395
101643.846
101643.218
101642.495
101641.657
101640.685
101639.555
101638.24
101636.712
101634.944
101632.909
101630.596
101627.963
101625.043
101621.878
101618.298
101614.163
101609.404
101603.972
101597.916
101591.488
101584.238
101577.739
101569.635
101558.134
101647.58
101647.582
101647.584
101647.583
101647.58
101647.574
101647.567
101647.557
101647.544
101647.529
101647.512
101647.491
101647.468
101647.442
101647.413
101647.382
101647.346
101647.308
101647.266
101647.22
101647.171
101647.117
101647.06
101646.997
101646.931
101646.859
101646.783
101646.701
101646.613
101646.52
101646.42
101646.314
101646.201
101646.081
101645.954
101645.818
101645.675
101645.522
101645.36
101645.188
101645.006
101644.812
101644.606
101644.388
101644.156
101643.909
101643.646
101643.366
101643.066
101642.744
101642.395
101642.014
101641.595
101641.131
101640.614
101640.032
101639.374
101638.623
101637.761
101636.768
101635.623
101634.301
101632.778
101631.024
101629.017
101626.691
101624.016
101621.6
101619.268
101615.77
101611.061
101605.84
101599.908
101593.33
101587.544
101581.281
101574.63
101566.003
101551.9
101541.982
101644.834
101644.837
101644.839
101644.839
101644.836
101644.83
101644.822
101644.811
101644.797
101644.78
101644.761
101644.738
101644.712
101644.683
101644.651
101644.615
101644.576
101644.532
101644.485
101644.434
101644.378
101644.318
101644.253
101644.183
101644.108
101644.028
101643.942
101643.85
101643.751
101643.646
101643.534
101643.415
101643.288
101643.153
101643.01
101642.857
101642.695
101642.523
101642.339
101642.144
101641.937
101641.717
101641.483
101641.233
101640.967
101640.682
101640.379
101640.055
101639.708
101639.334
101638.928
101638.485
101638.001
101637.469
101636.88
101636.225
101635.491
101634.665
101633.727
101632.655
101631.423
101629.995
101628.339
101626.361
101624.336
101622.392
101620.216
101616.908
101611.992
101607.762
101604.073
101600.02
101595.545
101589.722
101581.138
101572.75
101564.816
101554.332
101543.385
101533.83
101642.434
101642.439
101642.442
101642.442
101642.439
101642.433
101642.425
101642.414
101642.399
101642.382
101642.361
101642.337
101642.31
101642.279
101642.245
101642.207
101642.165
101642.119
101642.069
101642.014
101641.954
101641.89
101641.821
101641.747
101641.667
101641.581
101641.49
101641.392
101641.287
101641.176
101641.057
101640.93
101640.796
101640.653
101640.502
101640.341
101640.17
101639.989
101639.797
101639.594
101639.38
101639.152
101638.909
101638.65
101638.377
101638.09
101637.785
101637.46
101637.113
101636.739
101636.334
101635.892
101635.404
101634.864
101634.26
101633.583
101632.82
101631.955
101630.973
101629.859
101628.6
101627.171
101625.845
101624.48
101622.471
101619.746
101616.613
101613.423
101610.118
101606.114
101601.183
101595.336
101588.106
101581.871
101576.677
101570.361
101559.719
101547.375
101536.23
101527.243
101640.411
101640.416
101640.42
101640.421
101640.418
101640.413
101640.405
101640.394
101640.38
101640.363
101640.342
101640.318
101640.29
101640.259
101640.224
101640.186
101640.143
101640.096
101640.045
101639.99
101639.929
101639.864
101639.794
101639.718
101639.637
101639.55
101639.457
101639.357
101639.251
101639.138
101639.017
101638.888
101638.752
101638.607
101638.453
101638.289
101638.115
101637.931
101637.735
101637.528
101637.308
101637.074
101636.825
101636.56
101636.281
101635.986
101635.671
101635.335
101634.976
101634.59
101634.174
101633.723
101633.236
101632.714
101632.155
101631.554
101630.888
101630.139
101629.297
101628.338
101627.244
101626.004
101624.339
101622.382
101620.353
101618.008
101615.345
101612.403
101609.151
101605.474
101601.305
101596.628
101591.369
101584.708
101576.327
101566.93
101558.705
101551.205
101543.648
101534.463
101638.768
101638.774
101638.778
101638.779
101638.777
101638.773
101638.765
101638.755
101638.741
101638.724
101638.704
101638.681
101638.654
101638.624
101638.59
101638.552
101638.51
101638.464
101638.414
101638.36
101638.301
101638.237
101638.169
101638.095
101638.016
101637.931
101637.84
101637.743
101637.64
101637.531
101637.414
101637.29
101637.159
101637.019
101636.872
101636.716
101636.551
101636.377
101636.193
101635.998
101635.793
101635.577
101635.349
101635.109
101634.856
101634.589
101634.306
101634.006
101633.687
101633.346
101632.977
101632.57
101632.123
101631.63
101631.086
101630.489
101629.838
101629.118
101628.31
101627.403
101626.373
101625.191
101623.835
101622.258
101620.473
101618.477
101616.219
101613.661
101610.776
101607.52
101603.809
101599.599
101594.83
101589.367
101582.942
101575.644
101566.97
101557.003
101548.767
101540.602
101637.503
101637.508
101637.512
101637.513
101637.512
101637.508
101637.501
101637.491
101637.478
101637.462
101637.444
101637.422
101637.397
101637.368
101637.336
101637.301
101637.261
101637.218
101637.171
101637.12
101637.065
101637.005
101636.941
101636.871
101636.797
101636.718
101636.634
101636.543
101636.447
101636.345
101636.237
101636.122
101636
101635.872
101635.736
101635.592
101635.441
101635.281
101635.113
101634.936
101634.75
101634.554
101634.348
101634.132
101633.904
101633.665
101633.413
101633.148
101632.869
101632.574
101632.261
101631.927
101631.567
101631.178
101630.755
101630.292
101629.782
101629.215
101628.579
101627.862
101627.043
101626.103
101625.021
101623.771
101622.329
101620.673
101618.772
101616.591
101614.104
101611.273
101608.05
101604.394
101600.217
101595.396
101589.827
101583.359
101575.887
101568.746
101560.891
101552.39
101636.587
101636.592
101636.595
101636.596
101636.595
101636.591
101636.584
101636.575
101636.563
101636.549
101636.531
101636.511
101636.488
101636.462
101636.432
101636.4
101636.364
101636.324
101636.281
101636.235
101636.185
101636.13
101636.072
101636.01
101635.943
101635.872
101635.796
101635.716
101635.631
101635.54
101635.444
101635.343
101635.237
101635.125
101635.006
101634.882
101634.752
101634.615
101634.473
101634.323
101634.168
101634.005
101633.837
101633.661
101633.478
101633.288
101633.091
101632.886
101632.671
101632.448
101632.214
101631.968
101631.706
101631.425
101631.122
101630.794
101630.432
101630.031
101629.581
101629.071
101628.485
101627.808
101627.021
101626.101
101625.026
101623.771
101622.306
101620.603
101618.629
101616.35
101613.726
101610.695
101607.168
101603.077
101598.315
101592.773
101586.388
101579.238
101570.57
101563.111
101635.991
101635.994
101635.996
101635.996
101635.994
101635.99
101635.983
101635.975
101635.964
101635.95
101635.935
101635.916
101635.895
101635.872
101635.846
101635.817
101635.786
101635.751
101635.714
101635.674
101635.63
101635.583
101635.533
101635.48
101635.423
101635.362
101635.297
101635.229
101635.156
101635.08
101634.999
101634.914
101634.824
101634.729
101634.63
101634.529
101634.424
101634.316
101634.203
101634.087
101633.966
101633.841
101633.713
101633.581
101633.445
101633.307
101633.166
101633.023
101632.877
101632.729
101632.579
101632.425
101632.267
101632.102
101631.929
101631.743
101631.542
101631.319
101631.068
101630.779
101630.441
101630.04
101629.56
101628.982
101628.286
101627.448
101626.444
101625.245
101623.821
101622.137
101620.149
101617.794
101615.016
101611.759
101607.936
101603.513
101598.318
101592.532
101585.543
101577.148
101635.662
101635.663
101635.663
101635.662
101635.658
101635.653
101635.647
101635.638
101635.627
101635.615
101635.6
101635.584
101635.565
101635.545
101635.522
101635.497
101635.47
101635.44
101635.408
101635.374
101635.338
101635.299
101635.258
101635.214
101635.167
101635.118
101635.066
101635.012
101634.955
101634.896
101634.835
101634.771
101634.704
101634.634
101634.561
101634.484
101634.403
101634.319
101634.233
101634.143
101634.05
101633.961
101633.878
101633.795
101633.713
101633.631
101633.551
101633.473
101633.399
101633.329
101633.264
101633.204