/*--------------------------------*- C++ -*----------------------------------*\
  =========                 |
  \\      /  F ield         | OpenFOAM: The Open Source CFD Toolbox
   \\    /   O peration     | Website:  https://openfoam.org
    \\  /    A nd           | Version:  8
     \\/     M anipulation  |
\*---------------------------------------------------------------------------*/
FoamFile
{
    version     2.0;
    format      ascii;
    class       volScalarField;
    location    "0.082";
    object      p_rgh;
}
// * * * * * * * * * * * * * * * * * * * * * * * * * * * * * * * * * * * * * //

dimensions      [1 -1 -2 0 0 0 0];

internalField   nonuniform List<scalar> 
42400
(
101635.35
101635.341
101635.332
101635.323
101635.314
101635.307
101635.299
101635.293
101635.287
101635.281
101635.276
101635.272
101635.269
101635.266
101635.264
101635.262
101635.262
101635.262
101635.263
101635.265
101635.268
101635.272
101635.276
101635.282
101635.288
101635.296
101635.305
101635.314
101635.325
101635.338
101635.352
101635.367
101635.384
101635.403
101635.424
101635.447
101635.477
101635.518
101635.564
101635.603
101635.635
101635.669
101635.709
101635.761
101635.825
101635.895
101635.971
101636.053
101636.14
101636.232
101636.342
101636.478
101636.618
101636.737
101636.865
101637.024
101637.203
101637.385
101637.572
101637.764
101637.96
101638.158
101638.363
101638.571
101638.769
101638.949
101639.117
101639.24
101639.344
101639.58
101639.499
101639.005
101639.694
101640.078
101638.843
101639.259
101638.002
101636.072
101639.929
101643.581
101635.156
101635.149
101635.141
101635.134
101635.128
101635.122
101635.117
101635.112
101635.108
101635.105
101635.102
101635.1
101635.098
101635.097
101635.097
101635.098
101635.099
101635.101
101635.104
101635.108
101635.113
101635.119
101635.125
101635.132
101635.141
101635.15
101635.16
101635.171
101635.183
101635.197
101635.211
101635.226
101635.246
101635.272
101635.301
101635.334
101635.359
101635.376
101635.394
101635.422
101635.459
101635.501
101635.545
101635.593
101635.645
101635.7
101635.764
101635.844
101635.94
101636.026
101636.101
101636.198
101636.316
101636.443
101636.575
101636.716
101636.868
101637.032
101637.213
101637.413
101637.628
101637.853
101638.088
101638.34
101638.608
101638.889
101639.19
101639.498
101639.751
101640.206
101640.678
101640.589
101640.902
101641.261
101640.874
101642.473
101645.331
101646.403
101647.783
101650.585
101634.879
101634.874
101634.869
101634.864
101634.859
101634.855
101634.852
101634.849
101634.847
101634.845
101634.844
101634.844
101634.844
101634.845
101634.847
101634.849
101634.852
101634.856
101634.861
101634.867
101634.874
101634.882
101634.89
101634.9
101634.91
101634.921
101634.933
101634.946
101634.961
101634.979
101634.999
101635.022
101635.044
101635.061
101635.075
101635.089
101635.111
101635.139
101635.17
101635.202
101635.237
101635.273
101635.308
101635.352
101635.409
101635.48
101635.532
101635.573
101635.642
101635.729
101635.818
101635.913
101636.017
101636.133
101636.264
101636.414
101636.585
101636.775
101636.984
101637.218
101637.48
101637.775
101638.101
101638.471
101638.871
101639.318
101639.783
101640.329
101640.8
101641.43
101642.025
101642.491
101643.484
101646.876
101649.118
101648.688
101649.291
101652.004
101654.602
101655.512
101634.54
101634.537
101634.533
101634.529
101634.526
101634.523
101634.521
101634.519
101634.518
101634.518
101634.518
101634.519
101634.521
101634.524
101634.527
101634.531
101634.536
101634.542
101634.549
101634.557
101634.566
101634.577
101634.588
101634.599
101634.612
101634.626
101634.641
101634.659
101634.677
101634.694
101634.71
101634.727
101634.744
101634.765
101634.79
101634.816
101634.844
101634.872
101634.901
101634.927
101634.962
101635.016
101635.067
101635.095
101635.125
101635.178
101635.242
101635.304
101635.371
101635.447
101635.533
101635.634
101635.751
101635.887
101636.042
101636.221
101636.431
101636.678
101636.965
101637.295
101637.671
101638.103
101638.586
101639.147
101639.763
101640.483
101641.232
101642.124
101642.948
101643.948
101646.377
101648.894
101649.553
101649.228
101650.982
101653.43
101654.694
101655.967
101657.804
101659.714
101634.145
101634.141
101634.138
101634.135
101634.132
101634.13
101634.129
101634.128
101634.127
101634.127
101634.128
101634.13
101634.133
101634.137
101634.142
101634.148
101634.155
101634.163
101634.172
101634.182
101634.193
101634.204
101634.217
101634.231
101634.248
101634.266
101634.284
101634.304
101634.323
101634.345
101634.369
101634.394
101634.419
101634.445
101634.472
101634.5
101634.524
101634.554
101634.602
101634.645
101634.667
101634.694
101634.739
101634.788
101634.836
101634.887
101634.945
101635.012
101635.09
101635.179
101635.283
101635.404
101635.549
101635.724
101635.935
101636.188
101636.488
101636.841
101637.254
101637.735
101638.284
101638.916
101639.622
101640.44
101641.353
101642.39
101643.5
101644.782
101647.111
101648.827
101649.265
101649.952
101651.715
101653.382
101655.085
101656.742
101658.571
101660.594
101662.437
101664.346
101633.693
101633.689
101633.685
101633.682
101633.68
101633.678
101633.676
101633.676
101633.676
101633.677
101633.678
101633.681
101633.685
101633.69
101633.697
101633.704
101633.712
101633.721
101633.732
101633.745
101633.76
101633.778
101633.796
101633.816
101633.837
101633.859
101633.882
101633.907
101633.932
101633.959
101633.986
101634.015
101634.045
101634.072
101634.099
101634.143
101634.189
101634.212
101634.235
101634.277
101634.321
101634.364
101634.41
101634.46
101634.517
101634.58
101634.652
101634.736
101634.835
101634.954
101635.097
101635.271
101635.482
101635.739
101636.046
101636.411
101636.841
101637.346
101637.928
101638.603
101639.357
101640.213
101641.147
101642.206
101643.305
101644.732
101646.714
101647.987
101648.783
101650.113
101651.721
101653.186
101654.878
101656.484
101657.983
101660.001
101662.286
101663.967
101665.623
101667.244
101633.171
101633.167
101633.162
101633.159
101633.156
101633.154
101633.153
101633.153
101633.154
101633.156
101633.159
101633.162
101633.167
101633.172
101633.18
101633.19
101633.202
101633.217
101633.232
101633.248
101633.266
101633.286
101633.308
101633.33
101633.355
101633.381
101633.409
101633.438
101633.468
101633.5
101633.532
101633.563
101633.609
101633.658
101633.687
101633.712
101633.756
101633.802
101633.846
101633.892
101633.941
101633.994
101634.053
101634.12
101634.196
101634.284
101634.389
101634.514
101634.664
101634.846
101635.066
101635.332
101635.651
101636.03
101636.473
101636.992
101637.594
101638.289
101639.073
101639.97
101640.936
101642.004
101643.132
101644.488
101646.451
101647.782
101648.703
101650.179
101651.764
101653.273
101654.811
101656.556
101658.513
101660.657
101663.035
101664.487
101665.39
101667.093
101669.633
101671.476
101632.555
101632.551
101632.547
101632.543
101632.541
101632.54
101632.539
101632.54
101632.541
101632.545
101632.549
101632.556
101632.564
101632.574
101632.586
101632.598
101632.613
101632.629
101632.648
101632.668
101632.69
101632.714
101632.74
101632.769
101632.798
101632.83
101632.863
101632.898
101632.931
101632.97
101633.02
101633.061
101633.093
101633.14
101633.19
101633.239
101633.289
101633.342
101633.399
101633.461
101633.529
101633.606
101633.694
101633.794
101633.912
101634.052
101634.218
101634.418
101634.657
101634.944
101635.287
101635.69
101636.16
101636.704
101637.33
101638.045
101638.851
101639.756
101640.753
101641.857
101643.007
101644.368
101646.439
101648.049
101648.889
101650.085
101651.908
101653.539
101655.188
101657.332
101659.608
101661.655
101663.254
101664.566
101665.796
101667.349
101669.579
101671.355
101672.799
101674.978
101631.829
101631.825
101631.822
101631.819
101631.818
101631.818
101631.819
101631.822
101631.827
101631.833
101631.841
101631.85
101631.861
101631.874
101631.889
101631.906
101631.925
101631.947
101631.97
101631.996
101632.024
101632.054
101632.087
101632.121
101632.156
101632.192
101632.233
101632.284
101632.329
101632.366
101632.415
101632.47
101632.523
101632.579
101632.638
101632.701
101632.769
101632.842
101632.923
101633.014
101633.116
101633.233
101633.369
101633.529
101633.717
101633.94
101634.205
101634.519
101634.892
101635.328
101635.834
101636.418
101637.087
101637.846
101638.701
101639.657
101640.717
101641.875
101643.166
101644.493
101645.992
101647.428
101648.404
101649.525
101651.034
101652.865
101655.192
101657.228
101659.159
101660.87
101662.334
101663.745
101665.301
101667.232
101669.261
101671.033
101672.455
101674.602
101677.208
101678.878
101630.965
101630.963
101630.962
101630.962
101630.964
101630.967
101630.971
101630.977
101630.985
101630.995
101631.006
101631.02
101631.036
101631.055
101631.075
101631.098
101631.124
101631.152
101631.182
101631.215
101631.25
101631.287
101631.326
101631.375
101631.428
101631.47
101631.512
101631.565
101631.624
101631.682
101631.744
101631.808
101631.877
101631.951
101632.03
101632.116
101632.211
101632.317
101632.436
101632.571
101632.727
101632.908
101633.12
101633.368
101633.659
101634.001
101634.401
101634.867
101635.404
101636.017
101636.714
101637.498
101638.372
101639.337
101640.392
101641.535
101642.759
101644.059
101645.433
101646.88
101648.277
101649.779
101651.336
101652.807
101654.362
101656.404
101658.119
101659.342
101661.132
101663.456
101664.837
101666.316
101668.243
101670.246
101672.62
101674.396
101675.972
101677.953
101679.489
101681.619
101629.938
101629.939
101629.941
101629.945
101629.951
101629.958
101629.967
101629.978
101629.991
101630.007
101630.025
101630.045
101630.069
101630.094
101630.123
101630.154
101630.188
101630.225
101630.263
101630.306
101630.355
101630.406
101630.453
101630.504
101630.563
101630.626
101630.689
101630.755
101630.826
101630.9
101630.979
101631.064
101631.156
101631.256
101631.366
101631.488
101631.624
101631.78
101631.957
101632.162
101632.398
101632.674
101632.994
101633.366
101633.797
101634.294
101634.864
101635.51
101636.237
101637.049
101637.947
101638.931
101639.999
101641.146
101642.365
101643.668
101645.026
101646.445
101647.928
101649.412
101650.854
101652.226
101653.463
101655.367
101657.854
101659.723
101661.223
101663.142
101664.533
101665.669
101667.571
101670.002
101671.802
101673.3
101675.305
101677.502
101679.071
101680.781
101682.733
101684.339
101628.713
101628.718
101628.725
101628.735
101628.746
101628.759
101628.775
101628.793
101628.814
101628.837
101628.864
101628.893
101628.925
101628.961
101628.999
101629.041
101629.086
101629.138
101629.189
101629.241
101629.299
101629.362
101629.428
101629.497
101629.569
101629.646
101629.726
101629.812
101629.902
101630
101630.105
101630.219
101630.344
101630.483
101630.638
101630.813
101631.012
101631.241
101631.503
101631.806
101632.157
101632.56
101633.025
101633.557
101634.164
101634.848
101635.615
101636.467
101637.402
101638.419
101639.508
101640.663
101641.872
101643.11
101644.347
101645.668
101647.309
101649.072
101650.813
101652.731
101654.661
101656.597
101658.654
101660.206
101661.354
101662.39
101663.614
101665.145
101667.133
101669.215
101670.529
101671.478
101673.388
101676.139
101678.211
101680.301
101682.443
101684.244
101685.811
101687.2
101627.248
101627.259
101627.273
101627.29
101627.309
101627.33
101627.354
101627.381
101627.412
101627.446
101627.483
101627.523
101627.567
101627.614
101627.668
101627.723
101627.779
101627.842
101627.909
101627.979
101628.053
101628.131
101628.213
101628.3
101628.391
101628.488
101628.591
101628.702
101628.82
101628.949
101629.09
101629.245
101629.418
101629.613
101629.833
101630.083
101630.37
101630.698
101631.075
101631.507
101632.001
101632.563
101633.201
101633.92
101634.723
101635.616
101636.602
101637.682
101638.856
101640.119
101641.468
101642.902
101644.42
101646.007
101647.673
101649.323
101650.774
101652.18
101653.707
101655.286
101656.641
101657.693
101659.275
101661.261
101662.721
101664.291
101666.185
101667.929
101670.009
101672.235
101674.435
101677.111
101679.115
101680.225
101681.89
101683.871
101685.416
101687.1
101689.134
101691.027
101625.493
101625.512
101625.535
101625.56
101625.589
101625.62
101625.655
101625.694
101625.736
101625.782
101625.832
101625.887
101625.945
101626.006
101626.072
101626.143
101626.218
101626.297
101626.38
101626.468
101626.561
101626.659
101626.762
101626.871
101626.987
101627.111
101627.245
101627.389
101627.546
101627.719
101627.911
101628.126
101628.367
101628.64
101628.95
101629.303
101629.705
101630.163
101630.683
101631.271
101631.933
101632.673
101633.496
101634.403
101635.392
101636.463
101637.618
101638.858
101640.182
101641.565
101643.01
101644.522
101646.036
101647.55
101649.105
101650.69
101652.382
101654.088
101655.431
101657.079
101659.143
101660.756
101662.306
101663.943
101665.938
101668.124
101669.764
101671.549
101674.063
101676.027
101677.729
101679.49
101681.527
101684.141
101685.922
101687.297
101688.996
101691.045
101693.014
101694.703
101623.391
101623.419
101623.453
101623.49
101623.53
101623.574
101623.622
101623.674
101623.73
101623.79
101623.855
101623.925
101623.999
101624.078
101624.162
101624.25
101624.343
101624.441
101624.545
101624.654
101624.77
101624.892
101625.022
101625.161
101625.31
101625.471
101625.647
101625.839
101626.052
101626.288
101626.553
101626.851
101627.188
101627.569
101628
101628.488
101629.038
101629.656
101630.347
101631.115
101631.962
101632.89
101633.897
101634.979
101636.119
101637.289
101638.502
101639.726
101641.178
101642.876
101644.633
101646.456
101648.167
101649.845
101651.627
101653.477
101655.381
101657.365
101659.371
101661.039
101662.515
101664.422
101666.321
101668.024
101669.793
101671.225
101672.595
101674.466
101676.589
101678.861
101680.774
101682.326
101684.351
101686.359
101688.228
101690.179
101692.203
101694.475
101696.392
101698.605
101620.897
101620.937
101620.985
101621.035
101621.089
101621.147
101621.21
101621.277
101621.349
101621.426
101621.508
101621.595
101621.688
101621.785
101621.888
101621.997
101622.112
101622.234
101622.362
101622.498
101622.643
101622.798
101622.964
101623.144
101623.34
101623.555
101623.793
101624.056
101624.35
101624.68
101625.051
101625.47
101625.941
101626.472
101627.068
101627.735
101628.478
101629.299
101630.203
101631.191
101632.263
101633.42
101634.66
101635.986
101637.391
101638.85
101640.568
101642.871
101644.827
101646.647
101648.803
101650.44
101651.88
101653.366
101654.874
101656.396
101657.984
101659.617
101661.251
101663.05
101664.991
101666.767
101668.325
101669.857
101671.337
101673.177
101675.577
101677.252
101678.754
101680.659
101682.872
101684.939
101686.499
101688.434
101691.03
101693.095
101695.022
101697.123
101699.021
101701.103
101617.97
101618.024
101618.087
101618.152
101618.222
101618.296
101618.375
101618.459
101618.548
101618.643
101618.743
101618.849
101618.961
101619.079
101619.204
101619.336
101619.476
101619.624
101619.783
101619.952
101620.134
101620.332
101620.547
101620.783
101621.044
101621.333
101621.656
101622.018
101622.424
101622.882
101623.396
101623.974
101624.622
101625.347
101626.153
101627.045
101628.027
101629.102
101630.27
101631.531
101632.885
101634.328
101635.852
101637.446
101639.106
101640.835
101642.483
101644.058
101645.904
101647.365
101648.575
101650.129
101651.751
101653.428
101655.24
101657.113
101659.029
101661.101
101663.063
101664.81
101666.676
101668.417
101670.387
101672.62
101674.128
101675.161
101677.119
101680.05
101682.269
101683.519
101684.951
101687.882
101690.31
101691.522
101693.098
101695.655
101697.987
101700.441
101702.288
101703.558
101614.609
101614.677
101614.757
101614.839
101614.925
101615.015
101615.111
101615.212
101615.318
101615.431
101615.549
101615.674
101615.806
101615.946
101616.093
101616.25
101616.417
101616.596
101616.789
101616.999
101617.226
101617.476
101617.752
101618.058
101618.399
101618.779
101619.206
101619.685
101620.221
101620.821
101621.492
101622.237
101623.061
101623.969
101624.961
101626.039
101627.202
101628.448
101629.773
101631.173
101632.642
101634.176
101635.766
101637.413
101639.176
101641.116
101642.982
101644.356
101645.648
101647.556
101649.773
101651.73
101653.68
101655.568
101657.333
101659.415
101661.853
101663.792
101665.568
101667.444
101669.338
101671.219
101673.027
101674.826
101676.663
101678.629
101680.603
101682.466
101684.568
101686.846
101689.188
101691.381
101693.476
101695.973
101698.648
101700.914
101703.249
101705.464
101706.604
101707.827
101610.844
101610.928
101611.025
101611.124
101611.226
101611.333
101611.445
101611.562
101611.686
101611.816
101611.953
101612.097
101612.25
101612.413
101612.586
101612.772
101612.972
101613.189
101613.426
101613.686
101613.973
101614.292
101614.647
101615.044
101615.489
101615.988
101616.546
101617.171
101617.867
101618.64
101619.494
101620.433
101621.458
101622.572
101623.772
101625.057
101626.425
101627.873
101629.395
101630.982
101632.632
101634.347
101636.092
101637.779
101639.463
101641.584
101644.131
101646.724
101648.969
101650.951
101652.807
101654.611
101656.5
101658.458
101660.394
101662.489
101664.303
101666.001
101668.189
101670.625
101672.586
101674.219
101676.084
101678.272
101679.903
101681.646
101683.784
101686.028
101688.277
101690.854
101693.652
101695.726
101697.533
101698.918
101701.251
101704.062
101706.08
101707.756
101709.535
101711.528
101606.785
101606.884
101606.999
101607.114
101607.232
101607.355
101607.484
101607.618
101607.759
101607.908
101608.065
101608.232
101608.41
101608.601
101608.807
101609.032
101609.277
101609.548
101609.847
101610.181
101610.553
101610.971
101611.439
101611.965
101612.555
101613.216
101613.952
101614.771
101615.676
101616.67
101617.756
101618.933
101620.201
101621.555
101622.989
101624.497
101626.067
101627.689
101629.345
101630.991
101633.016
101635.616
101638.338
101641.127
101643.966
101646.138
101647.69
101649.046
101650.322
101651.768
101653.835
101656.381
101658.828
101661.311
101663.876
101665.759
101667.533
101670.246
101672.433
101673.928
101675.49
101677.228
101678.828
101680.068
101682.026
101684.298
101686.148
101689.164
101692.472
101694.794
101695.828
101697.609
101700.749
101702.751
101704.154
101705.906
101707.947
101709.83
101711.603
101713.675
101664.622
101664.622
101664.623
101664.624
101664.625
101664.627
101664.628
101664.63
101664.633
101664.635
101664.638
101664.641
101664.645
101664.648
101664.652
101664.657
101664.661
101664.666
101664.671
101664.676
101664.682
101664.687
101664.694
101664.7
101664.707
101664.714
101664.722
101664.73
101664.739
101664.748
101664.758
101664.768
101664.779
101664.791
101664.803
101664.816
101664.832
101664.849
101664.868
101664.888
101664.91
101664.934
101664.96
101664.99
101665.022
101665.058
101665.097
101665.14
101665.186
101665.238
101665.293
101665.352
101665.418
101665.49
101665.563
101665.637
101665.708
101665.771
101665.82
101665.846
101665.835
101665.77
101665.63
101665.393
101665.03
101664.506
101663.801
101662.931
101661.939
101660.866
101659.716
101658.469
101657.024
101655.297
101653.257
101651.031
101648.768
101646.498
101643.995
101640.903
101660.906
101660.906
101660.907
101660.907
101660.907
101660.907
101660.906
101660.906
101660.905
101660.903
101660.902
101660.9
101660.897
101660.895
101660.891
101660.888
101660.884
101660.88
101660.875
101660.869
101660.863
101660.857
101660.849
101660.842
101660.833
101660.824
101660.814
101660.804
101660.792
101660.78
101660.767
101660.754
101660.739
101660.724
101660.708
101660.692
101660.676
101660.658
101660.64
101660.622
101660.603
101660.584
101660.565
101660.545
101660.525
101660.505
101660.486
101660.466
101660.446
101660.426
101660.405
101660.382
101660.358
101660.33
101660.295
101660.251
101660.192
101660.11
101659.994
101659.832
101659.608
101659.299
101658.882
101658.333
101657.627
101656.743
101655.67
101654.421
101653.022
101651.49
101649.812
101647.954
101645.834
101643.348
101640.467
101637.301
101634.047
101630.886
101627.409
101621.767
101657.244
101657.245
101657.245
101657.245
101657.244
101657.242
101657.239
101657.236
101657.231
101657.226
101657.22
101657.212
101657.204
101657.195
101657.185
101657.173
101657.161
101657.147
101657.132
101657.115
101657.097
101657.078
101657.056
101657.034
101657.009
101656.983
101656.955
101656.925
101656.893
101656.859
101656.823
101656.784
101656.743
101656.7
101656.653
101656.604
101656.553
101656.499
101656.442
101656.382
101656.319
101656.253
101656.184
101656.111
101656.034
101655.953
101655.868
101655.778
101655.683
101655.581
101655.473
101655.356
101655.23
101655.089
101654.932
101654.749
101654.534
101654.276
101653.96
101653.572
101653.094
101652.504
101651.778
101650.89
101649.811
101648.526
101647.029
101645.327
101643.431
101641.337
101639
101636.36
101633.357
101629.921
101625.961
101621.383
101616.288
101610.847
101604.138
101595.421
101653.705
101653.707
101653.707
101653.706
101653.704
101653.701
101653.696
101653.69
101653.682
101653.673
101653.662
101653.65
101653.636
101653.621
101653.604
101653.585
101653.563
101653.54
101653.515
101653.488
101653.458
101653.426
101653.391
101653.354
101653.314
101653.271
101653.225
101653.176
101653.123
101653.067
101653.007
101652.944
101652.876
101652.804
101652.728
101652.648
101652.562
101652.472
101652.376
101652.274
101652.167
101652.053
101651.933
101651.806
101651.671
101651.528
101651.377
101651.215
101651.043
101650.86
101650.662
101650.449
101650.216
101649.957
101649.666
101649.334
101648.95
101648.504
101647.98
101647.362
101646.629
101645.76
101644.731
101643.511
101642.072
101640.389
101638.454
101636.272
101633.84
101631.115
101628.033
101624.508
101620.478
101615.936
101610.816
101604.945
101598.134
101589.801
101579.452
101571.236
101650.361
101650.363
101650.363
101650.362
101650.36
101650.355
101650.349
101650.34
101650.33
101650.317
101650.303
101650.287
101650.268
101650.247
101650.223
101650.197
101650.169
101650.137
101650.103
101650.066
101650.026
101649.982
101649.936
101649.885
101649.831
101649.773
101649.711
101649.644
101649.573
101649.497
101649.416
101649.33
101649.238
101649.14
101649.037
101648.927
101648.811
101648.687
101648.556
101648.417
101648.269
101648.112
101647.946
101647.769
101647.581
101647.381
101647.168
101646.94
101646.696
101646.434
101646.152
101645.844
101645.504
101645.127
101644.705
101644.229
101643.688
101643.068
101642.353
101641.523
101640.559
101639.437
101638.13
101636.611
101634.852
101632.828
101630.527
101627.922
101625.04
101621.899
101618.341
101614.231
101609.48
101604.013
101597.897
101591.372
101583.967
101577.1
101569.092
101558.227
101647.271
101647.273
101647.275
101647.274
101647.271
101647.265
101647.258
101647.248
101647.235
101647.22
101647.203
101647.183
101647.16
101647.134
101647.106
101647.074
101647.039
101647.001
101646.96
101646.915
101646.866
101646.813
101646.756
101646.695
101646.629
101646.558
101646.482
101646.401
101646.315
101646.222
101646.124
101646.019
101645.908
101645.789
101645.663
101645.529
101645.387
101645.236
101645.076
101644.905
101644.725
101644.533
101644.33
101644.114
101643.884
101643.64
101643.379
101643.101
101642.804
101642.485
101642.14
101641.762
101641.347
101640.888
101640.375
101639.799
101639.146
101638.4
101637.544
101636.557
101635.417
101634.099
101632.578
101630.826
101628.817
101626.499
101623.838
101621.372
101618.983
101615.496
101610.845
101605.685
101599.832
101593.336
101587.224
101580.65
101573.839
101565.063
101551.321
101541.393
101644.493
101644.496
101644.498
101644.498
101644.495
101644.489
101644.481
101644.47
101644.456
101644.439
101644.42
101644.397
101644.372
101644.343
101644.311
101644.275
101644.236
101644.193
101644.146
101644.095
101644.04
101643.98
101643.916
101643.846
101643.772
101643.692
101643.607
101643.515
101643.418
101643.313
101643.202
101643.084
101642.958
101642.824
101642.681
101642.53
101642.369
101642.198
101642.016
101641.822
101641.617
101641.398
101641.166
101640.917
101640.653
101640.37
101640.069
101639.746
101639.4
101639.028
101638.623
101638.182
101637.698
101637.166
101636.576
101635.92
101635.186
101634.357
101633.417
101632.344
101631.111
101629.687
101628.036
101626.082
101623.994
101621.912
101619.657
101616.407
101611.61
101607.376
101603.645
101599.511
101594.959
101589.167
101580.854
101572.224
101563.827
101553.286
101542.337
101532.838
101642.063
101642.067
101642.07
101642.07
101642.067
101642.061
101642.053
101642.042
101642.027
101642.01
101641.989
101641.966
101641.938
101641.908
101641.874
101641.836
101641.794
101641.748
101641.698
101641.643
101641.584
101641.52
101641.452
101641.377
101641.298
101641.213
101641.121
101641.024
101640.92
101640.809
101640.69
101640.564
101640.43
101640.288
101640.137
101639.976
101639.806
101639.626
101639.434
101639.232
101639.017
101638.79
101638.547
101638.29
101638.018
101637.731
101637.426
101637.101
101636.753
101636.379
101635.973
101635.53
101635.042
101634.501
101633.899
101633.223
101632.459
101631.592
101630.604
101629.478
101628.2
101626.747
101625.3
101623.826
101621.884
101619.272
101616.225
101613.128
101609.849
101605.811
101600.809
101594.93
101587.704
101581.062
101575.405
101569.111
101559.035
101546.757
101535.445
101526.196
101640.012
101640.017
101640.02
101640.021
101640.019
101640.013
101640.005
101639.994
101639.98
101639.962
101639.942
101639.918
101639.89
101639.859
101639.824
101639.786
101639.743
101639.696
101639.645
101639.59
101639.53
101639.465
101639.394
101639.319
101639.238
101639.151
101639.058
101638.959
101638.853
101638.74
101638.619
101638.491
101638.355
101638.21
101638.056
101637.892
101637.719
101637.535
101637.339
101637.132
101636.912
101636.679
101636.43
101636.166
101635.887
101635.591
101635.274
101634.935
101634.571
101634.18
101633.759
101633.303
101632.811
101632.282
101631.713
101631.099
101630.423
101629.67
101628.827
101627.869
101626.775
101625.531
101623.94
101622.027
101619.954
101617.603
101614.903
101611.848
101608.496
101604.774
101600.567
101595.85
101590.548
101583.956
101575.671
101566.178
101557.564
101549.567
101541.889
101533.058
101638.345
101638.35
101638.354
101638.355
101638.353
101638.349
101638.341
101638.33
101638.317
101638.3
101638.28
101638.256
101638.229
101638.199
101638.165
101638.127
101638.086
101638.04
101637.99
101637.935
101637.876
101637.813
101637.744
101637.67
101637.591
101637.506
101637.415
101637.318
101637.215
101637.105
101636.988
101636.864
101636.733
101636.593
101636.445
101636.289
101636.124
101635.949
101635.764
101635.57
101635.364
101635.147
101634.918
101634.678
101634.424
101634.155
101633.871
101633.569
101633.248
101632.905
101632.534
101632.127
101631.681
101631.189
101630.645
101630.045
101629.384
101628.646
101627.82
101626.897
101625.854
101624.663
101623.296
101621.713
101619.912
101617.889
101615.597
101612.994
101610.068
101606.776
101603.039
101598.803
101593.994
101588.502
101582.084
101574.853
101566.134
101556.417
101547.656
101538.885
101637.06
101637.065
101637.069
101637.07
101637.069
101637.064
101637.057
101637.047
101637.035
101637.019
101637
101636.978
101636.953
101636.924
101636.892
101636.856
101636.817
101636.774
101636.727
101636.676
101636.62
101636.56
101636.496
101636.426
101636.352
101636.273
101636.188
101636.097
101636.001
101635.899
101635.79
101635.675
101635.553
101635.424
101635.287
101635.143
101634.991
101634.831
101634.662
101634.484
101634.297
101634.1
101633.892
101633.674
101633.445
101633.203
101632.949
101632.681
101632.398
101632.099
101631.782
101631.443
101631.079
101630.685
101630.256
101629.787
101629.269
101628.693
101628.046
101627.316
101626.484
101625.532
101624.435
101623.169
101621.708
101620.03
101618.103
101615.894
101613.379
101610.521
101607.276
101603.592
101599.379
101594.515
101588.894
101582.362
101575.013
101567.757
101559.768
101551.182
101636.131
101636.135
101636.139
101636.139
101636.138
101636.134
101636.127
101636.118
101636.106
101636.091
101636.074
101636.053
101636.03
101636.004
101635.974
101635.942
101635.905
101635.866
101635.823
101635.776
101635.726
101635.671
101635.613
101635.55
101635.483
101635.412
101635.336
101635.255
101635.169
101635.078
101634.982
101634.88
101634.773
101634.66
101634.541
101634.416
101634.285
101634.147
101634.003
101633.853
101633.695
101633.531
101633.36
101633.183
101632.998
101632.805
101632.605
101632.397
101632.179
101631.952
101631.714
101631.463
101631.197
101630.911
101630.602
101630.267
101629.898
101629.488
101629.028
101628.506
101627.908
101627.218
101626.415
101625.48
101624.387
101623.111
101621.625
101619.897
101617.897
101615.589
101612.936
101609.872
101606.305
101602.169
101597.351
101591.756
101585.295
101578.084
101569.575
101562.247
101635.527
101635.53
101635.532
101635.532
101635.53
101635.525
101635.519
101635.51
101635.499
101635.485
101635.47
101635.451
101635.43
101635.407
101635.381
101635.352
101635.32
101635.286
101635.248
101635.208
101635.164
101635.117
101635.066
101635.012
101634.955
101634.894
101634.829
101634.76
101634.687
101634.61
101634.529
101634.443
101634.353
101634.258
101634.158
101634.055
101633.949
101633.839
101633.726
101633.607
101633.485
101633.359
101633.228
101633.094
101632.957
101632.816
101632.672
101632.526
101632.377
101632.225
101632.071
101631.912
101631.749
101631.579
101631.4
101631.207
101630.998
101630.767
101630.507
101630.207
101629.857
101629.444
101628.949
101628.356
101627.642
101626.786
101625.76
101624.538
101623.087
101621.375
101619.354
101616.96
101614.138
101610.829
101606.95
101602.461
101597.209
101591.349
101584.275
101575.985
101635.195
101635.196
101635.196
101635.195
101635.191
101635.186
101635.179
101635.171
101635.16
101635.147
101635.133
101635.116
101635.098
101635.077
101635.054
101635.029
101635.002
101634.972
101634.94
101634.906
101634.869
101634.83
101634.788
101634.744
101634.697
101634.648
101634.596
101634.541
101634.484
101634.424
101634.362
101634.297
101634.23
101634.16
101634.086
101634.009
101633.927
101633.842
101633.754
101633.663
101633.569
101633.477
101633.391
101633.306
101633.222
101633.138
101633.055
101632.975
101632.897
101632.824
101632.755