/*--------------------------------*- C++ -*----------------------------------*\
  =========                 |
  \\      /  F ield         | OpenFOAM: The Open Source CFD Toolbox
   \\    /   O peration     | Website:  https://openfoam.org
    \\  /    A nd           | Version:  8
     \\/     M anipulation  |
\*---------------------------------------------------------------------------*/
FoamFile
{
    version     2.0;
    format      ascii;
    class       volScalarField;
    location    "0.082";
    object      T;
}
// * * * * * * * * * * * * * * * * * * * * * * * * * * * * * * * * * * * * * //

dimensions      [0 0 0 1 0 0 0];

internalField   nonuniform List<scalar> 
42400
(
472.221509
470.647518
469.032588
467.376066
465.677354
463.935924
462.151337
460.323268
458.451522
456.536068
454.577059
452.574867
450.530112
448.44369
446.316813
444.151038
441.948302
439.710954
437.441787
435.144068
432.821563
430.478557
428.119872
425.750874
423.377473
421.006118
418.643779
416.297921
413.976468
411.687737
409.440353
407.243159
405.105128
403.035261
401.042496
399.135641
397.323338
395.613997
394.015696
392.536089
391.182312
389.960873
388.877547
387.937273
387.144036
386.500768
386.009186
385.669557
385.48058
385.439291
385.540262
385.776571
386.1358
386.60344
387.160111
387.777105
388.422115
389.076218
389.745597
390.146035
390.225426
389.993921
389.258466
388.30975
387.065192
385.457034
383.345763
380.678721
377.395138
373.48143
369.185057
364.169784
358.230131
352.639923
346.915933
339.873089
332.706728
327.637376
321.409359
316.604178
472.251285
470.73748
469.184286
467.591071
465.957263
464.282365
462.565974
460.807808
459.007723
457.165748
455.282109
453.357261
451.391918
449.387092
447.344124
445.264719
443.150984
441.005464
438.831171
436.631618
434.410851
432.173463
429.92462
427.670065
425.416122
423.169685
420.938198
418.729622
416.552387
414.415332
412.327629
410.298697
408.338107
406.455483
404.660406
402.96229
401.370256
399.892976
398.538511
397.314139
396.226167
395.279773
394.478816
393.825611
393.320651
392.962486
392.747318
392.669141
392.717681
392.882052
393.144026
393.480229
393.860913
394.258274
394.657144
394.94503
394.974072
394.744646
394.044328
393.157153
392.00682
390.525245
388.608831
386.165497
383.164134
379.594264
375.454225
370.785653
365.610233
359.900152
354.023517
348.037797
341.429533
334.860673
329.120911
323.184328
317.411315
311.947204
307.747207
303.836642
472.291237
470.8582
469.387877
467.879682
466.333091
464.747665
463.123065
461.45908
459.755651
458.012898
456.231151
454.410982
452.553234
450.659063
448.729965
446.767821
444.774927
442.754031
440.708367
438.641687
436.558289
434.463035
432.361374
430.259341
428.163563
426.081238
424.020111
421.988437
419.994921
418.048656
416.159044
414.335686
412.588264
410.926393
409.35946
407.896422
406.545591
405.3144
404.209178
403.234895
402.394879
401.690487
401.1208
400.682583
400.369622
400.172117
400.07613
400.063359
400.108319
400.191826
400.289072
400.348778
400.248129
399.904676
399.256587
398.34408
397.214596
395.804708
394.042394
391.807808
389.062243
385.77994
381.95175
377.596418
372.743842
367.439737
361.745259
355.739772
349.563927
343.183123
336.812878
330.79074
324.923707
319.226395
314.083682
309.750224
305.820854
302.570685
300.422135
299.939845
472.338315
471.000462
469.627819
468.219866
466.776152
465.296318
463.780119
462.227444
460.638349
459.01308
457.352103
455.656141
453.926202
452.163614
450.370063
448.547625
446.698802
444.826556
442.934338
441.026116
439.1064
437.180256
435.253316
433.331775
431.422385
429.532428
427.669676
425.842332
424.058955
422.328361
420.6595
419.061295
417.542468
416.111321
414.775496
413.541715
412.415496
411.400829
410.499839
409.712445
409.036221
408.465665
407.991577
407.6011
407.278478
407.005588
406.764954
406.491498
406.11187
405.576685
404.827865
403.842644
402.680312
401.282539
399.587085
397.504923
394.972612
391.955607
388.43075
384.394505
379.860652
374.870884
369.470915
363.717124
357.685515
351.463283
345.162924
338.856427
332.715499
326.800616
321.206712
316.076052
311.581551
307.664155
304.361457
301.684739
300.227578
299.942901
299.873608
299.859674
472.389039
471.153749
469.886379
468.586491
467.25373
465.887838
464.488686
463.056288
461.590838
460.092727
458.562584
457.001298
455.410055
453.790366
452.144102
450.473524
448.781315
447.070603
445.344986
443.608556
441.865901
440.122117
438.382799
436.654018
434.942292
433.25453
431.597963
429.980042
428.408324
426.890311
425.433268
424.044014
422.728672
421.492386
420.339011
419.270772
418.287859
417.388201
416.567054
415.816657
415.126737
414.484387
413.872652
413.234978
412.535466
411.732333
410.777904
409.676155
408.425066
406.978305
405.284076
403.273693
400.884437
398.079245
394.827691
391.11038
386.921681
382.271954
377.187846
371.722859
365.937166
359.899696
353.688336
347.389396
341.099587
334.920433
328.976691
323.360374
318.174461
313.518777
309.482757
306.08497
303.422856
301.301959
300.191035
299.955429
299.89421
299.866744
299.855332
299.852173
472.439475
471.306173
470.143508
468.95114
467.728819
466.476405
465.19389
463.881422
462.53933
461.168151
459.768655
458.341876
456.889138
455.41208
453.912685
452.393299
450.856655
449.305883
447.744523
446.176528
444.606248
443.038419
441.478123
439.93074
438.401873
436.897254
435.422628
433.983602
432.585477
431.233033
429.930298
428.680283
427.484682
426.343525
425.254957
424.214975
423.217078
422.248616
421.291186
420.322158
419.315144
418.240005
417.065921
415.799481
414.407996
412.855011
411.098136
409.082344
406.759279
404.093215
401.052022
397.610126
393.750998
389.468584
384.769045
379.672216
374.212476
368.444395
362.431553
356.24558
349.971488
343.699194
337.520206
331.530184
325.829403
320.524226
315.707111
311.472566
307.871672
304.965612
302.760802
301.156243
300.165548
299.957893
299.895913
299.878254
299.870326
299.857834
299.846318
299.834948
472.485083
471.444017
470.376065
469.280985
468.158632
467.00897
465.832098
464.628267
463.397903
462.141629
460.860287
459.554958
458.226984
456.877981
455.509856
454.124814
452.725366
451.314318
449.894767
448.47007
447.043809
445.619741
444.20172
442.793613
441.39918
440.021936
438.664987
437.330835
436.021157
434.736551
433.476263
432.237879
431.017079
429.807234
428.597441
427.373547
426.118734
424.818344
423.456935
422.013746
420.464448
418.780357
416.926428
414.860869
412.551222
409.965445
407.073248
403.84777
400.267576
396.31811
391.993158
387.296175
382.241321
376.854267
371.173518
365.251401
359.151595
352.943827
346.707304
340.52836
334.503317
328.729777
323.302528
318.312204
313.843862
309.975131
306.759398
304.225859
302.348159
301.089744
300.276902
300.008174
299.932123
299.904962
299.887939
299.871567
299.852632
299.82931
299.810285
299.800373
472.520875
471.552201
470.558595
469.539898
468.496036
467.427038
466.333052
465.21436
464.071394
462.904746
461.715188
460.503676
459.271361
458.019589
456.749905
455.464036
454.163881
452.85148
451.52898
450.198577
448.862453
447.52269
446.181159
444.839399
443.498465
442.158756
440.819822
439.480156
438.136974
436.785997
435.421204
434.034565
432.615864
431.152415
429.630767
428.035203
426.346607
424.54151
422.594099
420.478853
418.169102
415.637779
412.858445
409.806358
406.459317
402.799109
398.81272
394.493506
389.842305
384.868426
379.590455
374.037053
368.247615
362.27237
356.176817
350.027404
343.898421
337.87296
332.040994
326.496034
321.332585
316.641752
312.500032
308.963874
306.070231
303.82409
302.192286
301.098692
300.446931
300.099396
299.985614
299.943278
299.913665
299.885654
299.851885
299.825218
299.807506
299.800593
299.798156
299.797534
472.541994
471.616034
470.666297
469.692655
468.695048
467.673496
466.628104
465.559074
464.466705
463.351399
462.213664
461.054105
459.873421
458.67239
457.451842
456.212635
454.955612
453.681582
452.391282
451.085275
449.763863
448.426982
447.074067
445.703902
444.314428
442.902527
441.46372
439.991775
438.479745
436.919034
435.299295
433.608332
431.832025
429.954363
427.957595
425.822398
423.528163
421.053428
418.376458
415.475981
412.331952
408.925906
405.242204
401.268967
396.999034
392.430896
387.569606
382.427629
377.025626
371.39313
365.569142
359.603106
353.556363
347.499222
341.505118
335.654268
330.031784
324.725872
319.824509
315.41027
311.552729
308.299902
305.671226
303.653969
302.194996
301.209693
300.599637
300.259273
300.083039
300.003142
299.943205
299.888944
299.849947
299.818981
299.808267
299.805587
299.805088
299.801799
299.798591
299.79719
472.544697
471.624188
470.680005
469.711971
468.719954
467.703866
466.663662
465.599344
464.510948
463.398543
462.262214
461.10205
459.918115
458.710421
457.478898
456.223359
454.943448
453.638545
452.307654
450.949322
449.561501
448.141382
446.685193
445.187943
443.643419
442.045382
440.38659
438.658985
436.852373
434.955112
432.954159
430.835148
428.582514
426.179713
423.609514
420.854385
417.896976
414.720738
411.310056
407.651203
403.733087
399.548021
395.092518
390.368102
385.382139
380.148686
374.689322
369.033898
363.221208
357.299487
351.327209
345.375013
339.518791
333.8382
328.417073
323.339683
318.686337
314.527354
310.918361
307.895273
305.465608
303.603279
302.248484
301.317812
300.715813
300.344465
300.125157
299.988171
299.90309
299.849394
299.822065
299.814664
299.811075
299.809452
299.806174
299.805037
299.804967
299.804276
299.802533
299.799797
472.528975
471.576658
470.599787
469.598101
468.571348
467.519274
466.441617
465.338095
464.208386
463.05212
461.868856
460.658056
459.419055
458.150242
456.849504
455.514926
454.144414
452.735418
451.284871
449.789125
448.243912
446.644312
444.984746
443.259093
441.460577
439.580415
437.608772
435.534789
433.346601
431.031416
428.575651
425.965128
423.185329
420.221726
417.060203
413.687235
410.090432
406.25919
402.185314
397.86369
393.293012
388.476552
383.422985
378.147251
372.671446
367.025722
361.249031
355.389598
349.505115
343.662607
337.939979
332.418379
327.179471
322.303684
317.864893
313.924348
310.525547
307.687582
305.402688
303.638298
302.337185
301.42171
300.806111
300.406765
300.152437
299.98947
299.882953
299.833777
299.820235
299.816624
299.815184
299.813378
299.811546
299.809784
299.806766
299.805176
299.804935
299.806189
299.808016
299.810672
472.493779
471.470261
470.420224
469.343254
468.238892
467.106621
465.945843
464.755813
463.534978
462.282092
460.995668
459.67393
458.314766
456.916463
455.477168
453.994075
452.463696
450.882013
449.244415
447.545635
445.779722
443.939983
442.018931
440.008253
437.89882
435.680684
433.343127
430.874746
428.263582
425.497287
422.563343
419.449358
416.14328
412.633647
408.91016
404.964182
400.78931
396.382006
391.742313
386.874632
381.788565
376.499808
371.031048
365.412839
359.684381
353.894063
348.099488
342.366923
336.769963
331.388262
326.30414
321.59376
317.325074
313.551875
310.308035
307.603158
305.422003
303.724487
302.451049
301.530841
300.891797
300.463615
300.186325
300.011763
299.903266
299.849425
299.833267
299.826318
299.820147
299.815832
299.811837
299.809135
299.807949
299.808476
299.807873
299.807106
299.806715
299.808622
299.809806
299.812131
472.439948
471.307527
470.145568
468.953419
467.730323
466.475389
465.18715
463.864228
462.505657
461.1097
459.674328
458.197181
456.67553
455.106242
453.48573
451.809902
450.074104
448.273098
446.401013
444.451305
442.41675
440.289426
438.060727
435.721381
433.261504
430.670679
427.938063
425.052536
422.002903
418.77813
415.367402
411.76062
407.948802
403.924556
399.682636
395.220564
390.539354
385.644301
380.54584
375.260444
369.811518
364.230209
358.556057
352.837364
347.131148
341.502424
336.022649
330.76727
325.81209
321.229463
317.082442
313.418523
310.266032
307.630769
305.494927
303.818954
302.547552
301.616702
300.957782
300.507146
300.2118
300.028771
299.924452
299.870814
299.848453
299.838703
299.83034
299.821628
299.813941
299.808451
299.807146
299.806285
299.806632
299.808254
299.810974
299.813878
299.814909
299.816476
299.815789
299.813535
472.371937
471.101947
469.798667
468.461214
467.088537
465.679294
464.232205
462.745583
461.21746
459.645535
458.027141
456.359203
454.638201
452.860126
451.020451
449.114096
447.13539
445.078058
442.935204
440.699309
438.362243
435.91529
433.349197
430.654252
427.820378
424.837281
421.694628
418.382155
414.889944
411.208793
407.330606
403.248856
398.959141
394.459806
389.752669
384.843808
379.744423
374.471703
369.049682
363.50998
357.892335
352.2448
346.623446
341.091454
335.717406
330.572657
325.728
321.249569
317.19378
313.602433
310.499594
307.888983
305.754083
304.059908
302.75713
301.787535
301.090425
300.607627
300.286524
300.080959
299.956591
299.886782
299.851527
299.836777
299.82988
299.823731
299.819261
299.816304
299.81128
299.807929
299.807329
299.808148
299.809653
299.811713
299.815532
299.817198
299.81808
299.818626
299.824462
299.826875
472.293114
470.863694
469.396685
467.890968
466.345211
464.757862
463.127223
461.451187
459.727294
457.952692
456.1241
454.237768
452.289446
450.274346
448.187123
446.021852
443.772019
441.430522
438.989678
436.441257
433.776525
430.986318
428.061142
424.991301
421.767057
418.378741
414.817089
411.073562
407.140729
403.012736
398.685845
394.159064
389.434854
384.519908
379.425977
374.1707
368.778395
363.280717
357.717088
352.134769
346.588437
341.139121
335.85237
330.795642
326.034866
321.630367
317.633077
314.080936
310.995675
308.379635
306.218041
304.479453
303.120585
302.089688
301.332441
300.794678
300.42643
300.184226
300.032528
299.941286
299.886332
299.853354
299.832927
299.822198
299.819048
299.818345
299.818333
299.817107
299.81499
299.810648
299.8093
299.810686
299.814443
299.816684
299.816985
299.817428
299.817772
299.818412
299.820534
299.832691
472.20549
470.59885
468.949861
467.257187
465.51925
463.734253
461.900052
460.014118
458.073512
456.074845
454.014247
451.887329
449.68916
447.414243
445.056509
442.609311
440.065436
437.417137
434.656173
431.773886
428.76129
425.609209
422.308382
418.849675
415.224362
411.424437
407.443001
403.274716
398.916335
394.367319
389.630522
384.712932
379.626462
374.388724
369.023748
363.562561
358.043533
352.51236
347.021588
341.62952
336.398439
331.392095
326.672524
322.296396
318.311261
314.751847
311.637782
308.971927
306.742481
304.926255
303.485546
302.373837
301.541913
300.939484
300.518613
300.235873
300.05368
299.937979
299.873409
299.843265
299.829205
299.822945
299.820815
299.82062
299.820246
299.817514
299.817036
299.816287
299.816085
299.816248
299.814171
299.813677
299.815835
299.81962
299.821547
299.821376
299.820108
299.818605
299.818913
299.827652
472.110407
470.311467
468.465055
466.569634
464.62338
462.624134
460.56936
458.456101
456.280942
454.039967
451.728737
449.342259
446.874977
444.320762
441.672928
438.924252
436.067018
433.093086
429.993987
426.761044
423.385476
419.858639
416.172277
412.31883
408.291809
404.086236
399.699158
395.130237
390.382404
385.462567
380.382343
375.158785
369.815038
364.380849
358.892857
353.394533
347.935685
342.571425
337.360523
332.363145
327.638025
323.239252
319.212945
315.594197
312.404946
309.652245
307.328782
305.412654
303.872533
302.669983
301.759507
301.091044
300.617246
300.29413
300.082809
299.951213
299.874328
299.841654
299.829787
299.821913
299.819508
299.818187
299.818298
299.819258
299.821104
299.821498
299.818982
299.816371
299.816259
299.817422
299.819381
299.818541
299.819174
299.821492
299.82551
299.827714
299.827485
299.827661
299.82176
299.824896
472.008915
470.004718
467.947574
465.835716
463.667043
461.43907
459.148886
456.793111
454.367861
451.86872
449.290717
446.62832
443.875436
441.025436
438.071187
435.005122
431.819323
428.50563
425.055772
421.461578
417.715225
413.809528
409.738307
405.496799
401.082162
396.494023
391.735106
386.811897
381.735332
376.521478
371.19214
365.775338
360.305569
354.823756
349.376796
344.016618
338.798709
333.780109
329.016963
324.561736
320.460306
316.749213
313.453385
310.584602
308.141158
306.107754
304.457
303.151213
302.145656
301.393031
300.848604
300.468284
300.212589
300.047924
299.946579
299.886597
299.854825
299.837301
299.825808
299.819388
299.816256
299.815206
299.814883
299.81531
299.818233
299.82234
299.823495
299.822944
299.821042
299.822074
299.825431
299.827797
299.827718
299.828419
299.83093
299.834052
299.836072
299.838269
299.840607
299.832909
471.901915
469.681321
467.402014
465.061994
462.658882
460.18987
457.651682
455.040535
452.352115
449.581556
446.72344
443.771805
440.720181
437.561638
434.288868
430.894289
427.370168
423.70882
419.902839
415.945378
411.830488
407.553522
403.111595
398.504117
393.733377
388.805171
383.729452
378.520971
373.199855
367.79207
362.329684
356.850871
351.399536
346.024521
340.778313
335.715274
330.889438
326.352019
322.148856
318.317916
314.887019
311.871953
309.275703
307.088105
305.28726
303.840432
302.707046
301.842642
301.201348
300.738032
300.412898
300.192376
300.047609
299.955879
299.900054
299.867255
299.846805
299.834703
299.826762
299.819598
299.814313
299.813174
299.813303
299.813381
299.816442
299.823199
299.828275
299.8314
299.832527
299.830963
299.829522
299.830659
299.832366
299.832893
299.834742
299.836069
299.836685
299.83638
299.840722
299.846214
471.790495
469.34457
466.833937
464.256368
461.609213
458.889362
456.093204
453.2166
450.254874
447.20281
444.054672
440.804249
437.444917
433.969738
430.371569
426.643246
422.777797
418.768701
414.610207
410.297707
405.828176
401.20066
396.416833
391.481579
386.403614
381.196084
375.877135
370.470362
365.005112
359.51654
354.045363
348.637233
343.341675
338.210574
333.296212
328.648982
324.3149
320.333153
316.733979
313.537018
310.750178
308.36773
306.373153
304.739164
303.430643
302.407399
301.627341
301.048728
300.631893
300.34037
300.141933
300.011172
299.928076
299.877806
299.849608
299.835418
299.829857
299.827667
299.826624
299.825597
299.824141
299.822584
299.822685
299.823217
299.822754
299.824596
299.827653
299.831546
299.834538
299.83573
299.834552
299.833619
299.833159
299.833474
299.834871
299.835214
299.835325
299.835017
299.837131
299.843827
472.596498
471.780505
470.94299
470.083383
469.201108
468.295576
467.366187
466.412332
465.433385
464.428712
463.397663
462.339578
461.253786
460.139606
458.996349
457.823315
456.6198
455.38509
454.118467
452.819205
451.486571
450.119824
448.718211
447.280966
445.8073
444.296397
442.747398
441.159389
439.531377
437.862262
436.150803
434.395568
432.594877
430.746728
428.848704
426.897853
424.890556
422.822375
420.687871
418.48039
416.191814
413.812302
411.33001
408.730789
405.999019
403.118148
400.068511
396.829152
393.366503
389.647884
385.664364
381.398518
376.844245
372.011072
366.930433
361.662386
356.301053
350.976583
345.851162
341.106506
336.921998
333.444922
330.759588
328.865659
327.675786
327.040127
326.86274
326.869442
326.988973
327.09821
327.178733
327.225843
327.245507
327.245798
327.234807
327.228465
327.202999
327.176175
327.143232
327.119793
472.60222
471.797828
470.972276
470.125041
469.255596
468.3634
467.447907
466.508557
465.544779
464.555987
463.541584
462.500955
461.433472
460.338488
459.215341
458.063345
456.881796
455.669964
454.427093
453.152394
451.845039
450.504161
449.128836
447.71808
446.270833
444.785942
443.262143
441.69803
440.09203
438.44236
436.746978
435.003525
433.209253
431.360933
429.45475
427.486177
425.449842
423.33936
421.147134
418.86413
416.479631
413.981515
411.356385
408.589404
405.66231
402.555335
399.247912
395.700287
391.898482
387.826683
383.471716
378.829747
373.911682
368.749049
363.399924
357.953824
352.533775
347.29317
342.405099
338.043038
334.354708
331.433847
329.297169
327.883277
327.066997
326.689222
326.636817
326.706399
326.81754
326.921492
327.003456
327.061576
327.101084
327.118945
327.134551
327.14937
327.157524
327.165008
327.163904
327.207164
472.604991
471.806228
470.986511
470.145361
469.282292
468.39681
467.488416
466.556596
465.600826
464.620569
463.61527
462.584357
461.527236
460.443291
459.331877
458.19232
457.02391
455.825894
454.597473
453.337789
452.045921
450.720868
449.361539
447.966733
446.535122
445.065223
443.555373
442.003691
440.408036
438.765957
437.074634
435.330799
433.530652
431.669754
429.742908
427.74415
425.666569
423.502183
421.241821
418.875057
416.390204
413.773115
411.008194
408.078251
404.965183
401.635472
398.063151
394.241556
390.151686
385.780547
381.124284
376.192544
371.013625
365.639903
360.15251
354.663706
349.315086
344.269475
339.695185
335.740634
332.510699
330.04847
328.325421
327.247518
326.676449
326.52498
326.530164
326.637457
326.76779
326.894718
326.982418
327.046476
327.090487
327.12346
327.204915
327.304933
327.415981
327.568532
327.878243
328.531917
472.604476
471.8047
470.984
470.141937
469.278065
468.391932
467.483077
466.551031
465.595312
464.615424
463.61085
462.581054
461.525473
460.443515
459.334553
458.197915
457.032882
455.838678
454.614458
453.359298
452.072183
450.751988
449.39746
448.007197
446.57962
445.112944
443.605144
442.053908
440.456596
438.810185
437.111202
435.355664
433.539001
431.65598
429.700495
427.665531
425.543031
423.323756
420.997129
418.55117
415.972519
413.246482
410.35581
407.272372
403.972894
400.448259
396.677778
392.643935
388.333712
383.741708
378.874052
373.753041
368.42214
362.950585
357.43647
352.006528
346.810825
342.007259
337.746008
334.148816
331.287862
329.171678
327.743559
326.89453
326.487016
326.417873
326.491401
326.635349
326.774949
326.901398
327.010768
327.1115
327.287999
327.531675
327.85405
328.311705
328.934343
329.757875
330.90009
332.518298
472.600204
471.791819
470.962345
470.111376
469.238503
468.34331
467.425376
466.48427
465.51955
464.530759
463.517419
462.47903
461.415061
460.324946
459.208075
458.06379
456.891369
455.690023
454.458879
453.196967
451.903204
450.576374
449.215106
447.817845
446.382829
444.90805
443.391218
441.829721
440.220567
438.560337
436.845114
435.070419
433.231141
431.321453
429.334742
427.263524
425.09938
422.832917
420.451288
417.938786
415.279043
412.454484
409.446208
406.243409
402.826004
399.17485
395.272336
391.104274
386.662401
381.947639
376.974088
371.773523
366.399875
360.932837
355.479355
350.169552
345.148266
340.564739
336.554914
333.220762
330.612494
328.719146
327.470619
326.752227
326.427921
326.387827
326.492709
326.637353
326.790881
327.013046
327.297241
327.664585
328.105642
328.665575
329.387469
330.368254
331.734889
333.550379
335.83981
338.529209
472.591663
471.766036
470.918927
470.04996
469.158754
468.244925
467.308085
466.347837
465.363774
464.355476
463.322503
462.264392
461.180648
460.070738
458.934087
457.770061
456.577967
455.357037
454.106419
452.825169
451.512232
450.166433
448.78634
447.370314
445.916473
444.422636
442.886391
441.305009
439.675345
437.993771
436.256111
434.457552
432.592552
430.654719
428.636678
426.529895
424.324477
422.008918
419.572408
417.003931
414.289642
411.413181
408.357356
405.104565
401.63693
397.937251
393.990364
389.785043
385.316554
380.589895
375.623642
370.454116
365.139357
359.762057
354.42819
349.264031
344.410339
339.996224
336.130034
332.919643
330.413755
328.597414
327.402083
326.724078
326.445514
326.410373
326.512316
326.746909
327.085126
327.503151
328.026544
328.685564
329.521051
330.576217
331.877344
333.475158
335.488298
337.956267
340.747558
343.675992
472.578352
471.725837
470.851193
469.954066
469.034099
468.090933
467.124204
466.133545
465.118582
464.078927
463.01418
461.923918
460.807692
459.66502
458.495382
457.298158
456.072661
454.818156
453.533808
452.218655
450.871595
449.491353
448.076573
446.625709
445.137007
443.608485
442.037783
440.422157
438.758477
437.043164
435.272128
433.440694
431.543521
429.574521
427.526768
425.392408
423.162577
420.827339
418.375675
415.795406
413.073116
410.194197
407.143063
403.903517
400.459333
396.79513
392.897673
388.757678
384.372214
379.74771
374.903264
369.874491
364.712189
359.495855
354.320697
349.29984
344.556896
340.229909
336.448596
333.283503
330.77445
328.916307
327.655413
326.89966
326.540381
326.483642
326.624348
326.898568
327.282365
327.774964
328.412245
329.256579
330.399584
331.942732
333.931571
336.29663
338.937764
341.782456
344.671891
347.254643
472.559845
471.669935
470.756972
469.820618
468.860532
467.876369
466.867789
465.834445
464.775989
463.692066
462.582309
461.446328
460.283686
459.093934
457.876581
456.631124
455.357
454.053539
452.71999
451.355505
449.959125
448.529761
447.066172
445.566941
444.03045
442.454846
440.838006
439.177497
437.470533
435.713927
433.904032
432.036689
430.107153
428.110026
426.039181
423.887681
421.647704
419.310464
416.866153
414.303893
411.611727
408.776661
405.784813
402.621675
399.272607
395.723534
391.961955
387.978291
383.767404
379.344582
374.716984
369.911832
364.975735
359.973463
354.989376
350.125584
345.497706
341.227445
337.429587
334.194943
331.577749
329.588701
328.193115
327.317936
326.868381
326.751539
326.86958
327.166109
327.609534
328.19366
328.942143
329.915716
331.192772
332.861782
334.95981
337.443105
340.100041
342.831553
345.227122
347.473552
472.535859
471.597477
470.634825
469.647572
468.635386
467.597933
466.534883
465.445908
464.330681
463.188873
462.02013
460.824118
459.600506
458.348916
457.068937
455.760125
454.421992
453.053999
451.65554
450.225937
448.764425
447.270135
445.742078
444.179129
442.58
440.943218
439.267093
437.549691
435.788792
433.981851
432.125957
430.217775
428.253495
426.22877
424.138652
421.977518
419.738998
417.415904
415.000167
412.482778
409.853772
407.102235
404.216409
401.183856
397.991843
394.627908
391.080769
387.341738
383.407019
379.28408
374.977094
370.505943
365.904792
361.22373
356.529684
351.905436
347.446936
343.257929
339.441617
336.089855
333.271296
331.022465
329.342654
328.195387
327.51597
327.223968
327.233557
327.481157
327.919276
328.527227
329.30568
330.225457
331.41387
332.933709
335.00699
337.41933
340.053997
342.749674
345.312732
347.538658
472.50635
471.508322
470.484513
469.43459
468.358222
467.255078
466.124835
464.967178
463.781797
462.568388
461.326683
460.056393
458.757224
457.428877
456.071044
454.683399
453.265597
451.817262
450.337986
448.827317
447.284753
445.70973
444.101608
442.459664
440.783068
439.070869
437.321969
435.535106
433.708816
431.841409
429.930929
427.975112
425.971343
423.916599
421.807396
419.639721
417.40896
415.109831
412.736305
410.281539
407.737828
405.096571
402.348292
399.482726
396.489016
393.356062
390.073059
386.630289
383.020266
379.2501
375.324643
371.245264
367.034303
362.726351
358.371268
354.033174
349.789441
345.727551
341.939457
338.513223
335.523916
333.024859
331.0412
329.567849
328.571895
328.000532
327.792418
327.857331
328.174074
328.698379
329.389729
330.2846
331.465514
332.894334
334.591815
336.61928
338.900623
341.299234
343.658874
345.847741
472.471619
471.403388
470.307584
469.183865
468.031894
466.85134
465.641882
464.403213
463.135053
461.837147
460.509247
459.151121
457.762553
456.343341
454.893295
453.412234
451.899984
450.356375
448.78124
447.174406
445.535697
443.864921
442.161868
440.426302
438.657948
436.85648
435.021508
433.152562
431.249064
429.310314
427.335453
425.323435
423.272988
421.182564
419.050293
416.873917
414.650727
412.37748
410.050328
407.664728
405.21537
402.696116
400.099969
397.419106
394.644987
391.768592
388.780836
385.673161
382.438333
379.049651
375.545053
371.919095
368.172065
364.323269
360.403477
356.456858
352.539173
348.716531
345.062466
341.653148
338.561376
335.849145
333.561315
331.720862
330.32747
329.360185
328.783598
328.555374
328.586502
328.847774
329.306919
329.938485
330.930134
332.133442
333.522434
335.13122
336.964244
338.953122
340.996598
342.740013
472.432413
471.284931
470.107839
468.900783
467.663414
466.395393
465.096399
463.766145
462.404369
461.010836
459.585344
458.127729
456.637859
455.115643
453.561026
451.973993
450.35457
448.702823
447.018863
445.302841
443.554953
441.775435
439.964564
438.122653
436.250048
434.347119
432.414251
430.451834
428.460247
426.439841
424.390915
422.313692
420.208284
418.074654
415.912569
413.721538
411.50075
409.248994
406.964567
404.645185
402.287881
399.888911
397.443682
394.946712
392.391636
389.771285
387.077861
384.303212
381.439209
378.478204
375.393828
372.232417
368.984571
365.644166
362.227119
358.758146
355.273591
351.818555
348.445738
345.213103
342.180347
339.404387
336.934554
334.808104
333.047249
331.658424
330.633819
329.954948
329.594438
329.536589
329.611152
329.968922
330.432764
331.0518
332.017736
333.199534
334.566996
336.045749
337.700278
338.763324
472.390012
471.156813
469.891793
468.594575
467.264794
465.902098
464.506171
463.076725
461.61351
460.116326
458.585019
457.019493
455.419713
453.785704
452.117561
450.415454
448.679628
446.910412
445.10822
443.273559
441.407032
439.509338
437.581277
435.623749
433.637752
431.624381
429.58482
427.520336
425.432267
423.322004
421.190979
419.040636
416.872404
414.687661
412.487687
410.273617
408.046368
405.806565
403.554455
401.289806
399.011796
396.718897
394.408764
392.078143
389.722829
387.337647
384.916519
382.452611
379.938592
377.367032
374.73097
371.99996
369.226209
366.403012
363.514595
360.573047
357.596928
354.612352
351.653335
348.759063
345.972206
343.336469
340.893641
338.680487
336.726045
335.049867
333.661411
332.560572
331.739128
331.181254
330.846201
330.718265
330.77447
331.123248
331.610786
332.234202
333.004616
333.856485
334.976783
335.553462
472.346262
471.024615
469.668852
468.278568
466.853374
465.392904
463.896828
462.364859
460.796762
459.192366
457.551568
455.874344
454.160754
452.410949
450.625185
448.803824
446.947344
445.05635
443.131582
441.173916
439.184379
437.16415
435.114567
433.037127
430.933486
428.805463
426.655028
424.484298
422.295529
420.091094
417.873471
415.645215
413.40893
411.167233
408.922711
406.677869
404.435073
402.196471
399.963915
397.738862
395.522275
393.314509
391.115184
388.923054
386.735928
384.550613
382.362909
380.167704
377.959182
375.731125
373.477411