/*--------------------------------*- C++ -*----------------------------------*\
  =========                 |
  \\      /  F ield         | OpenFOAM: The Open Source CFD Toolbox
   \\    /   O peration     | Website:  https://openfoam.org
    \\  /    A nd           | Version:  8
     \\/     M anipulation  |
\*---------------------------------------------------------------------------*/
FoamFile
{
    version     2.0;
    format      ascii;
    class       volVectorField;
    location    "0.082";
    object      U;
}
// * * * * * * * * * * * * * * * * * * * * * * * * * * * * * * * * * * * * * //

dimensions      [0 1 -1 0 0 0 0];

internalField   nonuniform List<vector> 
42400
(
(-0.0167057162 0.015996122 -7.00560671e-27)
(-0.0500893558 0.0472115072 2.28201788e-26)
(-0.0839282292 0.0779399943 2.33252007e-26)
(-0.118099469 0.107996629 0)
(-0.152531449 0.137284663 0)
(-0.187202952 0.165737344 -2.65916745e-28)
(-0.222112709 0.193302664 0)
(-0.257257594 0.219933126 2.88838056e-28)
(-0.292622733 0.245578819 0)
(-0.328177853 0.270184712 3.13107691e-28)
(-0.363877175 0.29369109 3.25720534e-28)
(-0.399661444 0.316035728 -3.38634575e-28)
(-0.43546107 0.337156863 -1.05429381e-26)
(-0.471199523 0.356996295 -8.36450153e-27)
(-0.506796418 0.375502208 -3.79014811e-28)
(-0.542169919 0.392631421 0)
(-0.577238334 0.408350997 0)
(-0.611920903 0.422639209 0)
(-0.646137914 0.435486006 0)
(-0.679810296 0.446893107 0)
(-0.712858842 0.456873857 0)
(-0.745203172 0.465452951 -9.61142084e-28)
(-0.776760503 0.472666087 2.15817889e-26)
(-0.807444245 0.478559571 5.42036382e-26)
(-0.837162407 0.483189873 3.31118095e-26)
(-0.865815755 0.48662311 -1.08733708e-27)
(-0.89329563 0.488934449 -1.1213621e-27)
(-0.919481334 0.490207396 2.31410162e-27)
(-0.944237151 0.490532915 0)
(-0.967409361 0.49000775 0)
(-0.988822844 0.488730957 -8.06114804e-26)
(-1.00827306 0.48679652 -9.23099677e-26)
(-1.02551021 0.484291209 2.73689778e-27)
(-1.04027512 0.481329515 1.19853847e-25)
(-1.05232397 0.4780445 1.32698851e-25)
(-1.0614211 0.47455178 0)
(-1.06698225 0.471333371 0)
(-1.06875141 0.467778672 0)
(-1.06590761 0.464272636 0)
(-1.05860572 0.460345618 2.48378381e-25)
(-1.0446592 0.457421396 2.36997312e-25)
(-1.02359426 0.454414013 2.74374531e-25)
(-0.993962859 0.451074231 7.12815012e-25)
(-0.953456379 0.4477122 -1.41428114e-26)
(-0.902196998 0.443868955 -5.31703044e-25)
(-0.838050899 0.440020061 -6.29483428e-25)
(-0.759258793 0.435969932 1.87888862e-26)
(-0.663979658 0.431500556 7.25138847e-25)
(-0.550252162 0.426497918 2.20662634e-26)
(-0.416242298 0.420560746 9.40328508e-25)
(-0.257921623 0.413812735 1.53875161e-33)
(-0.0736205041 0.407799011 -2.58337882e-24)
(0.137221528 0.403921519 -1.33703186e-24)
(0.381219517 0.399121743 8.45252733e-26)
(0.676141054 0.390532488 0)
(1.01616804 0.380311693 0)
(1.40778219 0.370814341 0)
(1.85856185 0.361940583 -1.42668353e-25)
(2.37354819 0.353428476 -1.55099738e-25)
(2.95815149 0.345345041 0)
(3.61779258 0.337795774 4.88315958e-24)
(4.35692068 0.331020697 5.22333653e-24)
(5.1789945 0.325265873 -5.1471681e-24)
(6.08683833 0.321591757 -5.03173273e-24)
(7.08007972 0.321559186 0)
(8.15671037 0.32393371 0)
(9.31349491 0.330254695 -2.61204185e-24)
(10.5131498 0.360432369 -1.78566915e-24)
(11.813531 0.334648018 1.13821392e-25)
(13.2306565 0.247721683 0)
(14.325221 0.581220442 0)
(15.5562787 0.759695219 5.14324391e-25)
(17.5676767 -0.193446745 4.85362557e-25)
(18.6262037 -0.0428823823 0)
(18.890428 1.7672637 1.18978414e-24)
(20.6574035 0.990235573 -2.90053448e-24)
(22.747843 -1.12005633 -1.04481943e-23)
(23.2929102 -0.703847031 -2.41015003e-24)
(23.4034329 0.860723215 -1.90293054e-23)
(23.6307609 1.37975037 -3.70662362e-23)
(-0.0200419378 0.0177580611 0)
(-0.0598021982 0.0524202251 1.77887134e-26)
(-0.0998697242 0.0866595624 1.77496358e-26)
(-0.140180268 0.12036704 0)
(-0.18067243 0.15346898 0)
(-0.22132093 0.185902635 1.44161767e-26)
(-0.262090107 0.217597171 1.38433212e-26)
(-0.302930744 0.24847312 4.85466676e-28)
(-0.343775711 0.278442657 0)
(-0.384540945 0.307411656 5.30864891e-28)
(-0.425128573 0.33528317 5.54991593e-28)
(-0.465430718 0.361961233 -6.14329022e-27)
(-0.50533326 0.387354396 -7.39255824e-27)
(-0.544719092 0.41137871 -1.63325974e-27)
(-0.5834706 0.43396002 -1.62247752e-27)
(-0.621471241 0.455035536 -2.40465553e-27)
(-0.658606224 0.474554729 0)
(-0.694762416 0.492479685 1.51133217e-27)
(-0.729827643 0.508785066 0)
(-0.76368955 0.523457826 0)
(-0.796234171 0.53649681 0)
(-0.827344283 0.547912317 2.41498046e-26)
(-0.856897611 0.557725677 5.92887594e-26)
(-0.884764851 0.56596887 3.5563162e-26)
(-0.910807458 0.572684162 0)
(-0.934875198 0.577923657 -4.2257947e-27)
(-0.956803151 0.581748294 -2.18745818e-27)
(-0.976407508 0.58422631 4.56243978e-27)
(-0.993479875 0.585432991 6.70757153e-26)
(-1.00779449 0.585459493 7.43297875e-26)
(-1.01912382 0.584403031 -5.18013543e-27)
(-1.02724826 0.582345032 -5.30153412e-27)
(-1.03165787 0.579639889 1.42408063e-25)
(-1.0323139 0.575874362 1.63480396e-25)
(-1.02862345 0.571509292 -1.95376318e-25)
(-1.02010091 0.566790127 -1.9004006e-25)
(-1.00685707 0.56125518 0)
(-0.986739993 0.555966744 7.8161176e-27)
(-0.959221011 0.550004636 0)
(-0.922359103 0.543682787 1.8526285e-26)
(-0.876034817 0.536507885 3.07325159e-25)
(-0.818606979 0.529099815 3.20611287e-25)
(-0.748715436 0.521452666 2.05832656e-26)
(-0.664719122 0.513499514 -2.20545972e-26)
(-0.564779639 0.505066263 4.80822645e-26)
(-0.44680732 0.495897109 -2.45222158e-26)
(-0.308325526 0.486103667 2.69980169e-26)
(-0.149708731 0.476108216 7.46124998e-25)
(0.0365296824 0.467479796 8.38084801e-25)
(0.244978732 0.460276689 0)
(0.496089633 0.450705119 -4.09002969e-26)
(0.788324441 0.438842403 8.75788658e-26)
(1.1254515 0.426633583 1.13665668e-24)
(1.514098 0.414725527 1.4413417e-24)
(1.95976112 0.402950163 1.13374693e-25)
(2.46718561 0.391390703 3.31334457e-24)
(3.04208427 0.380437425 3.65565264e-24)
(3.68983217 0.370204498 -1.2225287e-25)
(4.41495705 0.361117445 -1.20476016e-25)
(5.22124375 0.354360517 4.79795818e-24)
(6.11081722 0.351206212 5.07073217e-24)
(7.08347888 0.352535333 7.90096305e-26)
(8.13559104 0.358591598 -6.18627472e-26)
(9.26295172 0.369354648 0)
(10.4536181 0.386686499 -4.48126865e-24)
(11.6976047 0.41162389 -8.44576228e-24)
(12.9917246 0.429857955 -3.75374866e-24)
(14.2775211 0.487893013 0)
(15.5469886 0.573393659 1.80506483e-26)
(17.000478 0.424533309 3.76284695e-25)
(18.2532389 0.436530452 1.66874174e-24)
(19.030306 1.09328615 1.50794057e-24)
(20.3826479 0.964461332 -1.79246855e-24)
(22.0020129 -0.0718080693 1.205811e-24)
(22.6875494 0.431057314 1.67231149e-26)
(23.0083143 1.45994533 1.1658779e-23)
(23.5885649 1.01403594 1.35197297e-23)
(23.8984066 0.184614466 -5.12653127e-24)
(23.9951689 0.310048258 -1.95444453e-23)
(24.0050817 0.45990034 -1.05509372e-23)
(-0.0228159188 0.0186866603 1.98457568e-27)
(-0.0678676869 0.0551826708 2.39713765e-28)
(-0.113099042 0.0913348721 -2.53700598e-28)
(-0.158497923 0.127098109 2.64473566e-28)
(-0.204035723 0.162431427 0)
(-0.249658653 0.19726813 -9.8933042e-27)
(-0.295310933 0.231527948 5.7326721e-34)
(-0.340895024 0.265109974 7.41680523e-27)
(-0.386289344 0.297897516 5.96970696e-27)
(-0.43135313 0.329765679 8.63925426e-27)
(-0.47593212 0.360587758 3.19812905e-27)
(-0.519864244 0.390240407 7.8450957e-28)
(-0.56298424 0.418607696 8.22537258e-28)
(-0.605126957 0.44558406 -4.56891197e-27)
(-0.646129355 0.471076217 -7.40746809e-27)
(-0.685831327 0.495004196 2.84172675e-27)
(-0.724075511 0.517301672 1.18722629e-26)
(-0.760706312 0.537915806 3.49548028e-26)
(-0.795568366 0.556806796 2.13682943e-26)
(-0.828504645 0.573947321 2.28333624e-27)
(-0.85935431 0.58932199 -2.38810188e-27)
(-0.88795028 0.602926932 -2.4964738e-27)
(-0.914116391 0.614769508 0)
(-0.937664379 0.624868199 5.42285373e-27)
(-0.95839038 0.633252223 -5.07650283e-26)
(-0.976071603 0.639958109 3.45738766e-29)
(-0.990470953 0.645025325 6.20842525e-26)
(-1.00134011 0.648497267 7.13042957e-26)
(-1.00835344 0.650498052 8.46387412e-26)
(-1.01125317 0.650932689 -9.32521973e-26)
(-1.00974256 0.650009202 -7.16747296e-27)
(-1.00342169 0.647930745 2.36902895e-25)
(-0.992042099 0.644747922 1.29107712e-25)
(-0.975183492 0.640887365 0)
(-0.951233157 0.636079797 0)
(-0.919389858 0.630019907 -9.51585958e-27)
(-0.878045045 0.622987888 0)
(-0.827107988 0.614795013 2.07557884e-26)
(-0.765178563 0.605942071 2.16735389e-25)
(-0.691007669 0.59649352 4.49332882e-26)
(-0.602938945 0.586416619 -2.36547796e-25)
(-0.499032879 0.57564287 0)
(-0.377906844 0.563973421 0)
(-0.237086462 0.551605117 3.95043916e-25)
(-0.0763584088 0.539381786 5.50587821e-25)
(0.111153521 0.529019034 3.14164581e-26)
(0.317298694 0.520112215 0)
(0.569932443 0.508078311 0)
(0.861048813 0.493605458 7.03879195e-25)
(1.19569963 0.479508221 8.15836902e-25)
(1.58003779 0.466187759 -4.2232287e-26)
(2.01880765 0.453412003 0)
(2.51740469 0.441314079 -1.00749187e-24)
(3.08147373 0.430044318 -1.26844014e-24)
(3.71636862 0.419862096 -2.87580689e-24)
(4.42689859 0.411575483 -3.2466624e-24)
(5.21696954 0.406347211 -3.793595e-24)
(6.088836 0.405304751 -8.35881564e-33)
(7.04226557 0.409363628 7.40919556e-33)
(8.0742979 0.419443306 -1.05249444e-23)
(9.17875274 0.436356758 -5.44915509e-24)
(10.3477248 0.460983841 5.33804821e-24)
(11.5685211 0.492886837 5.36713299e-24)
(12.8336593 0.532130565 0)
(14.120073 0.576032876 5.42152319e-24)
(15.4102484 0.639257125 9.93505251e-24)
(16.688826 0.694051647 5.01386791e-24)
(17.9570117 0.734697053 0)
(19.0583516 0.884581433 -2.23255637e-26)
(20.1998059 0.959691248 5.31855278e-24)
(21.4123892 0.733416942 4.65068502e-24)
(22.2952467 0.872822766 0)
(22.8562227 1.29100569 0)
(23.5575857 1.14595582 1.01394242e-24)
(23.8655093 0.710773917 -1.58816201e-24)
(23.9719059 0.889901049 -3.10754265e-24)
(23.9673131 1.14046948 9.35982438e-24)
(23.9257345 1.098011 0)
(23.9593911 0.874822286 -2.33753261e-24)
(23.9947114 0.73710037 8.40404365e-24)
(-0.0250957309 0.0189675693 1.83538852e-28)
(-0.0744979573 0.0560098593 2.88914169e-28)
(-0.123983564 0.0927572247 4.70683955e-27)
(-0.173588541 0.129215524 -3.5423247e-27)
(-0.22330194 0.165370347 -3.75541631e-27)
(-0.273074154 0.20116569 0)
(-0.322791621 0.236503148 -5.60304718e-27)
(-0.372303549 0.271263226 -4.6770106e-27)
(-0.421452874 0.305313518 -2.01752951e-27)
(-0.470032592 0.338511032 -1.17756969e-28)
(-0.517826087 0.370707192 3.82588777e-27)
(-0.564611823 0.401758731 2.3355329e-34)
(-0.610167198 0.431532461 1.01443084e-27)
(-0.654271895 0.459907979 1.36519067e-33)
(-0.696709525 0.486779187 -1.1197695e-27)
(-0.73726768 0.512054845 1.93040305e-26)
(-0.775736744 0.53565843 -2.33417567e-26)
(-0.811907717 0.557527603 -2.57170007e-27)
(-0.845569407 0.577613601 2.97589375e-26)
(-0.876505497 0.595880642 2.81848286e-27)
(-0.90449183 0.612304992 -5.92692201e-27)
(-0.929288865 0.626869465 -4.52323456e-26)
(-0.950639131 0.639560346 -5.06662495e-26)
(-0.96827048 0.650368645 3.38173349e-27)
(-0.981900494 0.659278897 0)
(-0.991234666 0.666350328 3.65779781e-27)
(-0.995994161 0.671661072 0)
(-0.995862392 0.675329809 9.39241295e-26)
(-0.990555452 0.677479021 1.82913826e-25)
(-0.979717754 0.678337012 9.82968171e-26)
(-0.962161049 0.677661545 -8.99876322e-26)
(-0.937178839 0.675375614 -1.03498519e-25)
(-0.903839561 0.67142209 1.99574409e-26)
(-0.860803157 0.665986448 1.04985746e-26)
(-0.807926855 0.659199726 -1.5977808e-25)
(-0.743942132 0.651362608 -1.81053831e-25)
(-0.667624024 0.642542161 0)
(-0.577421469 0.632766406 2.0490018e-25)
(-0.471520761 0.622016758 1.90075658e-25)
(-0.348402215 0.610031388 2.50379324e-26)
(-0.205553778 0.596831447 2.75117333e-26)
(-0.0411833139 0.584139015 0)
(0.141967807 0.573724398 0)
(0.353804007 0.562889756 0)
(0.606008837 0.549252405 3.34066396e-26)
(0.895262347 0.534692131 5.2090656e-25)
(1.22684583 0.521114315 5.42059729e-25)
(1.60653386 0.508499258 0)
(2.03850924 0.496570049 0)
(2.52805604 0.485653393 7.50093309e-25)
(3.08080915 0.476064448 8.48074111e-25)
(3.70208972 0.468366979 1.06769062e-24)
(4.39677167 0.463431963 1.24781406e-24)
(5.16874463 0.462162218 -7.25529864e-26)
(6.02035166 0.465331785 -1.73366934e-24)
(6.95201634 0.473679685 -1.91349567e-24)
(7.96186951 0.488070482 -4.55172747e-24)
(9.04544426 0.509602116 -5.27137773e-24)
(10.1947446 0.539285573 0)
(11.3986656 0.578450546 -7.12882803e-26)
(12.6421905 0.62755787 -5.76358192e-24)
(13.9113081 0.686761824 -1.15264705e-23)
(15.1849675 0.752157993 1.65705591e-25)
(16.452948 0.826706699 1.98861829e-25)
(17.6868965 0.894635669 -6.78739359e-24)
(18.8775337 0.974286812 6.37633549e-24)
(19.9579805 1.06910077 6.54554715e-24)
(21.0167405 1.11979929 -6.98704295e-25)
(21.9080501 1.16727445 -4.43129144e-24)
(22.7045341 1.28178658 -1.07412953e-23)
(23.3613099 1.28780085 6.80589412e-26)
(23.7464667 1.16185598 -1.11928361e-23)
(23.8480827 1.24151309 -1.17035906e-24)
(23.8740017 1.32776416 0)
(23.8820631 1.36946319 -1.19373725e-23)
(23.91047 1.17564116 -2.68382585e-23)
(23.9640187 1.07157868 2.50764233e-24)
(23.984367 1.11040871 8.59333647e-24)
(24.0297765 1.11115674 1.31032271e-23)
(24.0293716 1.08317132 1.17834296e-23)
(-0.0271437033 0.0188914455 1.54924005e-27)
(-0.080448232 0.055732195 0)
(-0.133742871 0.0922603379 0)
(-0.187100824 0.128516312 1.08444543e-30)
(-0.240520343 0.16450415 0)
(-0.29393157 0.200175698 0)
(-0.347197658 0.235437629 0)
(-0.400129309 0.270156973 -1.8383692e-27)
(-0.452461122 0.304172713 0)
(-0.503915483 0.337325278 1.02215922e-27)
(-0.554246657 0.369457903 7.31296566e-27)
(-0.603157326 0.400425701 1.41842805e-33)
(-0.650359221 0.430086162 -1.00533079e-26)
(-0.695568974 0.458311894 0)
(-0.738507145 0.484992258 -1.31447601e-27)
(-0.77889762 0.510033204 2.76666074e-27)
(-0.816465686 0.533356113 0)
(-0.850930195 0.554893847 3.30718732e-26)
(-0.88199821 0.57458936 3.21548984e-27)
(-0.909367968 0.592400976 -8.23554836e-26)
(-0.932751729 0.608262863 -4.93600418e-26)
(-0.951818522 0.622247269 3.63383153e-27)
(-0.966297381 0.634349202 0)
(-0.975872212 0.64463139 -7.36708958e-26)
(-0.980205107 0.653215065 -8.40169437e-26)
(-0.97861272 0.659898217 -8.72593551e-26)
(-0.970511281 0.6647321 -9.73231115e-26)
(-0.95524822 0.667698123 1.03160831e-25)
(-0.932038202 0.668770775 1.08320882e-25)
(-0.89986834 0.668003265 0)
(-0.858399652 0.665661698 -1.34469032e-25)
(-0.806592806 0.661863795 -1.42334406e-25)
(-0.743341124 0.656661788 1.11529734e-26)
(-0.667417244 0.650122653 -1.47356e-25)
(-0.57733621 0.6423082 -1.68878494e-25)
(-0.471291193 0.633288507 -2.51277631e-26)
(-0.347694748 0.622937365 1.29443004e-26)
(-0.20439554 0.611246201 -2.59437299e-25)
(-0.039528967 0.599858772 -3.06919225e-25)
(0.143916778 0.590266144 2.37749888e-25)
(0.357422289 0.580027514 3.80184462e-25)
(0.608549469 0.567535417 3.02569068e-25)
(0.896130753 0.554693368 0)
(1.22502672 0.542952041 -3.53414992e-26)
(1.59987268 0.532310278 -4.01322959e-25)
(2.02505304 0.52281052 -3.66505718e-26)
(2.50580074 0.514906957 7.23442246e-33)
(3.04759197 0.509089541 -5.95695897e-25)
(3.65549639 0.506042814 0)
(4.33405655 0.506516073 -3.65423691e-26)
(5.08697069 0.511245455 -1.10774833e-24)
(5.91670159 0.520928679 -1.24263944e-24)
(6.82415265 0.536270341 -8.35776888e-26)
(7.80833839 0.558047865 -1.84752789e-24)
(8.86583932 0.58703776 -2.14573076e-24)
(9.9904866 0.624037191 -2.5523181e-24)
(11.1725435 0.669582314 -8.39308302e-24)
(12.3991244 0.724334894 -5.88779566e-24)
(13.6544806 0.788216149 -6.04173045e-24)
(14.9213913 0.861687897 -6.41428747e-24)
(16.1765406 0.944238836 0)
(17.4018931 1.03574931 2.14099753e-25)
(18.574798 1.12490956 -6.52441906e-24)
(19.6822689 1.21844801 -7.30790982e-24)
(20.6945208 1.30101176 -3.76445099e-26)
(21.6266877 1.36669501 0)
(22.399866 1.43721843 9.91151696e-24)
(23.0699489 1.49321281 1.05114459e-23)
(23.5955881 1.50343013 7.87749865e-25)
(23.8128852 1.50663918 -8.63851446e-25)
(23.8490468 1.55554271 -2.36827052e-26)
(23.8387854 1.59154251 -1.00921879e-24)
(23.8232391 1.54820785 -8.03945368e-24)
(23.8519223 1.46050153 -1.12856669e-23)
(23.9127202 1.40478718 -9.31855613e-25)
(23.9405566 1.40251223 0)
(23.9410013 1.37276949 -8.73444688e-24)
(24.0397799 1.2442585 -1.08968722e-23)
(24.1218651 1.13682816 0)
(24.10398 1.1509935 -9.11251646e-24)
(-0.0292314362 0.0186838761 -2.86130489e-27)
(-0.0864867571 0.0550100452 -4.13138263e-27)
(-0.143597281 0.0909314993 -4.72030993e-27)
(-0.200655804 0.126507245 -4.28555788e-28)
(-0.257654395 0.161751957 2.94505394e-27)
(-0.314493932 0.196618965 -9.53340326e-28)
(-0.370989206 0.231010743 -2.84847168e-28)
(-0.426883716 0.264793727 -1.33185674e-27)
(-0.481870689 0.297811991 1.11821402e-27)
(-0.535621262 0.329888916 2.35727139e-27)
(-0.587731851 0.36085623 -2.00134768e-27)
(-0.637854673 0.390558312 -1.65220835e-26)
(-0.685655058 0.418858467 -1.55178406e-26)
(-0.730764545 0.445642392 -1.860748e-26)
(-0.7728224 0.470803906 1.53003219e-27)
(-0.81146949 0.494256659 3.19841963e-26)
(-0.84636863 0.515896262 0)
(-0.877134805 0.535726676 0)
(-0.903430405 0.553735154 4.71770087e-26)
(-0.924857638 0.569812162 1.18927406e-25)
(-0.940947447 0.584014811 6.79049219e-26)
(-0.951259583 0.596253897 7.71727264e-26)
(-0.955231214 0.606550783 1.33558407e-33)
(-0.952252212 0.61489283 -9.69929655e-26)
(-0.941625329 0.621246595 9.52809701e-26)
(-0.922857264 0.625840924 2.16753763e-25)
(-0.895175198 0.62868237 1.12547321e-25)
(-0.857698208 0.629817948 -5.44834924e-27)
(-0.809447816 0.629298945 5.66325049e-27)
(-0.749333055 0.627182215 -1.17790751e-26)
(-0.676093446 0.623555507 0)
(-0.588246463 0.618544365 1.79228179e-25)
(-0.48404049 0.612287672 -1.31372493e-26)
(-0.361882062 0.604780965 -1.65049262e-25)
(-0.219985161 0.59587269 0)
(-0.0549508699 0.586642662 -2.93961796e-25)
(0.129257321 0.579031816 -2.01512715e-25)
(0.340536202 0.571448784 0)
(0.590693089 0.561707417 0)
(0.876191881 0.551596282 -2.90780533e-25)
(1.20177069 0.542818202 -3.18885683e-25)
(1.5717046 0.53547747 6.98748048e-26)
(1.99029338 0.529784587 0)
(2.46253548 0.526275994 3.85382608e-25)
(2.99346165 0.525538431 9.32623947e-25)
(3.58778346 0.528243347 5.28533201e-25)
(4.24977316 0.535105324 3.57383922e-26)
(4.98300694 0.546845428 -1.92706583e-27)
(5.79008404 0.564221561 0)
(6.67227231 0.58802178 -1.16631095e-24)
(7.62910732 0.619019068 -3.04097584e-26)
(8.65794574 0.657908185 1.68440644e-24)
(9.75353937 0.705235287 1.97700594e-26)
(10.9077978 0.761414519 -2.38589657e-24)
(12.1093414 0.826363008 -5.50783964e-24)
(13.3441916 0.899641021 1.26767283e-32)
(14.5959318 0.980560855 3.0111989e-24)
(15.8455271 1.06888462 0)
(17.071217 1.16235571 0)
(18.2546567 1.25997105 1.96512539e-25)
(19.3667474 1.35865069 2.19299268e-25)
(20.3897947 1.46314028 0)
(21.3045796 1.55431609 8.0385393e-24)
(22.1111397 1.63832704 7.6019726e-24)
(22.7805515 1.6966802 -8.02829509e-24)
(23.3428189 1.75548131 -2.17348646e-23)
(23.7297177 1.76375264 -9.75307304e-24)
(23.8737864 1.79173356 -6.81654828e-24)
(23.8841153 1.83314772 -8.41174644e-24)
(23.8546409 1.85866614 -8.9511109e-25)
(23.8426528 1.81775006 1.20350451e-23)
(23.8479326 1.7909799 6.3473663e-24)
(23.8565703 1.76675476 -1.1978669e-23)
(23.9046964 1.71837777 -7.27790225e-24)
(23.999163 1.62285757 -1.12934084e-23)
(24.0599733 1.58728573 -1.2578812e-23)
(24.0556154 1.58005933 -8.75822626e-24)
(24.0479478 1.54185876 1.03656432e-31)
(24.158955 1.41723298 2.31435402e-23)
(24.1708706 1.32694362 1.9124675e-23)
(-0.0315656646 0.018468719 1.61580284e-27)
(-0.0931678297 0.0542125901 4.48418031e-28)
(-0.154384592 0.0893932228 4.30231508e-27)
(-0.215307912 0.124075639 -7.83227382e-34)
(-0.275905363 0.158278359 -3.02548305e-27)
(-0.336032709 0.191953945 -3.17199566e-27)
(-0.395442937 0.225001561 -1.8492408e-27)
(-0.45380563 0.25728328 -8.23457028e-28)
(-0.510730785 0.288640521 1.96898405e-27)
(-0.565791937 0.318909424 3.59518831e-27)
(-0.618550375 0.347925882 5.05504075e-27)
(-0.668545481 0.375532021 5.01417279e-27)
(-0.715298512 0.401593618 8.53419336e-27)
(-0.758373947 0.425993619 1.31874501e-26)
(-0.797323433 0.448674164 1.75787069e-27)
(-0.831712802 0.469521685 1.84421526e-27)
(-0.86103735 0.488540056 4.96622059e-26)
(-0.884839407 0.505639243 5.73376225e-26)
(-0.902581128 0.520781976 -4.23168914e-27)
(-0.913720023 0.534046605 -4.47099943e-27)
(-0.917684647 0.545405429 7.42783585e-26)
(-0.913817823 0.554885808 8.36055211e-26)
(-0.901408937 0.562511243 0)
(-0.879641577 0.568328878 5.36339363e-27)
(-0.847651241 0.572375589 0)
(-0.804455993 0.574724274 0)
(-0.748949705 0.575468613 6.09083841e-27)
(-0.679884712 0.574716743 -1.64062903e-25)
(-0.595850704 0.572587776 -1.56460786e-25)
(-0.495151182 0.569179743 1.5868978e-25)
(-0.375896118 0.564565071 1.75581892e-25)
(-0.236153467 0.558602866 1.44517487e-26)
(-0.0729911784 0.552083729 -1.48928958e-26)
(0.110743164 0.546826263 0)
(0.320117634 0.541993006 1.59403779e-26)
(0.567249914 0.535803477 0)
(0.848833274 0.529520361 0)
(1.16950529 0.524813008 1.80852897e-26)
(1.53339174 0.521860263 0)
(1.94444236 0.520877001 0)
(2.40723232 0.522454259 3.73297914e-25)
(2.92636589 0.527240205 4.56800871e-25)
(3.50621197 0.535942344 0)
(4.15079707 0.549315184 0)
(4.86359126 0.568156725 0)
(5.64724843 0.593299059 3.18191375e-26)
(6.50324789 0.625553146 2.49697966e-26)
(7.43154394 0.665677474 1.10785423e-24)
(8.43018852 0.714331695 1.36240351e-24)
(9.49494763 0.772015135 1.64835045e-24)
(10.6189966 0.839024234 1.99303912e-24)
(11.7925203 0.915419788 2.4029052e-24)
(13.0025554 1.00087024 2.73736499e-24)
(14.2332626 1.09439201 0)
(15.4673509 1.19458025 0)
(16.6858499 1.29939712 -3.03451855e-24)
(17.8683082 1.40593941 -6.55172205e-24)
(18.9933537 1.51306525 -3.54014564e-24)
(20.037049 1.61674106 -3.72621469e-24)
(20.9861116 1.71684912 -3.34668805e-24)
(21.8140154 1.80266773 8.19249769e-24)
(22.5152892 1.88887839 1.61773007e-23)
(23.0730534 1.95431473 3.5802809e-25)
(23.5169885 2.00352287 -1.04620131e-23)
(23.8163881 2.04419323 3.24094575e-25)
(23.9075867 2.03040483 -7.87746948e-25)
(23.9322656 2.0709013 8.77403147e-24)
(23.8983587 2.07503034 -8.59068089e-32)
(23.8933322 2.06123392 -1.12260062e-23)
(23.8982271 2.04999767 -7.50595103e-25)
(23.9168713 2.04814055 8.94405158e-24)
(23.9505214 2.02721896 8.63659708e-24)
(23.9720809 2.01577605 0)
(23.9968502 1.98456306 9.82819634e-25)
(24.0640724 1.94283556 0)
(24.111695 1.80738226 8.20233735e-24)
(24.1301184 1.74659999 2.29650125e-23)
(24.1322416 1.76801108 9.382604e-24)
(24.165305 1.72288848 7.12626693e-24)
(24.1889412 1.61210463 2.86269775e-23)
(-0.0341399643 0.0182144374 1.66260999e-27)
(-0.100433072 0.0532787531 5.17330649e-27)
(-0.165944687 0.0875930254 -5.56190948e-28)
(-0.230736421 0.121215904 -3.66122076e-27)
(-0.294725464 0.154160926 -2.55123346e-27)
(-0.357699451 0.186375692 -1.97821713e-27)
(-0.419328953 0.217755787 -1.37597256e-27)
(-0.479190615 0.24816204 -3.2048876e-27)
(-0.536795793 0.277437297 -5.16049693e-27)
(-0.591617292 0.305421325 -7.40132931e-27)
(-0.643108841 0.331963106 0)
(-0.690710012 0.356946176 -3.54261227e-27)
(-0.73386656 0.380233683 1.86379763e-27)
(-0.771995276 0.401746813 0)
(-0.804521705 0.421387157 0)
(-0.830834568 0.439150825 0)
(-0.850332723 0.454992633 0)
(-0.862364976 0.468910961 -2.37142409e-27)
(-0.866232229 0.480917715 0)
(-0.861180642 0.491047827 -4.84049462e-26)
(-0.846416216 0.499339246 -5.37673952e-26)
(-0.821003348 0.505871668 1.02366586e-25)
(-0.783967793 0.510714355 1.19726164e-25)
(-0.734198858 0.513973273 -1.25410605e-25)
(-0.670464217 0.515765134 -1.50146025e-25)
(-0.591367316 0.51621907 -1.56596184e-25)
(-0.495317839 0.515491547 -1.61613342e-25)
(-0.380557533 0.513769401 -1.87208465e-25)
(-0.245342129 0.511070858 -3.77118304e-25)
(-0.0873557063 0.507583704 -2.39274498e-25)
(0.0963731781 0.504517895 0)
(0.301724842 0.502372311 -1.65789739e-26)
(0.544022808 0.499818843 -1.75792787e-26)
(0.820326644 0.497336695 0)
(1.13477145 0.496492007 1.84255358e-26)
(1.49116537 0.49765884 0)
(1.89315921 0.501160684 0)
(2.34496808 0.507620263 3.89067922e-25)
(2.85086598 0.517696128 -2.01763367e-26)
(3.4149182 0.532125382 -4.61614436e-25)
(4.04091745 0.551708128 5.46669428e-25)
(4.73217396 0.577271497 6.04802185e-25)
(5.49131556 0.609656463 1.78766032e-26)
(6.31995792 0.649670966 0)
(7.21839939 0.69806305 9.56289239e-25)
(8.18528952 0.75547537 1.19412321e-24)
(9.2172896 0.822388812 0)
(10.3087477 0.899054974 0)
(11.4514185 0.985454934 -2.01377761e-24)
(12.6341208 1.08120993 -2.38183212e-24)
(13.8428566 1.18566618 2.78699277e-24)
(15.0601394 1.29743911 3.01200302e-24)
(16.2677435 1.41484249 -3.03043949e-24)
(17.4458359 1.53549001 2.32813851e-32)
(18.5737736 1.65645832 3.44346447e-24)
(19.6313471 1.77435807 1.77332359e-26)
(20.5999782 1.88454026 0)
(21.4626507 1.98469556 2.610399e-25)
(22.2036154 2.0712829 -3.82758579e-24)
(22.8148046 2.1473976 3.28184036e-25)
(23.2891433 2.19768811 4.48487557e-24)
(23.6440905 2.234127 0)
(23.8564307 2.28241175 3.36583772e-25)
(23.9112843 2.27375514 0)
(23.917394 2.26595852 4.08318304e-25)
(23.9137722 2.27063673 -2.7294162e-25)
(23.9268077 2.23717578 -6.35756346e-25)
(23.954853 2.20803851 -1.02658076e-23)
(23.9809081 2.20045776 -1.27402253e-23)
(23.993196 2.20366523 -8.54152835e-25)
(23.996037 2.17989231 -1.2378044e-23)
(24.0043315 2.1595437 -1.090698e-23)
(24.0098355 2.11683622 -1.05237107e-23)
(24.0287103 2.09086574 -9.15486995e-24)
(24.0700475 2.01609833 -1.10081614e-23)
(24.0784141 2.01722865 -1.19784828e-23)
(24.0825181 1.97202543 9.04472887e-24)
(24.1139315 1.88286529 8.46215917e-24)
(24.1922195 1.76919454 -2.78324054e-24)
(24.2005 1.79396651 1.99019639e-24)
(-0.0367156649 0.0177763016 1.39602095e-27)
(-0.10754512 0.0518092875 -4.84294599e-27)
(-0.177007457 0.0849162519 -6.58790662e-28)
(-0.245099976 0.117142495 -6.76899594e-34)
(-0.31165978 0.148490363 -7.5188971e-28)
(-0.376380487 0.178900591 -7.68580094e-28)
(-0.438828591 0.208267394 2.80773057e-27)
(-0.498466921 0.236462786 1.28864759e-33)
(-0.554693131 0.2633308 -1.40089539e-26)
(-0.606846521 0.288730423 -1.07537531e-26)
(-0.654239675 0.312527662 1.97849498e-27)
(-0.696173265 0.334591445 -1.85411959e-26)
(-0.731922403 0.354856407 -1.76822201e-26)
(-0.760768868 0.373247254 -2.38493955e-26)
(-0.781968091 0.389729615 -2.81868713e-26)
(-0.794750807 0.404296156 3.29150432e-26)
(-0.7983084 0.41696915 3.79199998e-26)
(-0.791786425 0.427779691 -2.73136837e-27)
(-0.774259292 0.436803839 0)
(-0.744700217 0.444121897 -5.15020114e-26)
(-0.702013923 0.449838299 -6.07587239e-26)
(-0.644973577 0.454085578 -6.58743193e-27)
(-0.572192226 0.457020249 7.39885863e-26)
(-0.482126101 0.458840649 8.58800293e-26)
(-0.373172207 0.459688739 -1.46826877e-26)
(-0.243588128 0.459631835 0)
(-0.0911305339 0.458962038 8.08989069e-27)
(0.0869685264 0.458701919 1.48002458e-28)
(0.287616391 0.459263414 -2.20372273e-25)
(0.523838545 0.459848682 -2.30658311e-25)
(0.793325662 0.460796173 2.85257801e-25)
(1.09979543 0.463477864 2.80076901e-25)
(1.44695451 0.468429492 -3.90864036e-26)
(1.83820765 0.476011352 -3.24523421e-25)
(2.27740829 0.486866792 -1.46514108e-32)
(2.76848728 0.501687876 4.13787678e-25)
(3.3152334 0.521234192 -4.81628458e-25)
(3.92121525 0.546319542 -5.17559721e-25)
(4.58958773 0.57777757 -4.11770797e-26)
(5.32294123 0.616450267 2.0158963e-26)
(6.12300344 0.663147207 1.79789199e-26)
(6.99036629 0.71861926 -9.00962421e-25)
(7.92418182 0.783511686 -2.10898216e-24)
(8.92184947 0.85830865 -1.25702833e-24)
(9.97871601 0.943272393 -1.50444291e-24)
(11.0878046 1.03837949 -1.77373401e-24)
(12.2395865 1.14325814 0)
(13.4218258 1.25712606 2.50068283e-24)
(14.6195557 1.37885779 2.94084338e-24)
(15.8146433 1.50671253 3.18975023e-24)
(16.9879699 1.63848264 6.67161172e-24)
(18.1197263 1.77141381 6.9535142e-24)
(19.189653 1.90241318 7.31752541e-24)
(20.1780113 2.02813817 7.68622743e-24)
(21.0667214 2.14503443 4.03303648e-24)
(21.8409619 2.24969278 -3.90828757e-25)
(22.4916423 2.33817689 0)
(23.0141934 2.40541132 -4.35222587e-24)
(23.4136945 2.45669665 -4.46954378e-24)
(23.6855466 2.47996511 0)
(23.8648454 2.50624136 -5.42314154e-24)
(23.9160204 2.50422876 -4.74276525e-24)
(23.9199192 2.48511936 0)
(23.9086863 2.49034119 -2.31999347e-25)
(23.9040669 2.44847608 0)
(23.9120158 2.44619059 -9.31932939e-24)
(23.9711353 2.3803937 -1.09022006e-24)
(24.0071448 2.34878617 1.20443149e-23)
(24.0088435 2.3385313 -6.50930107e-25)
(23.9984027 2.30912035 -8.60401048e-25)
(23.9911688 2.29104533 -1.02104646e-23)
(23.9864471 2.28776709 -7.23991128e-24)
(23.985654 2.25487832 -5.38949054e-25)
(23.9781412 2.24639512 -6.26743887e-25)
(24.0212671 2.17552244 -5.61710797e-26)
(24.0735135 2.10154548 -1.2315407e-24)
(24.0743588 2.0700776 1.23009477e-23)
(24.0501842 2.10651956 1.93574237e-23)
(24.1078257 2.01102955 9.97963265e-24)
(24.1687756 1.86327656 -2.58993138e-24)
(-0.0389240938 0.0170002049 0)
(-0.113367951 0.0493624654 -7.42124472e-28)
(-0.185627774 0.0806581885 7.8085639e-28)
(-0.25560307 0.110921463 -1.87135347e-27)
(-0.323019671 0.140141122 8.65438716e-28)
(-0.387442113 0.168255314 9.10403155e-28)
(-0.448295065 0.195161608 -7.53532825e-27)
(-0.504893566 0.220727724 0)
(-0.556463443 0.244829103 2.10792345e-27)
(-0.602189455 0.267336064 -1.63397423e-26)
(-0.641221722 0.288142821 -1.77322673e-26)
(-0.672688084 0.307168713 2.40984086e-26)
(-0.695698078 0.324362212 2.56520083e-27)
(-0.709339353 0.339704062 -6.40869327e-26)
(-0.712662615 0.353212437 -7.69558252e-26)
(-0.704686181 0.364911124 -4.0803898e-26)
(-0.684335461 0.374900238 -3.0796515e-27)
(-0.650493494 0.383263309 -5.59319553e-26)
(-0.601929478 0.390139493 -5.92142563e-26)
(-0.537293101 0.39569228 3.469578e-27)
(-0.455112939 0.400110975 -3.65365834e-27)
(-0.353742749 0.403500354 -1.51091034e-26)
(-0.231354051 0.405969913 -9.75362547e-26)
(-0.085568657 0.408149055 -2.28170678e-25)
(0.0827684299 0.410915074 -1.08658452e-25)
(0.27727555 0.414171273 -8.78960839e-27)
(0.505535323 0.41750673 -9.91514359e-26)
(0.766223757 0.421615722 9.46070658e-27)
(1.0628417 0.427636559 -9.78118439e-27)
(1.39888045 0.43606566 -1.50676273e-25)
(1.77753858 0.447313966 0)
(2.20234882 0.462063525 -3.89970914e-25)
(2.67694576 0.481030499 -2.1705411e-26)
(3.20485855 0.504985165 4.80475888e-25)
(3.78943983 0.534747701 5.33488615e-25)
(4.43369808 0.571161148 5.93000634e-25)
(5.14017497 0.615073652 -2.16443548e-26)