/*--------------------------------*- C++ -*----------------------------------*\
  =========                 |
  \\      /  F ield         | OpenFOAM: The Open Source CFD Toolbox
   \\    /   O peration     | Website:  https://openfoam.org
    \\  /    A nd           | Version:  8
     \\/     M anipulation  |
\*---------------------------------------------------------------------------*/
FoamFile
{
    version     2.0;
    format      ascii;
    class       volScalarField;
    location    "0.062";
    object      p_rgh;
}
// * * * * * * * * * * * * * * * * * * * * * * * * * * * * * * * * * * * * * //

dimensions      [1 -1 -2 0 0 0 0];

internalField   nonuniform List<scalar> 
42400
(
101562.126
101562.112
101562.098
101562.085
101562.073
101562.062
101562.052
101562.042
101562.034
101562.026
101562.02
101562.014
101562.009
101562.006
101562.003
101562.002
101562.001
101562.002
101562.003
101562.005
101562.009
101562.013
101562.018
101562.023
101562.03
101562.037
101562.044
101562.053
101562.061
101562.071
101562.08
101562.09
101562.101
101562.111
101562.122
101562.133
101562.144
101562.155
101562.175
101562.206
101562.242
101562.26
101562.259
101562.255
101562.252
101562.264
101562.293
101562.326
101562.364
101562.405
101562.449
101562.494
101562.559
101562.64
101562.743
101562.841
101562.929
101563.057
101563.217
101563.403
101563.608
101563.842
101564.111
101564.424
101564.782
101565.168
101565.604
101566.039
101566.406
101567.245
101567.895
101567.241
101567.743
101573.589
101577.703
101573.398
101570.782
101573.566
101579.039
101581.639
101561.305
101561.295
101561.283
101561.272
101561.263
101561.253
101561.245
101561.237
101561.23
101561.224
101561.219
101561.214
101561.211
101561.208
101561.206
101561.205
101561.205
101561.205
101561.207
101561.209
101561.212
101561.215
101561.219
101561.224
101561.23
101561.235
101561.242
101561.248
101561.255
101561.262
101561.269
101561.276
101561.283
101561.29
101561.301
101561.319
101561.341
101561.364
101561.372
101561.361
101561.349
101561.349
101561.361
101561.374
101561.389
101561.405
101561.421
101561.434
101561.464
101561.51
101561.571
101561.617
101561.644
101561.703
101561.789
101561.895
101562.009
101562.142
101562.3
101562.491
101562.722
101562.989
101563.29
101563.627
101564.015
101564.438
101564.937
101565.529
101565.978
101566.809
101568.308
101568.806
101569.689
101572.085
101571.654
101573.113
101576.616
101579.813
101581.809
101582.96
101560.37
101560.362
101560.353
101560.344
101560.337
101560.33
101560.323
101560.318
101560.313
101560.308
101560.305
101560.302
101560.3
101560.299
101560.299
101560.299
101560.301
101560.303
101560.306
101560.309
101560.314
101560.319
101560.325
101560.331
101560.338
101560.346
101560.354
101560.362
101560.371
101560.379
101560.39
101560.404
101560.42
101560.439
101560.454
101560.459
101560.455
101560.451
101560.456
101560.47
101560.485
101560.5
101560.514
101560.527
101560.536
101560.561
101560.609
101560.638
101560.644
101560.667
101560.714
101560.777
101560.842
101560.916
101561.005
101561.116
101561.252
101561.415
101561.607
101561.83
101562.091
101562.397
101562.751
101563.151
101563.617
101564.137
101564.708
101565.421
101566.064
101566.722
101567.902
101568.702
101569.331
101572.76
101574.933
101576.47
101578.1
101580.044
101583.051
101584.914
101559.352
101559.346
101559.338
101559.332
101559.327
101559.321
101559.317
101559.313
101559.31
101559.308
101559.307
101559.306
101559.306
101559.307
101559.31
101559.313
101559.317
101559.322
101559.328
101559.335
101559.343
101559.352
101559.361
101559.372
101559.383
101559.395
101559.408
101559.423
101559.439
101559.458
101559.475
101559.489
101559.499
101559.508
101559.517
101559.532
101559.552
101559.573
101559.593
101559.611
101559.629
101559.649
101559.683
101559.732
101559.758
101559.762
101559.789
101559.835
101559.881
101559.929
101559.984
101560.053
101560.136
101560.236
101560.354
101560.493
101560.66
101560.862
101561.102
101561.388
101561.725
101562.123
101562.588
101563.119
101563.728
101564.439
101565.19
101566.077
101567.017
101567.985
101569.663
101572.745
101575.085
101575.2
101576.504
101579.56
101581.237
101582.925
101584.723
101586.214
101558.255
101558.25
101558.244
101558.239
101558.234
101558.231
101558.227
101558.225
101558.224
101558.224
101558.224
101558.226
101558.229
101558.233
101558.238
101558.245
101558.253
101558.262
101558.272
101558.284
101558.297
101558.31
101558.324
101558.34
101558.358
101558.378
101558.399
101558.42
101558.441
101558.462
101558.483
101558.508
101558.537
101558.566
101558.595
101558.624
101558.653
101558.678
101558.705
101558.746
101558.802
101558.831
101558.84
101558.877
101558.929
101558.976
101559.024
101559.079
101559.142
101559.213
101559.295
101559.389
101559.5
101559.633
101559.795
101559.99
101560.222
101560.5
101560.828
101561.214
101561.669
101562.208
101562.849
101563.587
101564.4
101565.388
101566.349
101567.413
101569.448
101571.857
101573.479
101574.136
101575.341
101577.024
101578.885
101580.376
101582.043
101583.545
101585.055
101586.805
101557.075
101557.07
101557.064
101557.06
101557.056
101557.053
101557.052
101557.051
101557.051
101557.052
101557.055
101557.06
101557.065
101557.072
101557.081
101557.092
101557.104
101557.116
101557.13
101557.146
101557.164
101557.185
101557.209
101557.234
101557.261
101557.289
101557.319
101557.351
101557.385
101557.42
101557.455
101557.492
101557.531
101557.57
101557.605
101557.644
101557.704
101557.768
101557.796
101557.819
101557.867
101557.927
101557.981
101558.036
101558.095
101558.159
101558.229
101558.307
101558.394
101558.494
101558.612
101558.751
101558.917
101559.116
101559.352
101559.632
101559.963
101560.351
101560.811
101561.351
101561.982
101562.71
101563.582
101564.543
101565.364
101566.562
101568.556
101570.532
101571.664
101572.544
101573.703
101575.099
101577.109
101578.512
101579.794
101581.525
101583.206
101584.73
101586.376
101587.937
101555.782
101555.777
101555.772
101555.768
101555.765
101555.763
101555.762
101555.763
101555.765
101555.768
101555.773
101555.78
101555.789
101555.8
101555.813
101555.827
101555.844
101555.864
101555.887
101555.912
101555.939
101555.967
101555.998
101556.031
101556.066
101556.103
101556.143
101556.184
101556.228
101556.273
101556.32
101556.364
101556.415
101556.481
101556.545
101556.587
101556.632
101556.695
101556.762
101556.825
101556.888
101556.955
101557.026
101557.101
101557.182
101557.272
101557.372
101557.486
101557.616
101557.768
101557.948
101558.16
101558.411
101558.705
101559.048
101559.445
101559.906
101560.432
101561.032
101561.707
101562.437
101563.189
101564.224
101566.088
101568.543
101569.912
101570.698
101571.674
101572.806
101574.027
101575.449
101577.333
101578.641
101579.719
101580.767
101581.968
101583.839
101586.063
101588.049
101589.433
101554.35
101554.345
101554.34
101554.337
101554.335
101554.334
101554.335
101554.338
101554.343
101554.349
101554.357
101554.367
101554.38
101554.395
101554.413
101554.433
101554.456
101554.481
101554.509
101554.54
101554.573
101554.609
101554.648
101554.69
101554.734
101554.781
101554.831
101554.882
101554.933
101554.991
101555.063
101555.125
101555.176
101555.239
101555.311
101555.384
101555.456
101555.529
101555.606
101555.685
101555.769
101555.858
101555.954
101556.059
101556.174
101556.304
101556.452
101556.622
101556.821
101557.055
101557.33
101557.651
101558.026
101558.462
101558.967
101559.554
101560.232
101561
101561.88
101562.891
101563.921
101565.209
101567.015
101568.349
101568.977
101569.762
101571.018
101572.44
101573.967
101575.285
101576.5
101577.864
101579.355
101581.214
101582.873
101584.728
101586.465
101587.723
101589.141
101590.538
101552.727
101552.723
101552.719
101552.717
101552.717
101552.719
101552.722
101552.728
101552.737
101552.747
101552.761
101552.776
101552.794
101552.814
101552.838
101552.864
101552.893
101552.926
101552.961
101553
101553.041
101553.086
101553.134
101553.185
101553.239
101553.293
101553.354
101553.427
101553.493
101553.55
101553.619
101553.697
101553.775
101553.854
101553.935
101554.02
101554.108
101554.2
101554.297
101554.4
101554.511
101554.631
101554.763
101554.91
101555.077
101555.268
101555.488
101555.744
101556.042
101556.389
101556.79
101557.252
101557.783
101558.393
101559.088
101559.874
101560.754
101561.713
101562.831
101563.968
101565.204
101566.752
101567.984
101568.868
101570.058
101571.248
101572.549
101574.077
101575.509
101577.008
101578.408
101579.805
101581.671
101583.581
101585.155
101586.463
101587.676
101588.835
101590.552
101592.422
101550.89
101550.888
101550.886
101550.887
101550.89
101550.895
101550.903
101550.913
101550.925
101550.94
101550.958
101550.979
101551.003
101551.03
101551.06
101551.094
101551.131
101551.171
101551.215
101551.262
101551.313
101551.367
101551.423
101551.485
101551.557
101551.625
101551.687
101551.761
101551.842
101551.923
101552.007
101552.094
101552.185
101552.279
101552.378
101552.481
101552.591
101552.708
101552.833
101552.969
101553.118
101553.284
101553.471
101553.682
101553.924
101554.202
101554.522
101554.891
101555.312
101555.79
101556.333
101556.947
101557.649
101558.44
101559.348
101560.316
101561.299
101562.342
101563.586
101564.887
101566.484
101567.586
101568.491
101569.763
101571.083
101572.468
101573.825
101575.198
101576.739
101578.257
101579.544
101581.245
101583.342
101584.601
101585.825
101587.442
101589.084
101590.675
101592.448
101594.175
101548.791
101548.792
101548.795
101548.8
101548.808
101548.817
101548.83
101548.845
101548.864
101548.885
101548.91
101548.938
101548.97
101549.005
101549.044
101549.086
101549.133
101549.183
101549.236
101549.292
101549.354
101549.425
101549.494
101549.56
101549.636
101549.719
101549.803
101549.89
101549.981
101550.076
101550.175
101550.279
101550.388
101550.503
101550.625
101550.755
101550.896
101551.049
101551.218
101551.405
101551.615
101551.853
101552.122
101552.43
101552.78
101553.178
101553.629
101554.134
101554.692
101555.306
101555.973
101556.676
101557.416
101558.156
101559.17
101560.707
101562.274
101563.804
101565.079
101566.593
101567.624
101568.335
101569.762
101571.027
101572.047
101573.303
101574.741
101576.018
101577.29
101579.169
101581.075
101582.41
101583.743
101585.455
101587.276
101588.993
101590.848
101592.856
101594.878
101597.136
101546.4
101546.405
101546.413
101546.424
101546.437
101546.454
101546.473
101546.496
101546.522
101546.551
101546.585
101546.622
101546.663
101546.708
101546.757
101546.809
101546.865
101546.926
101546.996
101547.065
101547.134
101547.211
101547.295
101547.38
101547.47
101547.563
101547.661
101547.763
101547.87
101547.982
101548.101
101548.226
101548.359
101548.502
101548.657
101548.827
101549.014
101549.222
101549.456
101549.721
101550.021
101550.362
101550.751
101551.193
101551.695
101552.261
101552.896
101553.604
101554.388
101555.259
101556.214
101557.23
101558.351
101559.986
101561.645
101562.57
101563.262
101564.141
101565.247
101566.245
101567.355
101568.903
101570.379
101571.763
101573.137
101574.482
101575.736
101577.468
101579.434
101580.552
101581.823
101584.038
101585.914
101587.526
101589.198
101590.905
101592.541
101594.4
101596.389
101598.24
101543.668
101543.68
101543.696
101543.714
101543.735
101543.759
101543.787
101543.819
101543.855
101543.894
101543.937
101543.985
101544.037
101544.093
101544.156
101544.224
101544.291
101544.362
101544.44
101544.524
101544.611
101544.702
101544.797
101544.897
101545.002
101545.111
101545.226
101545.346
101545.473
101545.607
101545.751
101545.905
101546.073
101546.256
101546.459
101546.685
101546.938
101547.223
101547.547
101547.914
101548.33
101548.803
101549.338
101549.94
101550.614
101551.362
101552.185
101553.081
101554.048
101555.098
101556.211
101557.371
101558.895
101560.181
101560.933
101561.895
101563.237
101564.717
101566.189
101567.611
101569.101
101570.503
101571.985
101573.629
101574.921
101576.258
101578.026
101579.54
101580.929
101582.806
101584.443
101585.683
101587.253
101588.924
101590.708
101592.504
101594.214
101596.059
101598.138
101599.951
101540.562
101540.582
101540.607
101540.634
101540.665
101540.699
101540.738
101540.78
101540.827
101540.878
101540.934
101540.995
101541.06
101541.128
101541.202
101541.281
101541.365
101541.453
101541.546
101541.643
101541.745
101541.851
101541.963
101542.08
101542.203
101542.332
101542.468
101542.613
101542.768
101542.934
101543.115
101543.313
101543.531
101543.774
101544.045
101544.35
101544.693
101545.08
101545.517
101546.009
101546.562
101547.181
101547.871
101548.635
101549.474
101550.388
101551.399
101552.445
101553.517
101554.563
101555.987
101557.875
101559.037
101559.963
101561.308
101562.745
101564.155
101565.565
101566.995
101568.36
101569.766
101571.298
101572.731
101574.098
101575.583
101577.362
101579.375
101581.338
101582.953
101584.328
101585.58
101586.946
101588.77
101590.884
101592.962
101595.047
101597.252
101599.12
101600.573
101601.916
101537.038
101537.068
101537.104
101537.143
101537.185
101537.232
101537.282
101537.338
101537.399
101537.464
101537.533
101537.607
101537.687
101537.771
101537.861
101537.955
101538.054
101538.158
101538.268
101538.383
101538.503
101538.63
101538.763
101538.904
101539.052
101539.211
101539.381
101539.565
101539.765
101539.984
101540.226
101540.495
101540.794
101541.13
101541.507
101541.929
101542.402
101542.931
101543.519
101544.168
101544.88
101545.654
101546.488
101547.357
101548.256
101549.162
101550.362
101552.056
101553.846
101555.694
101557.196
101557.881
101558.737
101560.199
101561.686
101563.222
101564.571
101565.711
101566.993
101568.36
101569.961
101571.754
101573.462
101575.073
101577.329
101579.353
101580.767
101582.313
101583.86
101585.45
101587.059
101588.504
101590.265
101592.429
101594.655
101596.85
101599.139
101600.75
101602.317
101604.434
101533.07
101533.111
101533.161
101533.213
101533.269
101533.329
101533.395
101533.465
101533.54
101533.62
101533.705
101533.795
101533.891
101533.992
101534.098
101534.21
101534.328
101534.452
101534.582
101534.719
101534.864
101535.018
101535.181
101535.356
101535.545
101535.749
101535.973
101536.218
101536.49
101536.793
101537.131
101537.509
101537.934
101538.41
101538.944
101539.539
101540.202
101540.936
101541.745
101542.631
101543.596
101544.642
101545.768
101546.944
101548.241
101549.993
101551.727
101552.898
101553.832
101554.727
101555.535
101556.723
101558.459
101560.106
101561.693
101563.314
101564.956
101566.612
101568.299
101570.119
101571.961
101573.598
101575.401
101577.506
101578.97
101580.154
101581.685
101583.324
101585.143
101587.045
101589.079
101591.173
101593.072
101594.886
101596.861
101598.731
101600.825
101603.502
101605.753
101607.406
101528.637
101528.692
101528.757
101528.825
101528.896
101528.971
101529.052
101529.137
101529.228
101529.324
101529.425
101529.532
101529.645
101529.763
101529.888
101530.019
101530.157
101530.303
101530.458
101530.623
101530.799
101530.988
101531.192
101531.415
101531.659
101531.928
101532.226
101532.559
101532.931
101533.348
101533.816
101534.34
101534.927
101535.582
101536.31
101537.115
101538
101538.966
101540.015
101541.144
101542.349
101543.624
101544.957
101546.324
101547.851
101549.204
101550.193
101551.329
101552.78
101554.275
101555.881
101557.562
101559.224
101560.95
101562.653
101564.652
101566.94
101568.858
101570.372
101571.67
101572.94
101574.355
101575.942
101577.353
101578.624
101580.467
101582.762
101584.969
101587.008
101589.138
101591.439
101593.555
101595.648
101598.106
101600.382
101602.427
101604.097
101605.687
101607.487
101609.536
101523.762
101523.832
101523.913
101523.997
101524.083
101524.175
101524.271
101524.372
101524.479
101524.59
101524.708
101524.831
101524.961
101525.097
101525.241
101525.392
101525.553
101525.725
101525.908
101526.106
101526.319
101526.553
101526.808
101527.09
101527.403
101527.751
101528.14
101528.575
101529.062
101529.606
101530.213
101530.888
101531.634
101532.457
101533.358
101534.34
101535.404
101536.55
101537.777
101539.084
101540.486
101541.958
101543.482
101545.008
101546.402
101547.848
101549.494
101551.184
101552.848
101554.488
101556.082
101557.689
101559.312
101560.915
101562.361
101564.107
101566.342
101568.409
101569.9
101571.209
101572.909
101574.873
101576.723
101578.537
101580.589
101582.802
101585.011
101587.252
101589.536
101591.694
101593.763
101596.226
101599.043
101600.727
101601.994
101603.758
101605.964
101608.381
101609.818
101611.484
101518.507
101518.593
101518.692
101518.792
101518.895
101519.002
101519.114
101519.231
101519.353
101519.481
101519.615
101519.756
101519.905
101520.062
101520.228
101520.407
101520.598
101520.804
101521.028
101521.273
101521.543
101521.842
101522.173
101522.543
101522.957
101523.419
101523.936
101524.514
101525.156
101525.869
101526.654
101527.515
101528.451
101529.462
101530.544
101531.692
101532.897
101534.142
101535.399
101536.678
101538.295
101540.383
101542.445
101544.477
101546.639
101548.509
101550.054
101551.601
101553.216
101554.851
101556.611
101558.579
101560.828
101563.124
101565.111
101566.509
101567.469
101568.723
101570.981
101574.12
101576.334
101577.894
101579.503
101581.219
101582.922
101584.621
101586.231
101588.194
101591.163
101593.697
101595.759
101598.388
101600.535
101602.295
101604.676
101606.997
101608.774
101610.141
101611.591
101613.405
101512.99
101513.092
101513.209
101513.326
101513.445
101513.569
101513.697
101513.832
101513.972
101514.12
101514.275
101514.44
101514.615
101514.803
101515.005
101515.225
101515.465
101515.729
101516.02
101516.344
101516.706
101517.111
101517.566
101518.076
101518.648
101519.29
101520.007
101520.805
101521.69
101522.666
101523.737
101524.906
101526.174
101527.542
101529.009
101530.574
101532.232
101533.95
101535.761
101538.117
101540.672
101542.354
101543.616
101544.795
101545.925
101547.506
101549.721
101551.951
101554.13
101556.33
101558.611
101560.755
101562.168
101563.246
101565.019
101567.661
101570.326
101572.56
101574.152
101575.275
101576.558
101578.613
101581.118
101583.364
101585.272
101587.205
101589.269
101590.986
101592.62
101594.784
101597.666
101600.297
101602.785
101605.675
101608
101609.782
101611.45
101612.95
101614.498
101616.479
101547.909
101547.915
101547.923
101547.93
101547.937
101547.944
101547.952
101547.959
101547.967
101547.974
101547.982
101547.989
101547.997
101548.004
101548.011
101548.019
101548.026
101548.033
101548.04
101548.047
101548.054
101548.06
101548.067
101548.073
101548.078
101548.084
101548.088
101548.093
101548.096
101548.099
101548.102
101548.103
101548.104
101548.103
101548.101
101548.098
101548.093
101548.086
101548.078
101548.068
101548.055
101548.04
101548.022
101548.001
101547.976
101547.948
101547.917
101547.881
101547.84
101547.795
101547.744
101547.688
101547.624
101547.552
101547.474
101547.386
101547.288
101547.18
101547.061
101546.93
101546.784
101546.62
101546.433
101546.219
101545.968
101545.67
101545.312
101544.88
101544.407
101543.881
101543.265
101542.577
101541.763
101540.784
101539.74
101538.628
101537.406
101536.038
101534.392
101531.512
101549.239
101549.246
101549.254
101549.262
101549.269
101549.277
101549.284
101549.292
101549.299
101549.306
101549.314
101549.321
101549.328
101549.334
101549.341
101549.347
101549.354
101549.36
101549.365
101549.371
101549.376
101549.381
101549.385
101549.389
101549.392
101549.395
101549.397
101549.398
101549.398
101549.397
101549.396
101549.393
101549.388
101549.383
101549.375
101549.366
101549.355
101549.342
101549.326
101549.307
101549.286
101549.262
101549.235
101549.204
101549.169
101549.129
101549.086
101549.037
101548.984
101548.925
101548.86
101548.789
101548.71
101548.624
101548.53
101548.427
101548.316
101548.195
101548.062
101547.917
101547.758
101547.585
101547.394
101547.181
101546.941
101546.665
101546.347
101545.971
101545.485
101544.894
101544.224
101543.431
101542.552
101541.617
101540.473
101538.967
101537.104
101535.406
101534.031
101532.576
101550.57
101550.577
101550.585
101550.593
101550.601
101550.609
101550.617
101550.624
101550.632
101550.639
101550.647
101550.654
101550.661
101550.667
101550.674
101550.68
101550.686
101550.692
101550.697
101550.702
101550.707
101550.711
101550.715
101550.718
101550.721
101550.722
101550.723
101550.724
101550.723
101550.721
101550.718
101550.713
101550.708
101550.7
101550.691
101550.68
101550.667
101550.651
101550.633
101550.613
101550.589
101550.563
101550.533
101550.499
101550.462
101550.421
101550.375
101550.325
101550.27
101550.21
101550.144
101550.073
101549.996
101549.912
101549.82
101549.721
101549.613
101549.497
101549.371
101549.235
101549.087
101548.926
101548.748
101548.549
101548.324
101548.065
101547.764
101547.41
101546.984
101546.462
101545.837
101545.078
101544.168
101543.098
101541.882
101540.5
101538.91
101536.895
101534.413
101532.237
101551.907
101551.914
101551.923
101551.931
101551.939
101551.947
101551.955
101551.963
101551.97
101551.978
101551.986
101551.993
101552.001
101552.008
101552.015
101552.021
101552.028
101552.034
101552.04
101552.045
101552.051
101552.055
101552.06
101552.064
101552.067
101552.069
101552.071
101552.072
101552.073
101552.072
101552.07
101552.067
101552.062
101552.056
101552.049
101552.04
101552.029
101552.016
101552
101551.983
101551.963
101551.94
101551.915
101551.886
101551.855
101551.82
101551.782
101551.74
101551.695
101551.646
101551.593
101551.536
101551.474
101551.408
101551.336
101551.258
101551.174
101551.083
101550.984
101550.876
101550.758
101550.627
101550.48
101550.314
101550.122
101549.895
101549.624
101549.297
101548.897
101548.405
101547.81
101547.091
101546.236
101545.22
101544.027
101542.653
101541.065
101539.243
101537.135
101534.394
101553.242
101553.249
101553.257
101553.265
101553.274
101553.282
101553.29
101553.299
101553.307
101553.315
101553.323
101553.332
101553.34
101553.348
101553.355
101553.363
101553.371
101553.378
101553.386
101553.393
101553.4
101553.406
101553.412
101553.418
101553.424
101553.429
101553.433
101553.437
101553.441
101553.443
101553.445
101553.445
101553.445
101553.444
101553.441
101553.438
101553.432
101553.426
101553.417
101553.407
101553.396
101553.382
101553.366
101553.349
101553.329
101553.308
101553.284
101553.258
101553.231
101553.201
101553.17
101553.136
101553.101
101553.064
101553.024
101552.98
101552.933
101552.882
101552.826
101552.763
101552.692
101552.611
101552.516
101552.403
101552.266
101552.096
101551.881
101551.609
101551.264
101550.831
101550.295
101549.639
101548.845
101547.898
101546.782
101545.479
101543.973
101542.238
101540.314
101538.165
101554.568
101554.575
101554.584
101554.592
101554.6
101554.608
101554.617
101554.626
101554.635
101554.643
101554.652
101554.661
101554.67
101554.68
101554.689
101554.698
101554.707
101554.716
101554.726
101554.735
101554.744
101554.753
101554.762
101554.771
101554.779
101554.788
101554.796
101554.804
101554.812
101554.819
101554.826
101554.832
101554.838
101554.843
101554.847
101554.851
101554.854
101554.857
101554.858
101554.859
101554.859
101554.858
101554.857
101554.854
101554.851
101554.848
101554.844
101554.84
101554.836
101554.832
101554.829
101554.827
101554.825
101554.825
101554.826
101554.827
101554.827
101554.828
101554.827
101554.823
101554.814
101554.799
101554.772
101554.731
101554.667
101554.572
101554.436
101554.246
101553.988
101553.649
101553.211
101552.655
101551.964
101551.122
101550.115
101548.919
101547.516
101545.902
101544.028
101542.043
101555.867
101555.874
101555.882
101555.89
101555.898
101555.907
101555.915
101555.924
101555.934
101555.943
101555.953
101555.963
101555.973
101555.984
101555.994
101556.005
101556.016
101556.028
101556.039
101556.051
101556.062
101556.074
101556.087
101556.099
101556.111
101556.124
101556.136
101556.149
101556.162
101556.175
101556.188
101556.201
101556.214
101556.227
101556.24
101556.254
101556.267
101556.28
101556.293
101556.306
101556.32
101556.334
101556.349
101556.364
101556.381
101556.398
101556.417
101556.438
101556.461
101556.486
101556.515
101556.547
101556.582
101556.623
101556.667
101556.716
101556.769
101556.826
101556.885
101556.946
101557.007
101557.065
101557.117
101557.158
101557.181
101557.18
101557.146
101557.067
101556.93
101556.719
101556.415
101556
101555.457
101554.769
101553.918
101552.885
101551.654
101550.219
101548.551
101546.635
101557.126
101557.132
101557.139
101557.147
101557.154
101557.163
101557.172
101557.181
101557.191
101557.201
101557.211
101557.222
101557.233
101557.245
101557.257
101557.269
101557.282
101557.295
101557.309
101557.323
101557.338
101557.353
101557.368
101557.384
101557.4
101557.417
101557.435
101557.453
101557.471
101557.49
101557.509
101557.529
101557.549
101557.57
101557.591
101557.614
101557.638
101557.662
101557.688
101557.714
101557.742
101557.772
101557.804
101557.837
101557.874
101557.913
101557.955
101558.002
101558.052
101558.108
101558.169
101558.236
101558.311
101558.392
101558.482
101558.58
101558.686
101558.801
101558.923
101559.051
101559.184
101559.32
101559.455
101559.585
101559.705
101559.808
101559.886
101559.929
101559.922
101559.851
101559.699
101559.448
101559.079
101558.571
101557.901
101557.06
101556.03
101554.807
101553.342
101551.643
101558.32
101558.325
101558.332
101558.339
101558.346
101558.354
101558.363
101558.372
101558.382
101558.392
101558.403
101558.414
101558.427
101558.439
101558.452
101558.466
101558.48
101558.495
101558.511
101558.527
101558.544
101558.562
101558.581
101558.6
101558.62
101558.641
101558.662
101558.685
101558.708
101558.732
101558.757
101558.783
101558.811
101558.839
101558.869
101558.901
101558.934
101558.969
101559.005
101559.045
101559.087
101559.131
101559.179
101559.23
101559.286
101559.346
101559.411
101559.482
101559.56
101559.644
101559.737
101559.839
101559.951
101560.073
101560.207
101560.353
101560.511
101560.683
101560.866
101561.061
101561.266
101561.48
101561.7
101561.921
101562.139
101562.349
101562.542
101562.71
101562.842
101562.923
101562.939
101562.871
101562.697
101562.394
101561.945
101561.338
101560.552
101559.581
101558.352
101556.953
101559.435
101559.439
101559.445
101559.451
101559.457
101559.465
101559.473
101559.481
101559.491
101559.501
101559.512
101559.524
101559.536
101559.549
101559.563
101559.578
101559.593
101559.609
101559.626
101559.644
101559.663
101559.683
101559.704
101559.726
101559.749
101559.773
101559.798
101559.824
101559.852
101559.881
101559.911
101559.943
101559.977
101560.012
101560.049
101560.088
101560.129
101560.173
101560.221
101560.271
101560.324
101560.382
101560.444
101560.511
101560.584
101560.662
101560.748
101560.841
101560.943
101561.054
101561.176
101561.31
101561.456
101561.616
101561.79
101561.981
101562.188
101562.412
101562.653
101562.911
101563.186
101563.475
101563.776
101564.087
101564.402
101564.718
101565.027
101565.322
101565.593
101565.83
101566.017
101566.138
101566.174
101566.1
101565.899
101565.556
101565.053
101564.374
101563.459
101562.37
101560.453
101560.456
101560.46
101560.464
101560.47
101560.476
101560.483
101560.491
101560.499
101560.509
101560.519
101560.531
101560.543
101560.556
101560.57
101560.584
101560.6
101560.617
101560.635
101560.654
101560.674
101560.695
101560.717
101560.741
101560.765
101560.791
101560.819
101560.847
101560.878
101560.91
101560.943
101560.979
101561.016
101561.056
101561.1
101561.146
101561.195
101561.246
101561.301
101561.359
101561.423
101561.492
101561.566
101561.646
101561.733
101561.827
101561.93
101562.042
101562.164
101562.298
101562.445
101562.605
101562.782
101562.974
101563.185
101563.415
101563.665
101563.936
101564.229
101564.545
101564.882
101565.241
101565.619
101566.013
101566.422
101566.839
101567.26
101567.678
101568.084
101568.47
101568.823
101569.129
101569.37
101569.525
101569.568
101569.493
101569.285
101568.914
101568.363
101567.547
101561.354
101561.355
101561.357
101561.36
101561.363
101561.368
101561.373
101561.38
101561.387
101561.395
101561.404
101561.414
101561.425
101561.437
101561.45
101561.464
101561.479
101561.496
101561.513
101561.532
101561.552
101561.574
101561.597
101561.621
101561.647
101561.675
101561.704
101561.735
101561.767
101561.802
101561.839
101561.879
101561.921
101561.965
101562.012
101562.062
101562.115
101562.173
101562.235
101562.301
101562.372
101562.448
101562.53
101562.619
101562.715
101562.821
101562.938
101563.065
101563.204
101563.356
101563.522
101563.703
101563.901
101564.119
101564.358
101564.619
101564.904
101565.215
101565.551
101565.915
101566.305
101566.722
101567.166
101567.633
101568.123
101568.63
101569.151
101569.679
101570.207
101570.727
101571.229
101571.701
101572.126
101572.486
101572.756
101572.915
101572.961
101572.861
101572.638
101572.045
101562.136
101562.134
101562.134
101562.134
101562.135
101562.137
101562.141
101562.145
101562.15
101562.157
101562.164
101562.173
101562.182
101562.193
101562.205
101562.218
101562.232
101562.248
101562.265
101562.283
101562.302
101562.323
101562.346
101562.37
101562.395
101562.423
101562.452
101562.483
101562.517
101562.552
101562.589
101562.628
101562.67
101562.716
101562.766
101562.818
101562.873
101562.934
101562.998
101563.068
101563.143
101563.226
101563.315
101563.413
101563.52
101563.634
101563.756
101563.89
101564.036
101564.195
101564.368
101564.557
101564.773
101565.018
101565.283
101565.571
101565.883
101566.22
101566.584
101566.98
101567.408
101567.868
101568.359
101568.88
101569.431
101570.007
101570.607
101571.223
101571.851
101572.483
101573.109
101573.718
101574.297
101574.829
101575.293
101575.662
101575.906
101576.005
101575.99
101575.577
101562.771
101562.767
101562.763
101562.76
101562.758
101562.758
101562.759
101562.76
101562.763
101562.767
101562.772
101562.778
101562.786
101562.794
101562.804
101562.815
101562.828
101562.842
101562.857
101562.874
101562.892
101562.912
101562.934
101562.957
101562.982
101563.009
101563.037
101563.067
101563.099
101563.132
101563.169
101563.211
101563.254
101563.299
101563.347
101563.398
101563.454
101563.514
101563.579
101563.648
101563.723
101563.804
101563.892
101563.988
101564.095
101564.212
101564.343
101564.487
101564.648
101564.829
101565.03