/*--------------------------------*- C++ -*----------------------------------*\
  =========                 |
  \\      /  F ield         | OpenFOAM: The Open Source CFD Toolbox
   \\    /   O peration     | Website:  https://openfoam.org
    \\  /    A nd           | Version:  8
     \\/     M anipulation  |
\*---------------------------------------------------------------------------*/
FoamFile
{
    version     2.0;
    format      ascii;
    class       volScalarField;
    location    "0.062";
    object      T;
}
// * * * * * * * * * * * * * * * * * * * * * * * * * * * * * * * * * * * * * //

dimensions      [0 0 0 1 0 0 0];

internalField   nonuniform List<scalar> 
42400
(
472.215287
470.628361
468.999456
467.327431
465.611189
463.849691
462.041975
460.187175
458.284543
456.333475
454.333545
452.284531
450.186455
448.039619
445.844651
443.602544
441.314703
438.982996
436.609796
434.19803
431.751225
429.273546
426.769835
424.245637
421.707225
419.161603
416.616507
414.080387
411.562368
409.072199
406.620184
404.217088
401.874027
399.602349
397.41349
395.318831
393.329529
391.456369
389.709606
388.098853
386.632924
385.319712
384.165992
383.177279
382.357699
381.709871
381.234862
380.932119
380.803093
380.834449
381.024871
381.36402
381.840373
382.437724
383.135639
383.90718
384.717243
385.531088
386.326574
387.10969
387.56917
387.647884
387.368205
386.575315
385.525636
384.129133
382.305781
379.889813
376.801743
372.866685
368.578714
363.8775
357.490986
351.160597
346.074885
339.952368
332.102209
325.469427
319.214968
315.102587
472.248556
470.728957
469.169271
467.568493
465.925667
464.239907
462.510412
460.736484
458.917557
457.053219
455.143243
453.187618
451.186588
449.140687
447.050782
444.918112
442.744339
440.531589
438.282498
436.000258
433.688661
431.352134
428.995777
426.625388
424.247482
421.869297
419.498791
417.144617
414.81609
412.523128
410.276178
408.086121
405.964153
403.92166
401.970068
400.120694
398.384616
396.772477
395.294265
393.959085
392.774922
391.748406
390.884534
390.186449
389.655213
389.289627
389.08592
389.037615
389.135006
389.365924
389.712854
390.15326
390.659075
391.200129
391.749828
392.301351
392.64253
392.697818
392.467105
391.721312
390.760634
389.503451
387.876994
385.754638
383.040184
379.692653
375.672706
371.032604
365.840373
359.843581
353.529648
347.569818
340.806222
333.4778
327.363164
321.894913
316.452366
310.984292
306.600026
302.814702
472.291645
470.859237
469.389172
467.880605
466.332752
464.744908
463.11646
461.446917
459.735923
457.983293
456.189035
454.353386
452.476846
450.560214
448.604627
446.611604
444.583082
442.521464
440.42966
438.311125
436.169898
434.010638
431.838651
429.659909
427.481065
425.30945
423.15306
421.020525
418.921065
416.864421
414.860779
412.920667
411.054851
409.274183
407.589418
406.011017
404.548941
403.21235
402.009298
400.946414
400.028622
399.25882
398.637514
398.162576
397.828797
397.628325
397.548901
397.571994
397.677673
397.841187
398.0386
398.253771
398.34073
398.24284
397.862937
397.122389
396.168467
394.96766
393.45259
391.538689
389.103375
386.103064
382.508588
378.297318
373.48233
368.122588
362.270276
356.011989
349.584253
342.886165
335.980261
329.638414
323.771489
317.975127
312.698301
308.429315
304.8406
302.022259
300.323498
300.034575
472.341321
471.009419
469.642646
468.240328
466.801865
465.326747
463.81457
462.265061
460.678097
459.053736
457.39224
455.694112
453.960125
452.191355
450.389223
448.55553
446.692491
444.802778
442.88955
440.956493
439.007844
437.048418
435.083624
433.119475
431.162585
429.220159
427.299961
425.41028
423.559862
421.757821
420.013539
418.336524
416.736254
415.221953
413.802357
412.485427
411.278049
410.185699
409.212072
408.358672
407.624517
407.005638
406.495051
406.08127
405.749153
405.48177
405.259661
405.065149
404.790833
404.387148
403.795449
402.943917
401.910453
400.670561
399.165031
397.329594
395.062583
392.307814
389.030328
385.205552
380.828839
375.900566
370.465105
364.592108
358.360641
351.887804
345.301988
338.681038
332.23788
326.124227
320.317582
315.02953
310.567953
306.845356
303.921433
301.469925
300.208213
299.94212
299.875796
299.854308
472.393863
471.168263
469.910721
468.620738
467.297896
465.941879
464.55249
463.129673
461.673533
460.184363
458.662673
457.109214
455.525012
453.911398
452.270038
450.602967
448.912619
447.201854
445.473988
443.732808
441.982598
440.228141
438.474724
436.728127
434.9946
433.280826
431.593863
429.94107
428.329996
426.768255
425.263361
423.822527
422.452433
421.158964
419.946909
418.819625
417.77864
416.823303
415.950556
415.154583
414.426507
413.754715
413.126319
412.494995
411.825033
411.076262
410.20279
409.153169
407.972693
406.616979
405.039065
403.184803
400.975725
398.358784
395.298264
391.766225
387.747255
383.238856
378.254909
372.814763
366.970122
360.793552
354.381364
347.853006
341.326444
334.919822
328.76782
322.978602
317.659987
312.960827
308.962664
305.686904
303.188025
301.325443
300.200479
299.957294
299.899126
299.877376
299.864344
299.863092
472.445132
471.323249
470.172271
468.991856
467.781753
466.541819
465.272039
463.972543
462.643627
461.285777
459.899693
458.486313
457.046835
455.582748
454.095853
452.588282
451.062525
449.52144
447.968267
446.406631
444.840543
443.27438
441.712865
440.161024
438.624132
437.107633
435.617035
434.157789
432.735124
431.353869
430.018232
428.731542
427.495972
426.312222
425.179196
424.093769
423.050361
422.04065
421.050606
420.059205
419.04119
417.967722
416.807165
415.559357
414.196143
412.684453
410.986455
409.05574
406.831043
404.275065
401.353329
398.03632
394.302633
390.140882
385.550917
380.544712
375.147906
369.392451
363.335521
357.055451
350.640482
344.188551
337.81202
331.644689
325.815825
320.427528
315.561203
311.309269
307.730787
304.876382
302.729036
301.294657
300.326913
299.989595
299.908081
299.888306
299.878394
299.868103
299.857192
299.84468
472.49053
471.460478
470.403839
469.320395
468.21002
467.072701
465.908546
464.717805
463.500888
462.258377
460.991052
459.699903
458.386149
457.051256
455.696945
454.325204
452.938292
451.538737
450.129325
448.713085
447.293255
445.873242
444.456556
443.046737
441.647255
440.261389
438.892076
437.541746
436.212115
434.903963
433.616873
432.348949
431.09659
429.854104
428.61342
427.362491
426.086335
424.768333
423.391246
421.936651
420.382507
418.702674
416.865441
414.829739
412.562048
410.029818
407.201289
404.048007
400.546399
396.679246
392.437154
387.819852
382.837396
377.510842
371.871988
365.960928
359.832449
353.562179
347.238251
340.959482
334.825395
328.93562
323.403186
318.34239
313.850903
309.993944
306.810032
304.305561
302.45974
301.205317
300.45309
300.040538
299.932257
299.903567
299.890265
299.8757
299.855013
299.839304
299.82761
299.82478
472.525223
471.565339
470.580765
469.571352
468.537042
467.477871
466.393984
465.285646
464.153253
462.997344
461.818609
460.617898
459.39623
458.154789
456.894929
455.618163
454.326148
453.020664
451.703579
450.376804
449.042237
447.701684
446.35677
445.008827
443.658761
442.306899
440.952814
439.595131
438.231325
436.857539
435.468396
434.056649
432.613067
431.126188
429.582166
427.966091
426.260376
424.443216
422.490646
420.378089
418.079611
415.568527
412.818203
409.802999
406.500017
402.890035
398.958669
394.697566
390.105506
385.189333
379.96494
374.457659
368.702618
362.744914
356.634933
350.44514
344.258396
338.166688
332.268183
326.664962
321.453097
316.719442
312.543658
308.992185
306.099978
303.866839
302.248567
301.160226
300.493922
300.139629
299.978826
299.934471
299.908694
299.877193
299.852677
299.834012
299.829804
299.827002
299.825976
299.82551
472.544677
471.624126
470.679916
469.711899
468.719994
467.704193
466.664558
465.601235
464.514449
463.404511
462.271811
461.11682
459.940086
458.742226
457.523901
456.285802
455.028612
453.75297
452.459421
451.14835
449.819903
448.473894
447.109683
445.726034
444.320974
442.891582
441.433725
439.941693
438.40809
436.824988
435.182766
433.470121
431.673877
429.778976
427.768609
425.624377
423.326512
420.854227
418.18622
415.301259
412.178807
408.800163
405.149283
401.213657
396.985275
392.461575
387.646348
382.550585
377.193254
371.601922
365.813333
359.87305
353.833465
347.759791
341.733051
335.842013
330.178498
324.837647
319.908861
315.476382
311.608309
308.347534
305.706463
303.670624
302.191495
301.189411
300.565145
300.20965
300.024005
299.934874
299.88518
299.853476
299.834093
299.830837
299.829213
299.829248
299.82841
299.826584
299.826315
299.826091
472.545537
471.62669
470.684141
469.717659
468.727055
467.712177
466.672911
465.609177
464.520924
463.408123
462.270757
461.108798
459.922181
458.710782
457.474396
456.212694
454.925176
453.611107
452.269433
450.898694
449.496896
448.061371
446.588592
445.072759
443.508021
441.888463
440.207166
438.456414
436.627542
434.709503
432.689907
430.555073
428.290115
425.879116
423.305368
420.551698
417.600873
414.436055
411.04155
407.403516
403.510602
399.354727
394.931896
390.243025
385.294775
380.100373
374.68039
369.063558
363.287451
357.399034
351.454101
345.513886
339.652986
333.957722
328.518178
323.425481
318.761334
314.598462
310.987704
307.962673
305.52757
303.653588
302.278846
301.323234
300.699209
300.314325
300.09146
299.961342
299.890247
299.848477
299.835223
299.832132
299.831349
299.831079
299.830163
299.829127
299.828958
299.828562
299.828286
299.828125
472.528086
471.573926
470.59507
469.591183
468.561937
467.506994
466.426011
465.318617
464.184411
463.022946
461.833716
460.616138
459.368846
458.089857
456.777435
455.429799
454.044799
452.619853
451.151885
449.637269
448.071765
446.450519
444.768048
443.019455
441.198165
439.29579
437.302942
435.209264
433.003431
430.673188
428.205456
425.586494
422.802112
419.837949
416.6798
413.31409
409.728465
405.912264
401.85715
397.557796
393.012622
388.224585
383.202005
377.959421
372.518425
366.908465
361.167601
355.343123
349.491785
343.679489
337.977182
332.464844
327.225739
322.345351
317.901822
313.957088
310.553261
307.710567
305.420823
303.650575
302.341349
301.416811
300.790913
300.383801
300.129862
299.969942
299.879986
299.842964
299.833025
299.830155
299.830437
299.830624
299.830042
299.829683
299.828239
299.826335
299.826613
299.827802
299.828497
299.8284
472.491258
471.462585
470.407136
469.324395
468.213802
467.074728
465.90647
464.707988
463.477674
462.214148
460.915785
459.580672
458.207236
456.794006
455.338656
453.838199
452.289204
450.68775
449.029374
447.309016
445.520947
443.658764
441.715344
439.682771
437.552338
435.314536
432.959089
430.47502
427.850755
425.074261
422.133241
419.015358
415.70855
412.201487
408.483946
404.547313
400.38516
395.99389
391.373457
386.528156
381.467462
376.206913
370.768979
365.183866
359.49016
353.735341
347.97592
342.276885
336.710444
331.353371
326.284587
321.580472
317.309301
313.525527
310.26335
307.536751
305.334968
303.623509
302.346595
301.432206
300.806371
300.396532
300.137588
299.97937
299.885901
299.851733
299.841395
299.837535
299.832209
299.829856
299.828828
299.827724
299.826303
299.826038
299.826828
299.82683
299.826376
299.826779
299.827609
299.828407
472.436314
471.296479
470.126772
468.926424
467.694559
466.430162
465.131558
463.797413
462.426581
461.017242
459.567306
458.074382
456.535742
454.948281
453.308468
451.612302
449.855263
448.032275
446.137685
444.165218
442.107932
439.95823
437.707852
435.34789
432.868828
430.260596
427.512669
424.614188
421.554126
418.321495
414.905685
411.296768
407.485908
403.465828
399.231372
394.780143
390.113218
385.235944
380.158792
374.898238
369.477629
363.927952
358.288402
352.606621
346.938491
341.347784
335.904464
330.682027
325.753898
321.189933
317.051699
313.387997
310.229683
307.581583
305.429104
303.737441
302.455849
301.523417
300.873802
300.440616
300.165583
300.002715
299.913647
299.87118
299.855323
299.847884
299.842085
299.837751
299.8329
299.827787
299.826065
299.826033
299.826142
299.825982
299.826533
299.827373
299.827217
299.827058
299.826806
299.828103
472.36749
471.088439
469.775719
468.428322
467.045076
465.624473
464.16515
462.665317
461.122918
459.535593
457.900639
456.214982
454.475131
452.677146
450.816607
448.888576
446.887567
444.807518
442.641784
440.383126
438.023714
435.555149
432.968499
430.254361
427.402946
424.4042
421.247958
417.924164
414.423147
410.735934
406.854641
402.772944
398.486627
393.994217
389.2977
384.403313
379.322381
374.072184
368.676773
363.167683
357.584413
351.974559
346.393426
340.902934
335.569878
330.46447
325.655833
321.207947
317.174108
313.596055
310.497938
307.887087
305.750595
304.054387
302.747782
301.774014
301.075067
300.594203
300.279103
300.083596
299.969005
299.907174
299.877409
299.862757
299.851617
299.843643
299.837279
299.834136
299.831532
299.829389
299.827506
299.827043
299.827313
299.827249
299.82705
299.827499
299.828072
299.827762
299.825474
299.824521
472.287971
470.84809
469.370206
467.853084
466.295266
464.695074
463.050709
461.359972
459.620337
457.828915
455.982415
454.077119
452.108841
450.072896
447.964078
445.776639
443.504274
441.140119
438.676754
436.10623
433.420105
430.609504
427.665206
424.577761
421.337642
417.935469
414.362254
410.609726
406.670713
402.539608
398.212908
393.689842
388.973069
384.06945
378.990859
373.754991
368.386123
362.91574
357.382924
351.834395
346.324062
340.911942
335.662291
330.640864
325.911536
321.534573
317.560729
314.024902
310.947223
308.333032
306.170254
304.432576
303.07764
302.052867
301.301936
300.769651
300.406063
300.167931
300.019388
299.930327
299.880226
299.85801
299.84684
299.840167
299.838151
299.836732
299.835903
299.833704
299.83214
299.831595
299.830538
299.828416
299.827626
299.82796
299.827463
299.827093
299.828002
299.828992
299.82632
299.821601
472.199768
470.581505
468.920465
467.215187
465.463955
463.664887
461.815765
459.913984
457.956557
455.940085
453.860714
451.714113
449.495446
447.199347
444.819914
442.350698
439.784714
437.114464
434.331973
431.42885
428.396375
425.225615
421.907582
418.433433
414.79473
410.983751
406.993867
402.819994
398.459125
393.910932
389.178444
384.268776
379.193899
373.97139
368.625124
363.185816
357.691328
352.18663
346.723304
341.358493
336.153226
331.170041
326.469946
322.108892
318.133783
314.579781
311.467174
308.803551
306.580593
304.774813
303.349718
302.259144
301.451609
300.874539
300.477328
300.214273
300.047069
299.94538
299.886472
299.858384
299.851885
299.846288
299.843123
299.840424
299.838753
299.837025
299.835462
299.833743
299.832335
299.831719
299.830647
299.827483
299.82393
299.822779
299.822826
299.822633
299.824264
299.829395
299.829801
299.828594
472.104195
470.29265
468.433188
466.524179
464.563704
462.549513
460.478996
458.349143
456.156517
453.897215
451.566847
449.160506
446.672758
444.097634
441.428636
438.658756
435.780516
432.786025
429.667063
426.415197
423.021933
419.478914
415.778172
411.91243
407.875468
403.662565
399.271002
394.700644
389.95458
385.039822
379.968012
374.75613
369.427116
364.010363
358.541975
353.064693
347.627402
342.284116
337.09241
332.11133
327.398857
323.008942
318.988471
315.374752
312.191901
309.44779
307.137254
305.240376
303.72589
302.552928
301.673372
301.035943
300.590609
300.291669
300.099921
299.983322
299.916852
299.881693
299.865672
299.857712
299.851655
299.846602
299.842478
299.838853
299.836346
299.834221
299.832082
299.829918
299.828217
299.827637
299.827204
299.825184
299.823403
299.821563
299.820787
299.82036
299.821524
299.824192
299.827483
299.830676
472.002367
469.984898
467.914054
465.787991
463.604525
461.361102
459.054757
456.682086
454.239211
451.721757
449.124831
446.443014
443.670365
440.800433
437.826293
434.740601
431.535676
428.203607
424.736398
421.126167
417.365378
413.447139
409.365551
405.116129
400.696286
396.105882
391.347835
386.428775
381.359714
376.156702
370.841417
365.441619
359.991399
354.53113
349.107031
343.770268
338.575531
333.579087
328.836375
324.399373
320.313943
316.617199
313.335254
310.48185
308.056631
306.042968
304.410861
303.121376
302.130292
301.391448
300.859159
300.489317
300.241607
300.081713
299.982355
299.923125
299.889823
299.870757
299.857747
299.847883
299.841287
299.838153
299.835875
299.833866
299.831934
299.830057
299.827915
299.825088
299.822516
299.821262
299.821832
299.822598
299.82294
299.823847
299.824822
299.824785
299.82467
299.8215
299.820889
299.822633
471.89522
469.661074
467.367812
465.013377
462.595333
460.110828
457.55656
454.928752
452.223124
449.434885
446.558724
443.588825
440.518889
437.342191
434.051646
430.639911
427.099527
423.423098
419.603515
415.634236
411.509618
407.225312
402.778725
398.16953
393.40025
388.476866
383.409451
378.212791
372.906939
367.517659
362.07668
356.621691
351.196002
345.84779
340.62889
335.593093
330.793991
326.282456
322.103883
318.295588
314.88502
311.886741
309.303691
307.126413
305.331906
303.887059
302.752374
301.88455
301.238588
300.770883
300.44179
300.217117
300.068346
299.972666
299.912785
299.87478
299.855017
299.844724
299.838833
299.835643
299.833324
299.829922
299.827101
299.824322
299.821423
299.818856
299.816524
299.815947
299.816169
299.816916
299.818603
299.820831
299.8224
299.824236
299.826819
299.828357
299.830937
299.831461
299.819908
299.817194
471.783865
469.32454
466.800147
464.20843
461.546713
458.811871
456.000302
453.107906
450.130078
447.06171
443.897208
440.630533
437.255263
433.764684
430.151912
426.410059
422.532441
418.512833
414.345779
410.02696
405.553618
400.925041
396.143096
391.212808
386.142952
380.946641
375.641863
370.251924
364.80572
359.337798
353.888108
348.501405
343.226264
338.113665
333.215129
328.580505
324.25559
320.279696
316.683181
313.485353
310.693775
308.305305
306.305051
304.668034
303.360793
302.343008
301.57064
301.000986
300.593727
300.312044
300.124122
300.003434
299.929363
299.885835
299.862464
299.854902
299.847042
299.840731
299.837493
299.836185
299.834299
299.831298
299.827492
299.823597
299.820231
299.817431
299.814735
299.813653
299.813197
299.814489
299.817632
299.820206
299.822337
299.823696
299.824799
299.824959
299.825114
299.829629
299.833133
299.827365
472.584516
471.744417
470.882395
469.998013
469.09082
468.160345
467.2061
466.227576
465.22424
464.195534
463.140868
462.059621
460.951131
459.814696
458.649565
457.454929
456.229923
454.973614
453.684999
452.363003
451.00647
449.614162
448.184757
446.716851
445.208955
443.659502
442.06685
440.429296
438.745085
437.012443
435.229633
433.395012
431.50602
429.558809
427.551272
425.481226
423.346426
421.148557
418.888011
416.563773
414.175481
411.723433
409.208613
406.632707
403.997999
401.307252
398.563633
395.770644
392.932045
390.0517
387.133386
384.18056
381.19591
378.180818
375.135446
372.059404
368.955424
365.837458
362.724378
359.641823
356.626892
353.699792
350.896129
348.261563
345.837477
343.664505
341.739245
340.033762
338.491378
337.034273
335.574113
334.086348
332.527828
330.902225
329.249746
327.62163
326.039583
324.557779
323.279575
322.304779
472.582979
471.739726
470.874378
469.986432
469.07536
468.140617
467.181628
466.197794
465.188485
464.153039
463.090757
462.000901
460.882686
459.735278
458.557788
457.349267
456.1087
454.835003
453.527017
452.183504
450.803145
449.384537
447.926196
446.426553
444.883962
443.296705
441.663016
439.981098
438.248698
436.462819
434.621139
432.721254
430.761652
428.742111
426.660851
424.516352
422.30744
420.033377
417.693818
415.288835
412.819002
410.285475
407.690045
405.035179
402.324031
399.560436
396.748865
393.894361
391.002409
388.078769
385.129237
382.159351
379.174012
376.177088
373.171054
370.156769
367.136508
364.125019
361.139693
358.201244
355.334322
352.566401
349.928732
347.454454
345.1741
343.110271
341.269092
339.636018
338.173613
336.824266
335.516456
334.18653
332.795816
331.340339
329.829904
328.29614
326.784688
325.354759
324.086609
323.070202
472.578889
471.72732
470.853348
469.956398
469.035867
468.091126
467.121517
466.126348
465.104893
464.056386
462.980024
461.874955
460.740279
459.575043
458.378234
457.148777
455.885529
454.587274
453.252723
451.880506
450.469174
449.017199
447.522973
445.984819
444.400884
442.768936
441.086782
439.352258
437.563543
435.719449
433.818068
431.857537
429.836142
427.752357
425.604844
423.392511
421.114572
418.770612
416.360646
413.885179
411.34527
408.742588
406.079466
403.358942
400.584789
397.76152
394.894378
391.98928
389.052735
386.091704
383.113407
380.125059
377.133524
374.144905
371.164123
368.19454
365.237885
362.310931
359.431808
356.620085
353.896898
351.285054
348.808835
346.492667
344.358436
342.421675
340.687092
339.144869
337.768008
336.513514
335.327623
334.155992
333.002359
331.720077
330.341625
328.925284
327.508439
326.139886
324.885185
323.819972
472.57206
471.706639
470.818363
469.906584
468.970626
468.009779
467.023301
466.010412
464.970294
463.902088
462.804893
461.677757
460.519682
459.329611
458.106432
456.84897
455.555982
454.226158
452.858116
451.4504
450.001479
448.50965
446.973104
445.390027
443.758631
442.077371
440.344538
438.558292
436.716822
434.818372
432.861253
430.843878
428.764799
426.622754
424.416707
422.145899
419.809902
417.408672
414.942606
412.412597
409.820091
407.167138
404.45644
401.69139
398.876102
396.015421
393.114925
390.180888
387.220227
384.2404
381.249265
378.254883
375.265255
372.287977
369.329859
366.396445
363.491262
360.63042
357.834561
355.12461
352.521401
350.045179
347.715106
345.548482
343.55921
341.755281
340.13547
338.68689
337.394543
336.225764
335.138196
334.090718
333.068471
331.908841
330.745683
329.512478
328.225355
326.930697
325.691146
324.578826
472.562277
471.677034
470.768334
469.83546
468.877663
467.894159
466.884128
465.84671
464.781006
463.686078
462.56094
461.404564
460.215872
458.993735
457.736969
456.444339
455.114549
453.746244
452.338008
450.888367
449.395787
447.858778
446.275831
444.645327
442.96563
441.235097
439.452092
437.614999
435.722248
433.772335
431.763851
429.695516
427.566209
425.375009
423.121234
420.804487
418.424702
415.982192
413.477698
410.912438
408.288157
405.607172
402.872413
400.08746
397.256567
394.384681
391.477432
388.541122
385.582669
382.609535
379.629611
376.651067
373.682143
370.730891
367.804863
364.910768
362.054032
359.246042
356.508976
353.864976
351.335302
348.939359
346.693839
344.612292
342.705441
340.982905
339.461186
338.191058
337.019808
335.955518
334.97408
334.004361
333.138509
332.256929
331.180248
330.080325
328.936759
327.757865
326.577844
325.450308
472.549276
471.637706
470.701916
469.741126
468.754519
467.741244
466.700413
465.631098
464.532336
463.403125
462.242426
461.049162
459.82222
458.56045
457.262666
455.927643
454.55412
453.140803
451.686367
450.189458
448.648697
447.062686
445.430017
443.749276
442.019054
440.237962
438.404643
436.517788
434.576158
432.5786
430.524076
428.411685
426.240695
424.010572
421.721015
419.371996
416.963793
414.497036
411.972747
409.392384
406.757883
404.0717
401.336854
398.556956
395.73624
392.879582
389.992503
387.081155
384.152293
381.213203
378.271622
375.335606
372.413375
369.51312
366.64279
363.80991
361.021444
358.283616
355.616653
353.044323
350.590157
348.27676
346.125699
344.155675
342.383215
340.822507
339.390993
338.092179
336.922264
335.800888
334.839004
334.006697
333.10249
332.260023
331.410871
330.505472
329.542481
328.524569
327.467105
326.402366
472.532748
471.587726
470.61755
469.621382
468.598349
467.547549
466.468042
465.358859
464.218997
463.047425
461.843084
460.604889
459.331732
458.022484
456.675999
455.291111
453.866647
452.401419
450.89424
449.343918
447.74927
446.109125
444.42233
442.687765
440.904343
439.071031
437.186854
435.250912
433.262395
431.220595
429.124927
426.974946
424.770368
422.511092
420.197225
417.829108
415.407349
412.932851
410.406848
407.83094
405.207132
402.537874
399.826096
397.075252
394.289349
391.472976
388.631324
385.770184
382.895936
380.015506
377.136295
374.266086
371.412907
368.584888
365.790089
363.036364
360.331319
357.682378
355.098248
352.60286
350.221615
347.985992
345.892179
344.010257
342.297854
340.733408
339.328061
338.065626
336.935696
335.941092
335.033644
334.190195
333.409305
332.531635
331.713738
330.906608
330.079396
329.214021
328.306689
327.366859
472.512387
471.526173
470.513688
469.474047
468.406336
467.309612
466.182904
465.025215
463.835524
462.612792
461.355966
460.063982
458.735768
457.370255
455.966378
454.523078
453.039317
451.514074
449.946358
448.335211
446.679719
444.979014
443.23229
441.438802
439.597882
437.708944
435.771494
433.785135
431.749582
429.664663
427.530334
425.346688
423.113963
420.832554
418.503027
416.126134
413.702828
411.234283
408.72191
406.167393
403.572718
400.940204
398.272544
395.572845
392.844664
390.09205
387.319578
384.532367
381.73609
378.93696
376.141687
373.3574
370.591533
367.851673
365.145363
362.479943
359.862782
357.302947
354.831721
352.428276
350.11522
347.90918
345.852493
343.930717
342.177249
340.597893
339.190502
337.938178
336.837745
335.85037
334.955505
334.122612
333.35839
332.648645
331.955133
331.266126
330.566128
329.841258
329.075726
328.283295
472.487933
471.452257
470.388994
469.29722
468.175988
467.024328
465.841247
464.625736
463.376775
462.093334
460.774386
459.418913
458.025908
456.59439
455.123409
453.612052
452.059455
450.46481
448.827373
447.146475
445.421526
443.652029
441.837587
439.977907
438.072812
436.122243
434.126267
432.08508
429.999007
427.868505
425.694163
423.476698
421.216962
418.915931
416.574708
414.194526
411.776743
409.322865
406.834528
404.313534
401.761842
399.181615
396.575245
393.945398
391.295054
388.627551
385.946633
383.256489
380.561783
377.867665
375.179762
372.50413
369.847167
367.215438
364.61532
362.052414
359.555374
357.126751
354.775841
352.485229
350.264553
348.133991
346.114231
344.221029
342.468949
340.868016
339.421085
338.125077
336.967966
335.943091
335.035818
334.230605
333.505249
332.840962
332.215492
331.609966
331.00791
330.393884
329.732207
329.068807
472.459263
471.365609
470.242839
469.089998
467.906111
466.690185
465.441218
464.158197
462.84011
461.485953
460.09474
458.665512
457.197345
455.689366
454.140762
452.550789
450.918787
449.244187
447.526526
445.765458
443.960762
442.112352
440.220288
438.284781
436.306201
434.285079
432.22211
430.118152
427.974221
425.791486
423.571257
421.314977
419.024204
416.700601
414.345915
411.961963
409.550619
407.113808
404.653486
402.171663
399.670376
397.151716
394.617839
392.071005
389.513626
386.948312
384.377929
381.805648
379.234999
376.669911
374.114727
371.574205
369.053472
366.55798
364.093698
361.668741
359.30357
357.005063
354.779061
352.620461
350.523101
348.49739
346.55492
344.71345
342.987925
341.389798
339.926125
338.599227
337.406484
336.34276
335.399127
334.56393
333.82191
333.156537
332.549616
331.982972
331.439704
330.893994
330.306324
329.738737
472.426516
471.266644
470.07592
468.853354
467.597947
466.308687
464.98456
463.624557
462.227679
460.792951
459.319432
457.80623
456.252512
454.65752
453.020587
451.341147
449.618753
447.853092
446.043995
444.191456
442.29564
440.356898
438.375774
436.353014
434.289571
432.186609
430.045497
427.867809
425.655313
423.409956
421.133845
418.829229
416.498467
414.144006
411.76834
409.373989
406.963461
404.539225
402.10368
399.659155
397.207881
394.752011
392.293598
389.834634
387.377081
384.922935
382.474281
380.033359
377.602633
375.184859
372.783141
370.400977
368.042286
365.71141
363.412954
361.150806
358.920628
356.757775
354.664625
352.646571
350.702219
348.817695
347.002735
345.266586
343.616462
342.065616
340.623899
339.297564
338.089144
336.997724
336.019091
335.146173
334.369294
333.676792
333.055136
332.48947
331.964929
331.462272
330.916723
330.401871
472.390224
471.156968
469.890937
468.591104
467.256438
465.885909
464.47849
463.033169
461.54896
460.024915
458.460138
456.8538
455.205158
453.513567
451.778505
449.999581
448.176564
446.309393
444.398195
442.443305
440.44528
438.404911
436.323234
434.201542
432.041386
429.844578
427.613188
425.349532
423.056163
420.735844
418.391525
416.026313
413.643428
411.246169
408.837855
406.421788
404.001196
401.579194
399.158741
396.742603
394.333322
391.93322
389.544385
387.168677
384.807761
382.463158
380.136312
377.828659
375.54171
373.27713
371.036817
368.822975
366.638177
364.485417
362.368156
360.29038
358.25675
356.256998
354.300242
352.412868
350.605839
348.875162
347.21915
345.637836
344.124454
342.688684
341.338059
340.077329
338.909683
337.838714
336.864745
335.985289
335.195455
334.488329
333.855123
333.285214
332.766775
332.285711
331.795649
331.323541
472.351418
471.039692
469.693128
468.310657
466.891211
465.433729
463.937167
462.400505
460.822761
459.203004
457.540376
455.834105
454.083522
452.288091
450.44742
448.561287
446.629662
444.652725
442.630891
440.564828
438.455474
436.304055
434.112095
431.881431
429.614214
427.312909
424.980291
422.619435
420.23369
417.826655
415.402141
412.96413
410.516725
408.064091
405.610404
403.159778
400.716208
398.2835
395.865224
393.464636
391.084653
388.727822
386.39633
384.091983
381.816251
379.570322
377.355157
375.171574
373.020332
370.902228
368.818166
366.769226
364.756708
362.782173
360.84751
358.954948
357.107043
355.306644
353.558866
351.855157
350.198811
348.599338
347.086207
345.656026
344.303631
343.014339
341.794549
340.649404
339.58259
338.596583
337.692442
336.869793
336.126983
335.461248
334.868832
334.344876
333.883373
333.476854
333.106509
332.773883
472.3117
470.919659
469.49066
468.023584
466.517318
464.970767
463.382855
461.752548
460.078857
458.360863
456.597731
454.788733
452.93327
451.030893
449.081333
447.084518
445.040606
442.950006
440.813405
438.631789
436.406467
434.139087
431.831653
429.486538
427.106483
424.694601
422.254367
419.7896
417.304438
414.803304
412.290865
409.771975
407.251619
404.734838
402.226658
399.732003
397.255619
394.801984
392.375263
389.979203
387.617095
385.291728
383.005385
380.759826
378.556322
376.395709
374.278468
372.204822
370.17484
368.188564
366.246122