/*--------------------------------*- C++ -*----------------------------------*\
  =========                 |
  \\      /  F ield         | OpenFOAM: The Open Source CFD Toolbox
   \\    /   O peration     | Website:  https://openfoam.org
    \\  /    A nd           | Version:  8
     \\/     M anipulation  |
\*---------------------------------------------------------------------------*/
FoamFile
{
    version     2.0;
    format      ascii;
    class       volScalarField;
    location    "0.055";
    object      p;
}
// * * * * * * * * * * * * * * * * * * * * * * * * * * * * * * * * * * * * * //

dimensions      [1 -1 -2 0 0 0 0];

internalField   nonuniform List<scalar> 
42400
(
101508.438
101508.426
101508.413
101508.402
101508.392
101508.384
101508.376
101508.37
101508.366
101508.363
101508.361
101508.36
101508.361
101508.364
101508.368
101508.373
101508.38
101508.389
101508.399
101508.41
101508.424
101508.438
101508.455
101508.472
101508.492
101508.513
101508.535
101508.559
101508.585
101508.612
101508.641
101508.671
101508.704
101508.738
101508.774
101508.812
101508.852
101508.902
101508.967
101509.037
101509.093
101509.135
101509.178
101509.226
101509.289
101509.371
101509.459
101509.555
101509.658
101509.767
101509.882
101510.018
101510.174
101510.355
101510.536
101510.715
101510.931
101511.181
101511.461
101511.762
101512.09
101512.45
101512.849
101513.288
101513.76
101514.253
101514.768
101515.411
101515.912
101516.231
101517.32
101518.426
101516.608
101516.807
101520.835
101522.59
101522.652
101522.35
101520.665
101519.403
101507.893
101507.884
101507.874
101507.865
101507.858
101507.852
101507.846
101507.842
101507.839
101507.837
101507.837
101507.838
101507.84
101507.843
101507.848
101507.854
101507.861
101507.87
101507.88
101507.892
101507.904
101507.919
101507.934
101507.951
101507.97
101507.989
101508.01
101508.032
101508.056
101508.081
101508.107
101508.135
101508.163
101508.193
101508.23
101508.276
101508.327
101508.365
101508.389
101508.414
101508.452
101508.502
101508.557
101508.614
101508.677
101508.742
101508.807
101508.887
101508.988
101509.105
101509.212
101509.307
101509.431
101509.583
101509.757
101509.944
101510.15
101510.382
101510.642
101510.939
101511.279
101511.658
101512.072
101512.529
101513.049
101513.626
101514.199
101514.97
101515.819
101516.187
101517.102
101518.527
101518.813
101518.369
101518.009
101522.386
101527.298
101525.836
101529.091
101532.869
101507.187
101507.18
101507.173
101507.167
101507.161
101507.157
101507.154
101507.152
101507.15
101507.15
101507.151
101507.154
101507.157
101507.162
101507.167
101507.175
101507.183
101507.193
101507.204
101507.217
101507.23
101507.246
101507.262
101507.28
101507.299
101507.319
101507.341
101507.364
101507.387
101507.412
101507.44
101507.473
101507.509
101507.549
101507.581
101507.604
101507.626
101507.658
101507.699
101507.742
101507.787
101507.835
101507.884
101507.93
101507.992
101508.079
101508.163
101508.217
101508.278
101508.371
101508.483
101508.601
101508.728
101508.871
101509.032
101509.219
101509.438
101509.688
101509.972
101510.292
101510.657
101511.079
101511.56
101512.104
101512.718
101513.444
101514.162
101515.066
101516.196
101517.195
101518.297
101519.597
101520.495
101521.522
101524.733
101527.873
101528.59
101530.258
101534.38
101537.467
101506.348
101506.343
101506.338
101506.333
101506.33
101506.327
101506.325
101506.325
101506.325
101506.327
101506.329
101506.333
101506.339
101506.345
101506.353
101506.362
101506.373
101506.385
101506.398
101506.413
101506.43
101506.448
101506.467
101506.488
101506.51
101506.533
101506.558
101506.586
101506.616
101506.65
101506.681
101506.709
101506.737
101506.765
101506.8
101506.84
101506.882
101506.925
101506.97
101507.015
101507.056
101507.111
101507.187
101507.248
101507.289
101507.348
101507.426
101507.511
101507.597
101507.69
101507.794
101507.913
101508.051
101508.211
101508.393
101508.601
101508.843
101509.126
101509.457
101509.843
101510.293
101510.817
101511.408
101512.088
101512.824
101513.704
101514.598
101515.653
101516.662
101517.926
101520.085
101522.922
101525.441
101527.401
101528.451
101529.39
101532.078
101534.875
101536.884
101538.649
101505.394
101505.389
101505.384
101505.381
101505.378
101505.377
101505.376
101505.376
101505.378
101505.381
101505.385
101505.391
101505.398
101505.406
101505.416
101505.428
101505.441
101505.456
101505.473
101505.491
101505.511
101505.531
101505.554
101505.578
101505.606
101505.635
101505.666
101505.698
101505.731
101505.765
101505.803
101505.844
101505.886
101505.93
101505.974
101506.021
101506.067
101506.111
101506.165
101506.238
101506.296
101506.336
101506.393
101506.465
101506.537
101506.611
101506.69
101506.778
101506.878
101506.989
101507.114
101507.255
101507.417
101507.606
101507.83
101508.094
101508.403
101508.768
101509.197
101509.694
101510.275
101510.961
101511.723
101512.606
101513.55
101514.568
101515.653
101517.064
101519.939
101522.619
101523.798
101524.347
101525.895
101528.224
101530.182
101531.888
101533.454
101535.849
101538.226
101539.986
101504.312
101504.307
101504.303
101504.3
101504.297
101504.296
101504.297
101504.298
101504.301
101504.305
101504.31
101504.318
101504.327
101504.338
101504.351
101504.365
101504.381
101504.398
101504.417
101504.439
101504.465
101504.493
101504.524
101504.556
101504.59
101504.627
101504.665
101504.706
101504.748
101504.792
101504.838
101504.886
101504.936
101504.987
101505.035
101505.092
101505.166
101505.227
101505.271
101505.332
101505.405
101505.476
101505.549
101505.626
101505.71
101505.801
101505.9
101506.009
101506.131
101506.27
101506.431
101506.62
101506.841
101507.102
101507.409
101507.77
101508.192
101508.685
101509.265
101509.936
101510.72
101511.632
101512.637
101513.8
101515.146
101516.44
101518.787
101521.257
101521.987
101522.876
101524.725
101526.538
101527.916
101529.477
101531.163
101532.865
101535.348
101537.25
101538.508
101539.899
101503.094
101503.089
101503.084
101503.081
101503.079
101503.079
101503.08
101503.082
101503.086
101503.092
101503.099
101503.108
101503.118
101503.131
101503.146
101503.164
101503.185
101503.209
101503.236
101503.264
101503.295
101503.328
101503.363
101503.401
101503.441
101503.484
101503.529
101503.577
101503.628
101503.68
101503.735
101503.787
101503.848
101503.924
101503.988
101504.039
101504.106
101504.182
101504.258
101504.334
101504.415
101504.5
101504.59
101504.687
101504.793
101504.909
101505.04
101505.189
101505.359
101505.557
101505.788
101506.059
101506.375
101506.745
101507.175
101507.672
101508.25
101508.915
101509.697
101510.591
101511.672
101512.811
101513.855
101515.05
101517.293
101519.428
101520.74
101521.737
101522.827
101524.374
101526.442
101528.539
101530.007
101531.096
101532.643
101534.635
101536.264
101538.484
101540.742
101542.423
101501.7
101501.695
101501.691
101501.689
101501.688
101501.688
101501.69
101501.694
101501.7
101501.708
101501.718
101501.731
101501.746
101501.764
101501.784
101501.806
101501.831
101501.859
101501.889
101501.923
101501.959
101501.998
101502.04
101502.085
101502.132
101502.183
101502.237
101502.292
101502.348
101502.41
101502.486
101502.553
101502.61
101502.68
101502.76
101502.839
101502.919
101503.003
101503.091
101503.185
101503.284
101503.391
101503.508
101503.637
101503.781
101503.944
101504.13
101504.345
101504.596
101504.887
101505.227
101505.619
101506.069
101506.583
101507.165
101507.809
101508.522
101509.275
101510.034
101510.753
101512.037
101514.231
101516.436
101518.265
101519.108
101520.048
101521.494
101523.076
101524.907
101526.003
101527.248
101528.922
101530.968
101532.944
101534.356
101536.528
101538.757
101540.287
101542.263
101544.181
101500.113
101500.109
101500.106
101500.105
101500.105
101500.108
101500.112
101500.119
101500.128
101500.139
101500.153
101500.17
101500.188
101500.21
101500.234
101500.261
101500.292
101500.325
101500.362
101500.401
101500.444
101500.49
101500.54
101500.592
101500.647
101500.703
101500.766
101500.84
101500.908
101500.969
101501.041
101501.123
101501.203
101501.287
101501.374
101501.465
101501.561
101501.662
101501.771
101501.888
101502.015
101502.156
101502.313
101502.49
101502.693
101502.927
101503.198
101503.515
101503.884
101504.312
101504.807
101505.378
101506.033
101506.786
101507.647
101508.623
101509.729
101511.028
101512.343
101513.983
101515.265
101516.023
101516.862
101517.856
101519.185
101520.761
101522.495
101523.957
101525.154
101526.943
101528.732
101530.246
101531.731
101533.558
101535.524
101537.554
101539.436
101541.067
101542.985
101544.857
101498.298
101498.296
101498.296
101498.297
101498.301
101498.307
101498.315
101498.326
101498.338
101498.354
101498.372
101498.394
101498.418
101498.445
101498.476
101498.51
101498.547
101498.588
101498.632
101498.679
101498.73
101498.784
101498.84
101498.901
101498.974
101499.042
101499.105
101499.179
101499.261
101499.343
101499.429
101499.518
101499.611
101499.709
101499.812
101499.922
101500.039
101500.166
101500.303
101500.455
101500.623
101500.814
101501.03
101501.279
101501.565
101501.898
101502.284
101502.731
101503.246
101503.835
101504.507
101505.271
101506.129
101507.084
101508.129
101509.271
101510.471
101511.709
101513.104
101514.353
101515.843
101517.333
101518.635
101519.822
101520.904
101522.24
101523.774
101525.211
101527.035
101528.427
101529.69
101531.717
101533.737
101535.925
101537.759
101539.264
101541.103
101542.759
101544.539
101546.644
101496.229
101496.23
101496.234
101496.239
101496.247
101496.257
101496.27
101496.286
101496.305
101496.327
101496.351
101496.38
101496.411
101496.446
101496.485
101496.527
101496.573
101496.623
101496.675
101496.732
101496.793
101496.864
101496.932
101496.997
101497.073
101497.156
101497.239
101497.327
101497.418
101497.514
101497.615
101497.721
101497.833
101497.952
101498.079
101498.216
101498.366
101498.53
101498.713
101498.918
101499.15
101499.414
101499.716
101500.062
101500.459
101500.915
101501.434
101502.019
101502.675
101503.406
101504.224
101505.147
101506.207
101507.325
101508.519
101509.78
101511.131
101512.525
101513.998
101515.264
101516.094
101517.122
101518.951
101520.596
101522.1
101523.408
101524.676
101526.668
101528.876
101530.582
101532.365
101533.951
101535.501
101537.397
101539.181
101540.523
101542.205
101544.93
101547.378
101549.166
101493.871
101493.877
101493.886
101493.897
101493.911
101493.928
101493.948
101493.971
101493.997
101494.027
101494.06
101494.097
101494.138
101494.183
101494.231
101494.283
101494.34
101494.405
101494.47
101494.535
101494.608
101494.686
101494.77
101494.856
101494.946
101495.04
101495.14
101495.244
101495.354
101495.47
101495.592
101495.723
101495.864
101496.016
101496.183
101496.366
101496.569
101496.798
101497.056
101497.348
101497.681
101498.06
101498.492
101498.983
101499.538
101500.16
101500.846
101501.592
101502.397
101503.233
101504.05
101504.829
101505.992
101507.706
101509.349
101510.981
101512.482
101513.772
101515.172
101516.993
101518.03
101519.092
101520.648
101521.855
101522.915
101524.261
101525.612
101527.384
101529.693
101531.473
101532.906
101534.336
101535.958
101537.933
101539.916
101542.292
101544.441
101546.099
101548.099
101550.382
101491.19
101491.203
101491.219
101491.237
101491.259
101491.284
101491.312
101491.344
101491.38
101491.42
101491.463
101491.511
101491.563
101491.62
101491.683
101491.749
101491.816
101491.89
101491.97
101492.054
101492.142
101492.234
101492.332
101492.434
101492.542
101492.656
101492.775
101492.902
101493.037
101493.181
101493.336
101493.505
101493.689
101493.893
101494.119
101494.373
101494.659
101494.982
101495.35
101495.767
101496.24
101496.776
101497.38
101498.058
101498.815
101499.657
101500.59
101501.624
101502.779
101504.094
101505.494
101507.169
101508.556
101509.531
101510.626
101511.885
101513.317
101514.673
101515.843
101516.836
101518.282
101519.778
101521.204
101523.084
101524.614
101526.282
101528.538
101529.883
101530.394
101531.975
101534.581
101537.005
101539.04
101541.051
101543.333
101544.616
101545.936
101548.658
101551.132
101552.684
101488.145
101488.165
101488.19
101488.218
101488.249
101488.284
101488.323
101488.366
101488.413
101488.464
101488.52
101488.583
101488.648
101488.716
101488.791
101488.871
101488.956
101489.045
101489.139
101489.238
101489.342
101489.452
101489.568
101489.69
101489.818
101489.955
101490.1
101490.256
101490.424
101490.607
101490.808
101491.029
101491.276
101491.552
101491.863
101492.214
101492.612
101493.063
101493.574
101494.151
101494.8
101495.525
101496.332
101497.223
101498.197
101499.252
101500.375
101501.565
101502.786
101504.053
101505.437
101506.757
101508.414
101510.293
101511.548
101512.54
101513.947
101515.407
101516.79
101518.342
101519.936
101521.472
101522.842
101524.346
101526.338
101527.94
101529.935
101532.5
101534.657
101536.402
101537.724
101539.034
101540.789
101542.925
101544.882
101546.811
101548.42
101550.181
101552.324
101554.3
101484.695
101484.725
101484.761
101484.8
101484.843
101484.889
101484.94
101484.996
101485.056
101485.121
101485.19
101485.265
101485.345
101485.429
101485.519
101485.614
101485.713
101485.819
101485.93
101486.046
101486.169
101486.299
101486.436
101486.581
101486.736
101486.902
101487.082
101487.277
101487.49
101487.726
101487.987
101488.279
101488.607
101488.975
101489.39
101489.857
101490.383
101490.971
101491.629
101492.359
101493.165
101494.051
101495.017
101496.071
101497.21
101498.408
101499.663
101500.95
101502.24
101503.459
101504.989
101506.987
101508.505
101509.759
101511.534
101513.46
101514.987
101516.459
101517.744
101518.984
101520.289
101521.813
101523.632
101525.636
101527.657
101529.524
101531.178
101532.824
101534.473
101536.196
101538.399
101541.079
101543.286
101544.9
101546.384
101548.029
101550.436
101552.462
101553.796
101555.461
101480.822
101480.863
101480.913
101480.965
101481.021
101481.081
101481.145
101481.215
101481.29
101481.369
101481.454
101481.543
101481.638
101481.739
101481.845
101481.956
101482.073
101482.197
101482.327
101482.465
101482.611
101482.766
101482.932
101483.11
101483.303
101483.513
101483.743
101483.998
101484.28
101484.596
101484.949
101485.347
101485.793
101486.294
101486.855
101487.481
101488.177
101488.944
101489.785
101490.699
101491.683
101492.726
101493.806
101494.937
101496.178
101497.788
101499.749
101501.754
101503.736
101505.821
101507.591
101508.753
101509.833
101511.119
101512.453
101513.636
101514.837
101516.149
101518.102
101520.584
101522.651
101524.454
101525.489
101526.17
101527.936
101530.95
101533.02
101534.333
101536.018
101537.875
101539.739
101541.551
101543.646
101546.021
101548.048
101549.861
101551.572
101553.289
101555.324
101557.412
101476.516
101476.571
101476.635
101476.702
101476.773
101476.848
101476.928
101477.013
101477.103
101477.199
101477.3
101477.406
101477.518
101477.636
101477.761
101477.892
101478.031
101478.178
101478.334
101478.501
101478.68
101478.873
101479.082
101479.311
101479.563
101479.842
101480.152
101480.499
101480.888
101481.325
101481.815
101482.366
101482.982
101483.67
101484.435
101485.28
101486.21
101487.228
101488.335
101489.534
101490.831
101492.212
101493.655
101495.602
101498.011
101499.796
101501.211
101502.57
101503.815
101505.094
101506.378
101507.958
101509.897
101511.55
101512.937
101514.371
101515.883
101517.937
101520.111
101521.618
101522.548
101522.992
101524.431
101527.887
101530.243
101531.497
101533.099
101535.086
101537.01
101539.052
101541.068
101543.119
101545.672
101548.562
101550.76
101552.58
101553.929
101555.539
101557.557
101559.507
101471.808
101471.878
101471.959
101472.042
101472.128
101472.219
101472.315
101472.416
101472.522
101472.634
101472.752
101472.875
101473.006
101473.143
101473.288
101473.442
101473.606
101473.782
101473.97
101474.174
101474.396
101474.639
101474.908
101475.205
101475.537
101475.908
101476.324
101476.792
101477.317
101477.906
101478.564
101479.298
101480.112
101481.01
101481.995
101483.067
101484.226
101485.469
101486.79
101488.181
101489.631
101491.114
101492.648
101494.137
101495.856
101497.446
101498.827
101500.425
101502.139
101503.91
101505.679
101507.483
101509.374
101511.304
101513.271
101515.18
101516.937
101518.627
101520.179
101521.833
101524.05
101526.384
101527.852
101529.033
101530.629
101532.11
101533.819
101536.569
101539.295
101541.907
101544.774
101547.713
101549.185
101549.666
101550.992
101553.896
101556.296
101559.124
101561.681
101563.965
101466.749
101466.834
101466.933
101467.032
101467.134
101467.24
101467.351
101467.467
101467.589
101467.716
101467.85
101467.991
101468.139
101468.297
101468.464
101468.643
101468.836
101469.045
101469.272
101469.522
101469.797
101470.103
101470.443
101470.825
101471.252
101471.731
101472.268
101472.869
101473.539
101474.284
101475.108
101476.014
101477.005
101478.08
101479.24
101480.484
101481.808
101483.211
101484.691
101486.249
101487.893
101489.676
101491.62
101493.077
101494.055
101495.911
101498.556
101500.549
101502.438
101504.325
101506.194
101508.031
101509.816
101511.593
101513.407
101515.356
101517.119
101518.88
101521.317
101524.125
101526.233
101528.075
101529.763
101531.464
101533.439
101535.381
101537.513
101539.72
101541.97
101544.928
101547.215
101548.827
101550.652
101553.294
101555.868
101558.028
101559.923
101562.321
101565.909
101568.66
101461.463
101461.564
101461.68
101461.795
101461.912
101462.033
101462.159
101462.291
101462.428
101462.571
101462.723
101462.882
101463.053
101463.235
101463.431
101463.644
101463.877
101464.132
101464.416
101464.731
101465.083
101465.478
101465.921
101466.42
101466.979
101467.607
101468.309
101469.09
101469.955
101470.908
101471.953
101473.089
101474.317
101475.634
101477.036
101478.518
101480.072
101481.682
101483.337
101484.996
101486.598
101488.075
101489.969
101492.564
101495.059
101496.929
101499.221
101501.614
101503.403
101505.2
101507.068
101508.965
101510.88
101512.755
101515.26
101517.552
101519.113
101520.824
101522.814
101525.311
101527.741
101529.57
101531.266
101533.165
101535.201
101537.797
101540.543
101542.939
101545.109
101546.905
101549.355
101552.019
101553.829
101555.627
101557.707
101560.136
101562.349
101563.992
101566.969
101569.447
101491.859
101491.864
101491.869
101491.873
101491.874
101491.874
101491.872
101491.868
101491.863
101491.855
101491.846
101491.834
101491.821
101491.805
101491.787
101491.767
101491.744
101491.719
101491.691
101491.66
101491.626
101491.59
101491.55
101491.507
101491.46
101491.41
101491.355
101491.297
101491.235
101491.168
101491.097
101491.02
101490.939
101490.852
101490.759
101490.661
101490.556
101490.445
101490.327
101490.201
101490.068
101489.927
101489.778
101489.621
101489.454
101489.276
101489.087
101488.885
101488.67
101488.441
101488.196
101487.935
101487.655
101487.356
101487.034
101486.689
101486.317
101485.917
101485.484
101485.017
101484.51
101483.959
101483.358
101482.696
101481.953
101481.111
101480.146
101479.056
101477.99
101476.9
101475.677
101474.372
101472.941
101471.203
101468.443
101465.395
101463.27
101460.86
101457.339
101454.437
101492.176
101492.182
101492.188
101492.192
101492.195
101492.195
101492.194
101492.191
101492.186
101492.18
101492.171
101492.16
101492.147
101492.132
101492.115
101492.095
101492.073
101492.048
101492.021
101491.99
101491.957
101491.921
101491.882
101491.839
101491.793
101491.743
101491.689
101491.631
101491.569
101491.503
101491.432
101491.355
101491.274
101491.187
101491.095
101490.997
101490.892
101490.781
101490.663
101490.538
101490.405
101490.264
101490.115
101489.956
101489.789
101489.61
101489.42
101489.218
101489.003
101488.773
101488.527
101488.264
101487.983
101487.681
101487.357
101487.007
101486.629
101486.217
101485.768
101485.275
101484.732
101484.131
101483.465
101482.772
101482.053
101481.276
101480.441
101479.606
101478.604
101477.222
101475.613
101473.773
101471.676
101469.923
101468.504
101466.594
101463.223
101458.826
101455.795
101453.476
101492.732
101492.739
101492.746
101492.751
101492.754
101492.756
101492.756
101492.754
101492.75
101492.745
101492.738
101492.728
101492.717
101492.704
101492.688
101492.67
101492.65
101492.627
101492.602
101492.574
101492.543
101492.509
101492.472
101492.432
101492.389
101492.342
101492.291
101492.236
101492.178
101492.114
101492.047
101491.974
101491.897
101491.814
101491.726
101491.632
101491.532
101491.426
101491.313
101491.192
101491.065
101490.93
101490.786
101490.634
101490.473
101490.301
101490.119
101489.924
101489.716
101489.493
101489.254
101488.997
101488.722
101488.426
101488.107
101487.76
101487.382
101486.974
101486.531
101486.05
101485.53
101484.976
101484.397
101483.736
101482.927
101481.988
101480.957
101479.787
101478.576
101477.3
101475.889
101474.337
101472.533
101470.241
101467.353
101464.808
101462.58
101460.302
101457.243
101452.513
101493.497
101493.504
101493.512
101493.517
101493.522
101493.525
101493.526
101493.526
101493.524
101493.521
101493.516
101493.509
101493.5
101493.489
101493.476
101493.462
101493.445
101493.426
101493.404
101493.38
101493.354
101493.325
101493.293
101493.258
101493.221
101493.18
101493.135
101493.088
101493.036
101492.981
101492.921
101492.858
101492.789
101492.716
101492.638
101492.555
101492.467
101492.373
101492.272
101492.166
101492.053
101491.933
101491.806
101491.671
101491.528
101491.376
101491.213
101491.04
101490.856
101490.658
101490.445
101490.208
101489.951
101489.677
101489.389
101489.096
101488.771
101488.422
101488.033
101487.555
101487.014
101486.478
101485.949
101485.267
101484.45
101483.574
101482.584
101481.494
101480.266
101478.877
101477.341
101475.636
101473.785
101471.715
101469.338
101466.42
101462.977
101459.926
101457.051
101453.817
101494.464
101494.471
101494.48
101494.486
101494.492
101494.496
101494.499
101494.501
101494.501
101494.499
101494.497
101494.492
101494.487
101494.479
101494.47
101494.459
101494.446
101494.431
101494.414
101494.396
101494.375
101494.351
101494.326
101494.297
101494.266
101494.233
101494.196
101494.157
101494.114
101494.068
101494.018
101493.965
101493.908
101493.847
101493.782
101493.713
101493.639
101493.56
101493.476
101493.387
101493.293
101493.194
101493.088
101492.977
101492.859
101492.735
101492.604
101492.464
101492.315
101492.156
101491.987
101491.807
101491.612
101491.404
101491.164
101490.88
101490.592
101490.267
101489.917
101489.567
101489.175
101488.671
101488.001
101487.314
101486.61
101485.819
101484.933
101483.919
101482.773
101481.477
101480.014
101478.324
101476.394
101474.445
101472.297
101469.716
101466.831
101463.495
101459.794
101455.888
101495.586
101495.595
101495.603
101495.611
101495.617
101495.623
101495.628
101495.631
101495.634
101495.635
101495.635
101495.634
101495.631
101495.628
101495.623
101495.616
101495.608
101495.599
101495.588
101495.575
101495.561
101495.544
101495.526
101495.506
101495.484
101495.46
101495.433
101495.404
101495.372
101495.338
101495.301
101495.261
101495.218
101495.172
101495.123
101495.071
101495.015
101494.955
101494.892
101494.824
101494.753
101494.677
101494.597
101494.512
101494.423
101494.329
101494.229
101494.124
101494.011
101493.891
101493.761
101493.623
101493.474
101493.315
101493.141
101492.944
101492.717
101492.467
101492.179
101491.857
101491.494
101491.077
101490.586
101490.004
101489.35
101488.622
101487.796
101486.86
101485.797
101484.59
101483.226
101481.667
101479.885
101477.95
101475.655
101473.086
101470.943
101468.502
101465.091
101461.182
101496.842
101496.85
101496.859
101496.867
101496.875
101496.882
101496.888
101496.893
101496.898
101496.901
101496.904
101496.906
101496.907
101496.907
101496.906
101496.904
101496.901
101496.896
101496.891
101496.884
101496.877
101496.867
101496.857
101496.845
101496.831
101496.816
101496.799
101496.781
101496.76
101496.738
101496.714
101496.688
101496.659
101496.629
101496.596
101496.561
101496.524
101496.484
101496.442
101496.398
101496.351
101496.301
101496.249
101496.194
101496.137
101496.077
101496.013
101495.947
101495.876
101495.801
101495.719
101495.631
101495.535
101495.429
101495.312
101495.181
101495.034
101494.866
101494.673
101494.45
101494.188
101493.879
101493.513
101493.08
101492.571
101491.979
101491.296
101490.508
101489.603
101488.565
101487.371
101486.013
101484.479
101482.57
101480.363
101478.168
101475.399
101472.095
101469.558
101466.979
101498.179
101498.188
101498.197
101498.205
101498.213
101498.221
101498.228
101498.235
101498.242
101498.248
101498.253
101498.258
101498.262
101498.266
101498.269
101498.271
101498.273
101498.274
101498.274
101498.274
101498.272
101498.27
101498.267
101498.264
101498.259
101498.253
101498.247
101498.239
101498.231
101498.221
101498.21
101498.198
101498.185
101498.171
101498.156
101498.139
101498.122
101498.104
101498.084
101498.064
101498.043
101498.022
101497.999
101497.977
101497.953
101497.93
101497.906
101497.882
101497.858
101497.833
101497.806
101497.776
101497.743
101497.706
101497.663
101497.612
101497.551
101497.476
101497.384
101497.271
101497.128
101496.949
101496.724
101496.442
101496.095
101495.672
101495.163
101494.557
101493.842
101493.004
101492.019
101490.877
101489.531
101487.917
101486.076
101483.87
101481.315
101478.509
101475.152
101472.088
101499.568
101499.576
101499.585
101499.593
101499.602
101499.61
101499.618
101499.626
101499.634
101499.642
101499.649
101499.656
101499.663
101499.67
101499.676
101499.682
101499.688
101499.694
101499.699
101499.704
101499.708
101499.713
101499.717
101499.72
101499.724
101499.727
101499.729
101499.731
101499.734
101499.736
101499.737
101499.738
101499.74
101499.741
101499.742
101499.743
101499.744
101499.746
101499.749
101499.752
101499.756
101499.762
101499.769
101499.778
101499.789
101499.802
101499.818
101499.837
101499.86
101499.886
101499.914
101499.946
101499.979
101500.014
101500.049
101500.083
101500.114
101500.14
101500.158
101500.164
101500.152
101500.115
101500.045
101499.933
101499.767
101499.536
101499.227
101498.828
101498.324
101497.699
101496.931
101495.997
101494.878
101493.564
101492.029
101490.216
101488.034
101485.579
101482.246
101478.864
101500.964
101500.971
101500.979
101500.987
101500.995
101501.003
101501.012
101501.021
101501.029
101501.038
101501.047
101501.056
101501.065
101501.074
101501.083
101501.092
101501.101
101501.111
101501.12
101501.13
101501.139
101501.149
101501.159
101501.169
101501.179
101501.189
101501.201
101501.212
101501.223
101501.235
101501.247
101501.26
101501.274
101501.289
101501.305
101501.323
101501.341
101501.362
101501.385
101501.41
101501.438
101501.469
101501.504
101501.543
101501.586
101501.635
101501.689
101501.75
101501.817
101501.892
101501.975
101502.065
101502.163
101502.268
101502.38
101502.498
101502.621
101502.747
101502.875
101503
101503.119
101503.227
101503.315
101503.377
101503.401
101503.374
101503.284
101503.113
101502.845
101502.457
101501.926
101501.243
101500.414
101499.416
101498.227
101496.798
101495.046
101493.007
101490.593
101487.485
101502.336
101502.342
101502.348
101502.355
101502.363
101502.371
101502.379
101502.387
101502.396
101502.405
101502.415
101502.425
101502.435
101502.445
101502.456
101502.468
101502.479
101502.491
101502.504
101502.517
101502.53
101502.545
101502.559
101502.574
101502.59
101502.607
101502.624
101502.643
101502.662
101502.682
101502.704
101502.727
101502.751
101502.778
101502.807
101502.838
101502.871
101502.908
101502.949
101502.993
101503.042
101503.095
101503.155
101503.221
101503.293
101503.374
101503.463
101503.562
101503.671
101503.79
101503.922
101504.066
101504.224
101504.394
101504.578
101504.776
101504.985
101505.207
101505.438
101505.678
101505.923
101506.169
101506.41
101506.64
101506.849
101507.028
101507.161
101507.233
101507.224
101507.112
101506.875
101506.512
101506.018
101505.372
101504.538
101503.49
101502.145
101500.528
101498.521
101495.965
101503.655
101503.658
101503.663
101503.668
101503.674
101503.681
101503.688
101503.695
101503.703
101503.712
101503.722
101503.731
101503.742
101503.753
101503.765
101503.777
101503.79
101503.804
101503.818
101503.833
101503.849
101503.866
101503.884
101503.902
101503.922
101503.943
101503.965
101503.988
101504.013
101504.041
101504.07
101504.101
101504.134
101504.17
101504.21
101504.252
101504.298
101504.349
101504.403
101504.463
101504.529
101504.602
101504.682
101504.77
101504.867
101504.974
101505.093
101505.224
101505.368
101505.528
101505.702
101505.894
101506.102
101506.329
101506.576
101506.842
101507.127
101507.432
101507.756
101508.097
101508.453
101508.822
101509.2
101509.581
101509.958
101510.323
101510.665
101510.969
101511.218
101511.392
101511.465
101511.432
101511.29
101511.016
101510.571
101509.934
101509.03
101507.876
101506.301
101504.197
101504.883
101504.884
101504.886
101504.889
101504.892
101504.897
101504.902
101504.907
101504.914
101504.921
101504.929
101504.938
101504.948
101504.958
101504.97
101504.982
101504.996
101505.01
101505.025
101505.042
101505.06
101505.079
101505.099
101505.121
101505.144
101505.169
101505.196
101505.224
101505.254
101505.286
101505.321
101505.358
101505.399
101505.443
101505.49
101505.542
101505.597
101505.657
101505.723
101505.793
101505.873
101505.962
101506.059
101506.167
101506.285
101506.415
101506.557
101506.713
101506.884
101507.073
101507.28
101507.507
101507.756
101508.027
101508.322
101508.642
101508.988
101509.36
101509.757
101510.178
101510.624
101511.092
101511.58
101512.082
101512.595
101513.111
101513.621
101514.115
101514.58
101514.997
101515.349
101515.614
101515.781
101515.846
101515.789
101515.569
101515.176
101514.508
101513.61
101512.019
101506.008
101506.007
101506.005
101506.005
101506.005
101506.007
101506.01
101506.013
101506.017
101506.023
101506.029
101506.037
101506.045
101506.054
101506.065
101506.077
101506.09
101506.104
101506.12
101506.137
101506.155
101506.175
101506.196
101506.22
101506.244
101506.27
101506.298
101506.329
101506.363
101506.399
101506.438
101506.48
101506.525
101506.574
101506.627
101506.686
101506.749
101506.82
101506.898
101506.982
101507.072
101507.168
101507.273
101507.388
101507.515
101507.653
101507.802
101507.965
101508.155
101508.375