/*--------------------------------*- C++ -*----------------------------------*\
  =========                 |
  \\      /  F ield         | OpenFOAM: The Open Source CFD Toolbox
   \\    /   O peration     | Website:  https://openfoam.org
    \\  /    A nd           | Version:  8
     \\/     M anipulation  |
\*---------------------------------------------------------------------------*/
FoamFile
{
    version     2.0;
    format      ascii;
    class       volScalarField;
    location    "0.055";
    object      p_rgh;
}
// * * * * * * * * * * * * * * * * * * * * * * * * * * * * * * * * * * * * * //

dimensions      [1 -1 -2 0 0 0 0];

internalField   nonuniform List<scalar> 
42400
(
101508.64
101508.628
101508.616
101508.605
101508.595
101508.587
101508.579
101508.573
101508.569
101508.565
101508.563
101508.563
101508.564
101508.566
101508.57
101508.576
101508.583
101508.591
101508.601
101508.612
101508.625
101508.64
101508.656
101508.674
101508.693
101508.714
101508.736
101508.76
101508.785
101508.812
101508.841
101508.871
101508.903
101508.937
101508.973
101509.011
101509.05
101509.1
101509.165
101509.234
101509.29
101509.332
101509.375
101509.422
101509.486
101509.567
101509.655
101509.751
101509.853
101509.962
101510.076
101510.212
101510.367
101510.547
101510.727
101510.905
101511.12
101511.369
101511.647
101511.946
101512.272
101512.629
101513.024
101513.459
101513.926
101514.412
101514.926
101515.546
101516.007
101516.392
101517.451
101518.194
101516.571
101517.947
101522.478
101523.456
101522.804
101521.955
101520.58
101520.279
101508.076
101508.067
101508.057
101508.048
101508.041
101508.034
101508.029
101508.025
101508.022
101508.02
101508.02
101508.02
101508.022
101508.025
101508.03
101508.036
101508.043
101508.052
101508.062
101508.073
101508.086
101508.1
101508.115
101508.132
101508.15
101508.17
101508.19
101508.212
101508.236
101508.26
101508.286
101508.314
101508.342
101508.371
101508.409
101508.455
101508.505
101508.543
101508.567
101508.591
101508.628
101508.679
101508.732
101508.79
101508.851
101508.916
101508.981
101509.061
101509.16
101509.277
101509.383
101509.477
101509.601
101509.752
101509.926
101510.111
101510.316
101510.546
101510.805
101511.1
101511.438
101511.814
101512.224
101512.677
101513.19
101513.755
101514.329
101515.095
101515.874
101516.271
101517.277
101518.539
101518.767
101518.677
101518.855
101522.985
101526.942
101526.031
101529.398
101532.376
101507.348
101507.341
101507.334
101507.328
101507.323
101507.318
101507.315
101507.313
101507.312
101507.311
101507.312
101507.315
101507.318
101507.323
101507.328
101507.335
101507.344
101507.354
101507.365
101507.377
101507.391
101507.406
101507.422
101507.44
101507.458
101507.479
101507.5
101507.523
101507.546
101507.57
101507.598
101507.631
101507.667
101507.706
101507.737
101507.759
101507.781
101507.813
101507.853
101507.896
101507.941
101507.988
101508.037
101508.083
101508.145
101508.23
101508.311
101508.365
101508.428
101508.52
101508.631
101508.748
101508.875
101509.017
101509.177
101509.363
101509.581
101509.829
101510.111
101510.429
101510.792
101511.209
101511.684
101512.222
101512.829
101513.537
101514.244
101515.148
101516.219
101517.174
101518.26
101519.394
101520.257
101521.618
101524.916
101527.679
101528.535
101530.262
101534.057
101536.881
101506.489
101506.484
101506.479
101506.474
101506.471
101506.468
101506.466
101506.466
101506.466
101506.468
101506.47
101506.474
101506.479
101506.486
101506.493
101506.502
101506.513
101506.525
101506.538
101506.553
101506.569
101506.587
101506.606
101506.626
101506.648
101506.671
101506.696
101506.724
101506.754
101506.787
101506.817
101506.845
101506.872
101506.9
101506.935
101506.975
101507.016
101507.058
101507.102
101507.147
101507.188
101507.242
101507.317
101507.377
101507.417
101507.476
101507.554
101507.637
101507.722
101507.814
101507.918
101508.036
101508.174
101508.333
101508.515
101508.722
101508.964
101509.246
101509.576
101509.96
101510.408
101510.927
101511.511
101512.182
101512.91
101513.78
101514.664
101515.717
101516.703
101517.941
101520.148
101523.137
101525.573
101527.128
101528.066
101529.279
101532.09
101534.65
101536.508
101538.333
101505.514
101505.509
101505.505
101505.501
101505.499
101505.497
101505.497
101505.497
101505.498
101505.501
101505.505
101505.511
101505.518
101505.526
101505.536
101505.547
101505.561
101505.575
101505.592
101505.61
101505.629
101505.649
101505.672
101505.696
101505.723
101505.752
101505.783
101505.814
101505.847
101505.881
101505.918
101505.958
101506
101506.043
101506.087
101506.133
101506.179
101506.222
101506.276
101506.348
101506.405
101506.444
101506.5
101506.571
101506.642
101506.715
101506.793
101506.881
101506.979
101507.089
101507.213
101507.354
101507.515
101507.704
101507.927
101508.191
101508.501
101508.866
101509.293
101509.791
101510.371
101511.053
101511.81
101512.687
101513.611
101514.619
101515.69
101517.096
101519.977
101522.622
101523.771
101524.309
101525.892
101528.342
101530.283
101531.876
101533.411
101535.711
101538.022
101539.782
101504.414
101504.41
101504.405
101504.402
101504.4
101504.399
101504.399
101504.4
101504.403
101504.407
101504.412
101504.419
101504.428
101504.439
101504.452
101504.466
101504.482
101504.499
101504.517
101504.539
101504.564
101504.593
101504.623
101504.655
101504.689
101504.725
101504.763
101504.803
101504.845
101504.888
101504.934
101504.981
101505.03
101505.08
101505.128
101505.184
101505.257
101505.317
101505.36
101505.42
101505.492
101505.562
101505.634
101505.711
101505.793
101505.883
101505.981
101506.088
101506.209
101506.347
101506.507
101506.694
101506.914
101507.175
101507.48
101507.84
101508.261
101508.754
101509.334
101510.005
101510.79
101511.7
101512.706
101513.873
101515.189
101516.501
101518.854
101521.16
101521.972
101522.977
101524.678
101526.422
101527.989
101529.574
101531.154
101532.932
101535.203
101536.994
101538.428
101539.981
101503.179
101503.174
101503.169
101503.166
101503.164
101503.164
101503.165
101503.167
101503.171
101503.177
101503.184
101503.192
101503.202
101503.215
101503.23
101503.248
101503.268
101503.292
101503.319
101503.347
101503.377
101503.409
101503.444
101503.482
101503.522
101503.564
101503.609
101503.656
101503.706
101503.758
101503.812
101503.864
101503.924
101503.999
101504.062
101504.112
101504.178
101504.254
101504.328
101504.403
101504.483
101504.567
101504.656
101504.752
101504.856
101504.971
101505.101
101505.248
101505.417
101505.613
101505.842
101506.111
101506.426
101506.793
101507.22
101507.714
101508.288
101508.949
101509.729
101510.623
101511.699
101512.832
101513.893
101515.172
101517.387
101519.4
101520.679
101521.738
101522.882
101524.48
101526.494
101528.452
101529.822
101531.063
101532.672
101534.51
101536.282
101538.461
101540.56
101542.205
101501.771
101501.766
101501.762
101501.76
101501.758
101501.759
101501.761
101501.765
101501.771
101501.778
101501.788
101501.801
101501.817
101501.834
101501.854
101501.875
101501.9
101501.927
101501.957
101501.99
101502.026
101502.064
101502.106
101502.15
101502.198
101502.248
101502.301
101502.356
101502.41
101502.472
101502.548
101502.614
101502.67
101502.739
101502.818
101502.896
101502.975
101503.059
101503.146
101503.238
101503.337
101503.443
101503.559
101503.686
101503.829
101503.991
101504.176
101504.389
101504.638
101504.928
101505.266
101505.655
101506.104
101506.615
101507.193
101507.834
101508.546
101509.293
101510.055
101510.806
101512.1
101514.28
101516.487
101518.212
101519.06
101519.962
101521.485
101523.13
101524.777
101525.898
101527.259
101529.037
101531.04
101532.852
101534.355
101536.538
101538.611
101540.194
101542.166
101543.942
101500.171
101500.168
101500.165
101500.163
101500.164
101500.166
101500.17
101500.177
101500.186
101500.197
101500.211
101500.227
101500.245
101500.267
101500.291
101500.318
101500.348
101500.381
101500.417
101500.456
101500.499
101500.544
101500.593
101500.645
101500.7
101500.755
101500.817
101500.89
101500.957
101501.017
101501.089
101501.17
101501.25
101501.332
101501.418
101501.509
101501.604
101501.705
101501.813
101501.929
101502.056
101502.196
101502.352
101502.529
101502.731
101502.964
101503.234
101503.549
101503.917
101504.342
101504.834
101505.399
101506.046
101506.787
101507.631
101508.583
101509.664
101510.91
101512.188
101513.869
101515.262
101515.998
101516.739
101517.755
101519.251
101520.982
101522.641
101524.009
101525.325
101527.063
101528.816
101530.334
101531.839
101533.598
101535.436
101537.522
101539.425
101541.05
101542.961
101544.775
101498.347
101498.346
101498.345
101498.347
101498.35
101498.356
101498.364
101498.375
101498.387
101498.403
101498.421
101498.442
101498.466
101498.493
101498.523
101498.557
101498.594
101498.634
101498.677
101498.724
101498.775
101498.828
101498.883
101498.944
101499.016
101499.083
101499.146
101499.219
101499.3
101499.381
101499.466
101499.554
101499.647
101499.744
101499.847
101499.956
101500.072
101500.198
101500.335
101500.486
101500.655
101500.845
101501.062
101501.311
101501.598
101501.932
101502.319
101502.768
101503.285
101503.876
101504.55
101505.316
101506.179
101507.14
101508.193
101509.348
101510.561
101511.834
101513.237
101514.481
101515.851
101517.258
101518.549
101519.736
101520.906
101522.308
101523.934
101525.376
101527.069
101528.572
101529.951
101531.896
101533.773
101535.871
101537.789
101539.352
101541.065
101542.663
101544.495
101546.595
101496.271
101496.273
101496.276
101496.282
101496.29
101496.3
101496.313
101496.328
101496.347
101496.368
101496.393
101496.421
101496.452
101496.487
101496.525
101496.567
101496.612
101496.661
101496.713
101496.769
101496.832
101496.902
101496.968
101497.032
101497.107
101497.189
101497.272
101497.358
101497.449
101497.544
101497.643
101497.748
101497.859
101497.977
101498.104
101498.24
101498.389
101498.552
101498.734
101498.939
101499.171
101499.435
101499.737
101500.085
101500.484
101500.942
101501.465
101502.053
101502.714
101503.45
101504.273
101505.197
101506.246
101507.358
101508.551
101509.807
101511.151
101512.537
101513.963
101515.189
101516.212
101517.459
101519.167
101520.73
101522.199
101523.584
101524.97
101526.916
101529.137
101530.864
101532.571
101534.132
101535.69
101537.529
101539.214
101540.523
101542.235
101544.94
101547.318
101549.175
101493.911
101493.917
101493.926
101493.937
101493.951
101493.967
101493.987
101494.01
101494.036
101494.065
101494.098
101494.135
101494.175
101494.22
101494.268
101494.32
101494.376
101494.44
101494.504
101494.569
101494.642
101494.719
101494.802
101494.887
101494.976
101495.07
101495.168
101495.271
101495.38
101495.494
101495.616
101495.746
101495.885
101496.036
101496.2
101496.382
101496.584
101496.81
101497.066
101497.357
101497.688
101498.065
101498.496
101498.986
101499.541
101500.164
101500.854
101501.608
101502.429
101503.289
101504.159
101505.024
101506.191
101507.805
101509.411
101511.01
101512.504
101513.794
101515.201
101516.94
101517.982
101519.006
101520.498
101521.761
101522.953
101524.379
101525.801
101527.632
101529.814
101531.546
101533.04
101534.508
101536.168
101538.143
101540.103
101542.323
101544.46
101546.304
101548.366
101550.541
101491.23
101491.242
101491.258
101491.276
101491.298
101491.322
101491.351
101491.383
101491.418
101491.458
101491.501
101491.549
101491.6
101491.657
101491.72
101491.785
101491.852
101491.925
101492.005
101492.088
101492.175
101492.267
101492.364
101492.466
101492.573
101492.685
101492.804
101492.93
101493.064
101493.207
101493.361
101493.528
101493.711
101493.913
101494.138
101494.39
101494.674
101494.996
101495.361
101495.775
101496.245
101496.776
101497.375
101498.045
101498.791
101499.616
101500.524
101501.521
101502.622
101503.844
101505.154
101506.795
101508.305
101509.442
101510.654
101512.035
101513.419
101514.787
101516.046
101517.08
101518.416
101519.869
101521.381
101523.15
101524.616
101526.31
101528.412
101529.709
101530.53
101532.338
101534.709
101536.949
101539.012
101541.057
101543.274
101544.86
101546.433
101548.929
101551.175
101552.787
101488.187
101488.207
101488.232
101488.259
101488.29
101488.325
101488.364
101488.407
101488.454
101488.505
101488.561
101488.623
101488.688
101488.756
101488.831
101488.911
101488.995
101489.084
101489.178
101489.276
101489.38
101489.49
101489.605
101489.726
101489.855
101489.991
101490.136
101490.291
101490.459
101490.641
101490.841
101491.062
101491.308
101491.584
101491.894
101492.246
101492.643
101493.094
101493.605
101494.181
101494.83
101495.556
101496.364
101497.257
101498.235
101499.297
101500.436
101501.649
101502.901
101504.225
101505.612
101506.916
101508.497
101510.194
101511.437
101512.606
101514.075
101515.513
101516.907
101518.415
101519.925
101521.381
101522.815
101524.452
101526.462
101528.23
101530.398
101532.861
101534.779
101536.372
101537.746
101539.182
101540.978
101543.026
101544.908
101546.724
101548.482
101550.457
101552.658
101554.631
101484.74
101484.77
101484.806
101484.845
101484.887
101484.934
101484.985
101485.041
101485.101
101485.165
101485.235
101485.309
101485.389
101485.473
101485.563
101485.658
101485.757
101485.863
101485.973
101486.09
101486.213
101486.342
101486.479
101486.625
101486.78
101486.946
101487.126
101487.321
101487.535
101487.772
101488.034
101488.327
101488.656
101489.026
101489.442
101489.912
101490.439
101491.031
101491.691
101492.425
101493.235
101494.124
101495.093
101496.146
101497.281
101498.477
101499.736
101501.036
101502.36
101503.639
101505.171
101506.95
101508.337
101509.683
101511.524
101513.395
101514.904
101516.344
101517.693
101519.027
101520.442
101522.109
101523.924
101525.838
101527.819
101529.652
101531.343
101533.052
101534.792
101536.606
101538.793
101541.253
101543.236
101544.839
101546.449
101548.333
101550.757
101552.673
101554.162
101555.924
101480.869
101480.911
101480.96
101481.012
101481.068
101481.128
101481.193
101481.263
101481.337
101481.417
101481.502
101481.591
101481.686
101481.787
101481.893
101482.004
101482.122
101482.246
101482.376
101482.514
101482.66
101482.816
101482.982
101483.16
101483.353
101483.563
101483.794
101484.049
101484.332
101484.648
101485.001
101485.399
101485.846
101486.347
101486.909
101487.536
101488.233
101489.003
101489.847
101490.765
101491.756
101492.809
101493.909
101495.067
101496.309
101497.801
101499.606
101501.525
101503.404
101505.377
101507.178
101508.554
101509.82
101511.111
101512.416
101513.656
101514.984
101516.54
101518.541
101520.821
101522.743
101524.355
101525.414
101526.366
101528.296
101531.115
101533.119
101534.544
101536.252
101538.099
101539.956
101541.802
101543.914
101546.229
101548.198
101550.002
101551.85
101553.674
101555.623
101557.665
101476.563
101476.618
101476.683
101476.749
101476.82
101476.895
101476.976
101477.061
101477.151
101477.247
101477.348
101477.454
101477.567
101477.685
101477.81
101477.942
101478.081
101478.229
101478.385
101478.552
101478.732
101478.925
101479.135
101479.364
101479.617
101479.896
101480.207
101480.555
101480.944
101481.381
101481.872
101482.422
101483.038
101483.725
101484.488
101485.331
101486.256
101487.267
101488.364
101489.549
101490.824
101492.172
101493.596
101495.497
101497.867
101499.871
101501.486
101502.855
101504.095
101505.368
101506.672
101508.195
101509.972
101511.564
101512.986
101514.513
101516.129
101518.036
101519.994
101521.41
101522.463
101523.38
101525.186
101528.287
101530.231
101531.454
101533.317
101535.348
101537.269
101539.255
101541.207
101543.236
101545.799
101548.68
101550.881
101552.71
101554.086
101555.612
101557.636
101559.691
101471.852
101471.921
101472.003
101472.086
101472.172
101472.263
101472.36
101472.461
101472.567
101472.68
101472.798
101472.922
101473.053
101473.191
101473.337
101473.492
101473.657
101473.833
101474.023
101474.228
101474.452
101474.697
101474.967
101475.267
101475.601
101475.974
101476.394
101476.864
101477.393
101477.985
101478.648
101479.387
101480.207
101481.112
101482.105
101483.187
101484.358
101485.617
101486.958
101488.376
101489.86
101491.383
101492.995
101494.593
101496.213
101497.671
101499.042
101500.632
101502.347
101504.095
101505.863
101507.712
101509.648
101511.568
101513.48
101515.315
101517.015
101518.662
101520.263
101522.05
101524.163
101526.155
101527.581
101528.987
101530.948
101532.617
101534.14
101536.652
101539.347
101541.986
101544.825
101547.612
101549.148
101549.794
101551.238
101554.143
101556.425
101559.006
101561.364
101563.487
101466.781
101466.866
101466.965
101467.064
101467.166
101467.273
101467.384
101467.501
101467.623
101467.751
101467.885
101468.027
101468.176
101468.335
101468.503
101468.684
101468.878
101469.089
101469.318
101469.57
101469.848
101470.157
101470.501
101470.886
101471.317
101471.801
101472.344
101472.951
101473.629
101474.382
101475.215
101476.131
101477.132
101478.219
101479.391
101480.646
101481.982
101483.394
101484.879
101486.434
101488.063
101489.805
101491.611
101493.005
101494.25
101496.239
101498.656
101500.616
101502.516
101504.42
101506.306
101508.146
101509.941
101511.744
101513.584
101515.513
101517.247
101519.07
101521.523
101524.218
101526.378
101528.23
101529.905
101531.645
101533.609
101535.482
101537.51
101539.718
101542.055
101544.759
101546.95
101548.826
101550.814
101553.445
101555.951
101557.894
101559.642
101562.127
101565.584
101568.274
101461.475
101461.575
101461.691
101461.806
101461.924
101462.045
101462.171
101462.302
101462.439
101462.583
101462.734
101462.894
101463.065
101463.247
101463.443
101463.657
101463.89
101464.146
101464.429
101464.745
101465.097
101465.493
101465.937
101466.436
101466.997
101467.625
101468.327
101469.109
101469.976
101470.93
101471.976
101473.115
101474.346
101475.668
101477.076
101478.569
101480.139
101481.773
101483.463
101485.172
101486.857
101488.473
101490.4
101492.748
101494.894
101496.734
101499.147
101501.531
101503.358
101505.198
101507.087
101509.002
101510.924
101512.805
101515.137
101517.336
101518.993
101520.896
101523.171
101525.578
101527.731
101529.528
101531.313
101533.258
101535.344
101537.817
101540.491
101542.888
101544.969
101547.062
101549.593
101552.023
101553.873
101555.706
101557.828
101560.282
101562.512
101564.395
101567.363
101569.826
101492.183
101492.188
101492.193
101492.196
101492.198
101492.197
101492.195
101492.19
101492.184
101492.176
101492.166
101492.154
101492.139
101492.122
101492.103
101492.081
101492.057
101492.03
101492.001
101491.968
101491.933
101491.894
101491.852
101491.807
101491.758
101491.705
101491.648
101491.587
101491.522
101491.452
101491.377
101491.298
101491.212
101491.122
101491.025
101490.923
101490.813
101490.698
101490.575
101490.444
101490.306
101490.16
101490.005
101489.842
101489.669
101489.484
101489.288
101489.079
101488.857
101488.62
101488.367
101488.097
101487.808
101487.499
101487.167
101486.811
101486.428
101486.014
101485.568
101485.084
101484.561
101483.992
101483.372
101482.692
101481.933
101481.074
101480.092
101478.984
101477.885
101476.782
101475.515
101474.123
101472.637
101470.876
101468.305
101465.247
101462.776
101460.294
101456.955
101453.835
101492.471
101492.477
101492.482
101492.486
101492.488
101492.489
101492.487
101492.483
101492.478
101492.471
101492.461
101492.449
101492.436
101492.419
101492.401
101492.38
101492.356
101492.33
101492.301
101492.269
101492.234
101492.196
101492.155
101492.11
101492.061
101492.009
101491.952
101491.892
101491.827
101491.757
101491.683
101491.603
101491.518
101491.428
101491.331
101491.229
101491.12
101491.004
101490.881
101490.751
101490.613
101490.467
101490.312
101490.148
101489.974
101489.789
101489.592
101489.383
101489.159
101488.921
101488.667
101488.396
101488.105
101487.794
101487.459
101487.098
101486.707
101486.282
101485.817
101485.307
101484.746
101484.125
101483.437
101482.716
101481.965
101481.156
101480.291
101479.382
101478.323
101476.941
101475.345
101473.542
101471.445
101469.552
101467.947
101466.043
101463.009
101458.85
101455.267
101452.427
101493.004
101493.011
101493.018
101493.022
101493.025
101493.027
101493.026
101493.024
101493.02
101493.014
101493.006
101492.995
101492.983
101492.969
101492.952
101492.933
101492.911
101492.887
101492.86
101492.83
101492.798
101492.762
101492.723
101492.681
101492.636
101492.586
101492.533
101492.476
101492.414
101492.348
101492.277
101492.201
101492.12
101492.034
101491.942
101491.844
101491.74
101491.629
101491.511
101491.386
101491.253
101491.113
101490.964
101490.806
101490.638
101490.461
101490.271
101490.069
101489.853
101489.623
101489.375
101489.109
101488.825
101488.519
101488.189
101487.83
101487.44
101487.017
101486.557
101486.057
101485.514
101484.931
101484.321
101483.635
101482.805
101481.839
101480.762
101479.581
101478.339
101476.974
101475.513
101473.966
101472.181
101469.948
101467.118
101464.316
101461.772
101459.263
101456.227
101451.826
101493.752
101493.759
101493.767
101493.772
101493.777
101493.779
101493.78
101493.779
101493.777
101493.773
101493.767
101493.759
101493.75
101493.738
101493.724
101493.708
101493.69
101493.67
101493.647
101493.621
101493.593
101493.562
101493.529
101493.492
101493.452
101493.409
101493.362
101493.312
101493.258
101493.199
101493.137
101493.07
101492.998
101492.922
101492.84
101492.754
101492.661
101492.563
101492.458
101492.347
101492.229
101492.105
101491.972
101491.832
101491.683
101491.525
101491.357
101491.177
101490.986
101490.78
101490.559
101490.314
101490.049
101489.768
101489.473
101489.172
101488.844
101488.488
101488.084
101487.599
101487.053
101486.49
101485.9
101485.187
101484.354
101483.433
101482.409
101481.282
101480.011
101478.57
101476.977
101475.194
101473.311
101471.31
101469.002
101466.161
101462.741
101459.467
101456.218
101452.815
101494.709
101494.717
101494.725
101494.732
101494.737
101494.741
101494.743
101494.744
101494.744
101494.742
101494.739
101494.734
101494.727
101494.719
101494.709
101494.696
101494.682
101494.666
101494.648
101494.628
101494.605
101494.58
101494.553
101494.523
101494.49
101494.454
101494.415
101494.373
101494.328
101494.279
101494.227
101494.171
101494.111
101494.046
101493.978
101493.905
101493.827
101493.744
101493.656
101493.563
101493.465
101493.36
101493.25
101493.133
101493.01
101492.881
101492.743
101492.597
101492.442
101492.276
101492.1
101491.912
101491.709
101491.489
101491.237
101490.943
101490.635
101490.298
101489.938
101489.568
101489.153
101488.64
101487.991
101487.281
101486.53
101485.712
101484.792
101483.746
101482.558
101481.213
101479.686
101477.932
101475.961
101474.028
101471.834
101469.162
101466.246
101462.902
101459.173
101455.06
101495.827
101495.835
101495.844
101495.851
101495.858
101495.863
101495.867
101495.87
101495.872
101495.873
101495.873
101495.871
101495.868
101495.863
101495.857
101495.85
101495.841
101495.83
101495.818
101495.804
101495.788
101495.77
101495.75
101495.728
101495.704
101495.678
101495.649
101495.618
101495.584
101495.548
101495.508
101495.466
101495.42
101495.371
101495.319
101495.263
101495.204
101495.14
101495.073
101495.002
101494.927
101494.847
101494.762
101494.673
101494.579
101494.48
101494.375
101494.264
101494.146
101494.019
101493.883
101493.738
101493.582
101493.414
101493.231
101493.022
101492.784
101492.519
101492.218
101491.881
101491.501
101491.067
101490.561
101489.967
101489.292
101488.537
101487.684
101486.718
101485.621
101484.377
101482.965
101481.342
101479.483
101477.42
101475.115
101472.739
101470.552
101467.821
101464.288
101460.37
101497.083
101497.091
101497.1
101497.108
101497.115
101497.122
101497.128
101497.133
101497.137
101497.14
101497.142
101497.143
101497.144
101497.143
101497.141
101497.138
101497.134
101497.129
101497.123
101497.115
101497.106
101497.095
101497.083
101497.069
101497.054
101497.037
101497.019
101496.998
101496.976
101496.951
101496.925
101496.896
101496.866
101496.833
101496.797
101496.759
101496.719
101496.676
101496.631
101496.583
101496.532
101496.479
101496.423
101496.365
101496.303
101496.238
101496.171
101496.099
101496.024
101495.943
101495.856
101495.762
101495.659
101495.547
101495.423
101495.284
101495.128
101494.951
101494.749
101494.514
101494.241
101493.919
101493.538
101493.09
101492.563
101491.951
101491.244
101490.431
101489.499
101488.431
101487.207
101485.815
101484.198
101482.156
101479.847
101477.558
101474.796
101471.568
101468.807
101465.981
101498.423
101498.431
101498.441
101498.449
101498.457
101498.465
101498.472
101498.478
101498.484
101498.49
101498.495
101498.499
101498.503
101498.506
101498.508
101498.51
101498.511
101498.511
101498.51
101498.509
101498.506
101498.503
101498.499
101498.494
101498.488
101498.481
101498.473
101498.463
101498.453
101498.441
101498.429
101498.415
101498.4
101498.383
101498.366
101498.347
101498.327
101498.306
101498.284
101498.261
101498.237
101498.212
101498.187
101498.161
101498.134
101498.107
101498.08
101498.052
101498.024
101497.995
101497.963
101497.929
101497.892
101497.849
101497.8
101497.743
101497.676
101497.594
101497.495
101497.373
101497.221
101497.031
101496.794
101496.5
101496.137
101495.697
101495.168
101494.541
101493.802
101492.937
101491.925
101490.751
101489.366
101487.715
101485.772
101483.376
101480.69
101477.859
101474.501
101471.268
101499.818
101499.826
101499.835
101499.843
101499.851
101499.86
101499.868
101499.875
101499.883
101499.89
101499.897
101499.904
101499.911
101499.917
101499.923
101499.928
101499.933
101499.938
101499.943
101499.947
101499.95
101499.954
101499.957
101499.959
101499.961
101499.963
101499.964
101499.965
101499.966
101499.966
101499.966
101499.966
101499.965
101499.965
101499.964
101499.963
101499.963
101499.962
101499.963
101499.964
101499.966
101499.969
101499.973
101499.98
101499.988
101499.999
101500.013
101500.029
101500.049
101500.071
101500.097
101500.125
101500.155
101500.186
101500.218
101500.248
101500.275
101500.296
101500.309
101500.309
101500.29
101500.246
101500.168
101500.045
101499.867
101499.622
101499.297
101498.88
101498.354
101497.703
101496.907
101495.941
101494.789
101493.434
101491.855
101489.966
101487.671
101485.083
101481.718
101478.298
101501.221
101501.228
101501.236
101501.244
101501.252
101501.261
101501.269
101501.277
101501.286
101501.294
101501.303
101501.312
101501.32
101501.329
101501.337
101501.346
101501.355
101501.364
101501.372
101501.381
101501.39
101501.399
101501.408
101501.417
101501.426
101501.436
101501.446
101501.456
101501.466
101501.477
101501.488
101501.5
101501.512
101501.526
101501.54
101501.556
101501.573
101501.592
101501.614
101501.637
101501.663
101501.693
101501.726
101501.763
101501.805
101501.852
101501.905
101501.963
101502.029
101502.102
101502.183
101502.271
101502.367
101502.471
101502.581
101502.697
101502.817
101502.941
101503.066
101503.188
101503.303
101503.406
101503.489
101503.544
101503.56
101503.524
101503.421
101503.236
101502.949
101502.539
101501.983
101501.273
101500.412
101499.377
101498.143
101496.657
101494.842
101492.74
101490.247
101487.145
101502.601
101502.607
101502.613
101502.62
101502.628
101502.635
101502.643
101502.652
101502.661
101502.67
101502.679
101502.688
101502.698
101502.709
101502.719
101502.73
101502.741
101502.753
101502.765
101502.777
101502.79
101502.804
101502.818
101502.832
101502.848
101502.863
101502.88
101502.897
101502.916
101502.935
101502.956
101502.978
101503.001
101503.027
101503.055
101503.085
101503.117
101503.153
101503.192
101503.235
101503.283
101503.336
101503.394
101503.459
101503.531
101503.61
101503.699
101503.797
101503.905
101504.024
101504.155
101504.299
101504.456
101504.626
101504.81
101505.007
101505.216
101505.437
101505.668
101505.907
101506.151
101506.395
101506.634
101506.861
101507.066
101507.239
101507.365
101507.428
101507.407
101507.279
101507.026
101506.644
101506.127
101505.455
101504.588
101503.506
101502.12
101500.47
101498.401
101495.821
101503.926
101503.93
101503.935
101503.94
101503.946
101503.952
101503.959
101503.967
101503.975
101503.983
101503.993
101504.002
101504.012
101504.023
101504.035
101504.047
101504.059
101504.073
101504.087
101504.102
101504.117
101504.133
101504.151
101504.169
101504.188
101504.208
101504.23
101504.252
101504.277
101504.304
101504.332
101504.363
101504.395
101504.431
101504.469
101504.511
101504.556
101504.606
101504.66
101504.719
101504.785
101504.857
101504.936
101505.024
101505.121
101505.228
101505.346
101505.477
101505.622
101505.781
101505.957
101506.149
101506.358
101506.586
101506.834
101507.101
101507.388
101507.694
101508.019
101508.362
101508.72
101509.09
101509.469
101509.851
101510.228
101510.592
101510.931
101511.232
101511.476
101511.642
101511.706
101511.665
101511.512
101511.225
101510.765
101510.113
101509.192
101508.023
101506.414
101504.309
101505.159
101505.16
101505.162
101505.165
101505.169
101505.173
101505.178
101505.184
101505.19
101505.198
101505.206
101505.214
101505.224
101505.234
101505.246
101505.258
101505.271
101505.285
101505.3
101505.316
101505.334
101505.352
101505.372
101505.393
101505.416
101505.441
101505.467
101505.495
101505.525
101505.557
101505.591
101505.628
101505.668
101505.712
101505.758
101505.809
101505.864
101505.924
101505.989
101506.06
101506.139
101506.228
101506.326
101506.433
101506.551
101506.681
101506.824
101506.98
101507.152
101507.342
101507.551
101507.779
101508.03
101508.303
101508.601
101508.924
101509.272
101509.647
101510.047
101510.472
101510.922
101511.394
101511.885
101512.391
101512.907
101513.426
101513.939
101514.435
101514.9
101515.317
101515.668
101515.929
101516.094
101516.157
101516.097
101515.875
101515.483
101514.809
101513.913
101512.331
101506.287
101506.285
101506.284
101506.284
101506.284
101506.286
101506.288
101506.292
101506.296
101506.302
101506.308
101506.315
101506.324
101506.333
101506.343
101506.355
101506.368
101506.382
101506.397
101506.414
101506.432
101506.452
101506.473
101506.496
101506.52
101506.546
101506.574
101506.605
101506.638
101506.674
101506.712
101506.754
101506.799
101506.848
101506.901
101506.959
101507.023
101507.093
101507.171
101507.255
101507.344
101507.44
101507.546
101507.661
101507.788
101507.926
101508.077
101508.242