/*--------------------------------*- C++ -*----------------------------------*\
  =========                 |
  \\      /  F ield         | OpenFOAM: The Open Source CFD Toolbox
   \\    /   O peration     | Website:  https://openfoam.org
    \\  /    A nd           | Version:  8
     \\/     M anipulation  |
\*---------------------------------------------------------------------------*/
FoamFile
{
    version     2.0;
    format      ascii;
    class       surfaceScalarField;
    location    "0.055";
    object      phi;
}
// * * * * * * * * * * * * * * * * * * * * * * * * * * * * * * * * * * * * * //

dimensions      [1 0 -1 0 0 0 0];

internalField   nonuniform List<scalar> 
84340
(
-6.66183392e-08
3.21945787e-07
-2.55336635e-07
-2.63582141e-07
9.7276332e-07
-7.7581426e-07
-5.92924762e-07
1.65376651e-06
-1.32444188e-06
-1.05792816e-06
2.36880144e-06
-1.90381893e-06
-1.66312266e-06
3.12105145e-06
-2.51588052e-06
-2.4140505e-06
3.9128189e-06
-3.1619173e-06
-3.31702562e-06
4.74592488e-06
-3.84297883e-06
-4.37887688e-06
5.62192149e-06
-4.56010241e-06
-5.60669708e-06
6.5421578e-06
-5.31437325e-06
-7.00760856e-06
7.50774825e-06
-6.10687632e-06
-8.58855236e-06
8.51954743e-06
-6.93864756e-06
-1.03561025e-05
9.57814724e-06
-7.81064598e-06
-1.23163049e-05
1.06838925e-05
-8.72374444e-06
-1.44745374e-05
1.18369042e-05
-9.67873213e-06
-1.68353762e-05
1.30370962e-05
-1.06763245e-05
-1.94024823e-05
1.42842019e-05
-1.17171702e-05
-2.21784729e-05
1.55777825e-05
-1.28018743e-05
-2.51647996e-05
1.69172368e-05
-1.3931001e-05
-2.83616038e-05
1.83018043e-05
-1.51050999e-05
-3.17675576e-05
1.97305563e-05
-1.6324712e-05
-3.53796789e-05
2.12023809e-05
-1.75903789e-05
-3.91931201e-05
2.27159577e-05
-1.89026461e-05
-4.3200918e-05
2.42697148e-05
-2.02620569e-05
-4.73937176e-05
2.58617826e-05
-2.16691335e-05
-5.17594389e-05
2.74899156e-05
-2.31243549e-05
-5.62829066e-05
2.91514077e-05
-2.46281104e-05
-6.09454256e-05
3.08429679e-05
-2.61806283e-05
-6.57242808e-05
3.25605666e-05
-2.77818987e-05
-7.05921677e-05
3.42992398e-05
-2.94315467e-05
-7.55166083e-05
3.60529265e-05
-3.11286845e-05
-8.04594212e-05
3.78143291e-05
-3.28717171e-05
-8.53765189e-05
3.95749427e-05
-3.46580459e-05
-9.02173268e-05
4.13243516e-05
-3.6483741e-05
-9.49241265e-05
4.30499999e-05
-3.83433906e-05
-9.94301249e-05
4.47358353e-05
-4.02300155e-05
-0.000103654034
4.63591073e-05
-4.21353615e-05
-0.000107506591
4.79017734e-05
-4.40493562e-05
-0.000110903043
4.93529585e-05
-4.59566174e-05
-0.00011375221
5.06742751e-05
-4.78251847e-05
-0.000115912892
5.18042741e-05
-4.96436266e-05
-0.000117162636
5.2652632e-05
-5.14028726e-05
-0.00011726453
5.31697817e-05
-5.30678162e-05
-0.000115977391
5.32854525e-05
-5.45724543e-05
-0.000113030844
5.29004756e-05
-5.5846805e-05
-0.000108128093
5.19017762e-05
-5.68042217e-05
-0.000100919273
5.01654121e-05
-5.7373829e-05
-9.09994355e-05
4.75354041e-05
-5.74547293e-05
-7.78681955e-05
4.3797462e-05
-5.69280641e-05
-6.10574766e-05
3.88388524e-05
-5.56487946e-05
-3.9978586e-05
3.23624406e-05
-5.34403884e-05
-1.42711276e-05
2.43986829e-05
-5.01050025e-05
1.70253525e-05
1.40942057e-05
-4.53892957e-05
5.4932693e-05
1.25396651e-06
-3.91596542e-05
0.000100469189
-1.45910835e-05
-3.0943421e-05
0.000154843926
-3.35495031e-05
-2.08227725e-05
0.000219440021
-5.68969657e-05
-7.69603421e-06
0.000295691209
-8.49382582e-05
8.69088408e-06
0.000385104669
-0.000118278103
2.8869409e-05
0.000489767457
-0.000157667138
5.30102403e-05
0.000611197565
-0.000204048384
8.26256638e-05
0.000751492426
-0.000258273935
0.000117988205
0.000912787614
-0.000321216492
0.000159932538
0.00109723767
-0.000393823109
0.000209386502
0.00130694828
-0.000477130514
0.00026743614
0.00154415699
-0.000572158244
0.000334967316
0.00180947694
-0.000677994388
0.000412692712
0.00210350558
-0.000797194516
0.000503184216
0.00243656305
-0.000940623373
0.000607584363
0.00279924348
-0.00107110862
0.000708446076
0.00315565983
-0.00120477447
0.000848375148
0.00357725316
-0.00145892978
0.00103735166
0.00411714879
-0.00162638297
0.00108650036
0.00453679622
-0.00165034995
0.00123071141
0.00480281946
-0.00193508821
0.00166906847
0.00528355443
-0.00237480112
0.00189406209
0.00604725108
-0.00252155463
0.00175784554
0.0066706
-0.00247933125
0.00185595858
0.00693058564
-0.00265931511
0.00239929327
0.00704463897
-0.00294605437
0.0028319088
-0.00318165811
0.00294691567
0.0072792855
-5.25717864e-08
3.74467073e-07
-2.07475817e-07
1.127597e-06
-4.65886339e-07
1.91209677e-06
-8.30123112e-07
2.73294865e-06
-1.30344892e-06
3.59427887e-06
-1.88999966e-06
4.49926267e-06
-2.59451196e-06
5.4503216e-06
-3.42209173e-06
6.44937692e-06
-4.37797527e-06
7.497908e-06
-5.46729928e-06
8.59692955e-06
-6.69488589e-06
9.7469816e-06
-8.0650472e-06
1.09481459e-05
-9.58140541e-06
1.22000775e-05
-1.1246724e-05
1.35020384e-05
-1.30627545e-05
1.48529307e-05
-1.50300703e-05
1.62513095e-05
-1.71479077e-05
1.7695399e-05
-1.94139902e-05
1.91830849e-05
-2.18243308e-05
2.07118965e-05
-2.4373016e-05
2.22789783e-05
-2.7051958e-05
2.38810441e-05
-2.98506053e-05
2.55143095e-05
-3.27556214e-05
2.71744179e-05
-3.57505039e-05
2.88563334e-05
-3.88151467e-05
3.05542068e-05
-4.19253469e-05
3.22612349e-05
-4.50522687e-05
3.3969494e-05
-4.81618761e-05
3.56697535e-05
-5.12143768e-05
3.73512941e-05
-5.41634421e-05
3.9001517e-05
-5.6954792e-05
4.06051733e-05
-5.95274637e-05
4.21470741e-05
-6.18122285e-05
4.36085442e-05
-6.37324537e-05
4.49696214e-05
-6.5213427e-05
4.6216165e-05
-6.61556407e-05
4.73006342e-05
-6.64232167e-05
4.81686208e-05
-6.58241777e-05
4.87531464e-05
-6.41477059e-05
4.89969856e-05
-6.11758262e-05
4.88315264e-05
-5.66938199e-05
4.81697091e-05
-5.04399906e-05
4.69149939e-05
-4.21064115e-05
4.49508768e-05
-3.13536483e-05
4.21466862e-05
-1.77640738e-05
3.8311157e-05
-9.13818039e-07
3.33141108e-05
1.95014869e-05
2.71190694e-05
4.401835e-05
1.92796148e-05
7.3528668e-05
9.32764038e-06
0.000108835244
-2.94488673e-06
0.000150880872
-1.76475268e-05
0.000200760069
-3.57853116e-05
0.000259686165
-5.76721132e-05
0.000328861365
-8.37657876e-05
0.000410018276
-0.000114705343
0.000504384619
-0.000151261445
0.000613627316
-0.000194178167
0.000739573773
-0.000244220537
0.000884119079
-0.000302207077
0.00104917358
-0.000369095818
0.00123664325
-0.000445734753
0.00144839635
-0.000532958754
0.0016859226
-0.000631337446
0.00195042656
-0.000741621827
0.00224343256
-0.000865151392
0.00256536024
-0.000999908738
0.00290945896
-0.00114128005
0.00328159014
-0.00131274125
0.00370314744
-0.0014926533
0.00411847043
-0.00162008547
0.0044840264
-0.00182447575
0.00496905831
-0.00211140709
0.00553947628
-0.00222076424
0.00592038218
-0.00231599571
0.00614117426
-0.00259560265
0.00646397363
-0.00284437066
0.00694618834
-0.00296157089
0.00730470569
-0.00301786899
0.00746085233
-0.00310224312
-0.0032530715
0.00753220386
-3.94084225e-08
4.13900682e-07
-1.54956431e-07
1.24318277e-06
-3.46845182e-07
2.10403041e-06
-6.16231862e-07
3.0023864e-06
-9.65060934e-07
3.94316437e-06
-1.39580053e-06
4.93006344e-06
-1.91126038e-06
5.96584697e-06
-2.51453079e-06
7.0527169e-06
-3.2086369e-06
8.19208753e-06
-3.99631773e-06
9.38468747e-06
-4.87981356e-06
1.06305581e-05
-5.86066421e-06
1.19290806e-05
-6.93951655e-06
1.32790172e-05
-8.11593665e-06
1.4678549e-05
-9.38822174e-06
1.61253095e-05
-1.07532123e-05
1.76163967e-05
-1.22060832e-05
1.91483698e-05
-1.37401272e-05
2.07172318e-05
-1.53465053e-05
2.23183809e-05
-1.7013971e-05
2.39465537e-05
-1.87285448e-05
2.55957315e-05
-2.04731175e-05
2.72590001e-05
-2.22269875e-05
2.89284109e-05
-2.39653474e-05
3.05948218e-05
-2.56587096e-05
3.22477042e-05
-2.7272224e-05
3.38748921e-05
-2.87661905e-05
3.54636125e-05
-3.00954732e-05
3.69991989e-05
-3.12094383e-05
3.84654339e-05
-3.20519822e-05
3.98442486e-05
-3.25639239e-05
4.11173186e-05
-3.26641904e-05
4.2247563e-05
-3.22537526e-05
4.31983498e-05
-3.12124152e-05
4.39285515e-05
-2.93803101e-05
4.43843539e-05
-2.65840857e-05
4.45047337e-05
-2.26380191e-05
4.42229134e-05
-1.7341868e-05
4.34573936e-05
-1.04726306e-05
4.2128188e-05
-1.77065201e-06
4.01300334e-05
9.05600334e-06
3.73435885e-05
2.23720491e-05
3.35995374e-05
3.85527863e-05
2.87707904e-05
5.78114457e-05
2.28887498e-05
8.08149515e-05
1.53084397e-05
0.000108211134
5.91878948e-06
0.000140744855
-5.41368737e-06
0.000179278432
-1.92528491e-05
0.000224824634
-3.62172801e-05
0.000278379918
-5.6498667e-05
0.000341327668
-8.05935156e-05
0.000414682825
-0.000109138353
0.000499779985
-0.00014276674
0.000598167886
-0.000182150577
0.000711476001
-0.000228009681
0.000841367741
-0.000281148551
0.000989506409
-0.000342311298
0.00115759287
-0.00041230026
0.00134738919
-0.000491995393
0.00156047667
-0.000582174006
0.00179832959
-0.000683577928
0.00206196589
-0.000796584933
0.00235152133
-0.000920882781
0.00266605618
-0.00105614629
0.00300414347
-0.00120322845
0.0033674403
-0.00136319513
0.00374808895
-0.0015219186
0.00412874701
-0.00169338922
0.00453323198
-0.00189712899
0.0049828652
-0.00206971012
0.00536662783
-0.00220823178
0.00567972553
-0.00242450016
0.00608286192
-0.00262389971
0.006477306
-0.0027104428
0.00669557685
-0.00281388096
0.00680746841
-0.00295627737
0.00693573221
-0.00308986104
0.00711892541
-0.00320109125
0.00731266296
-0.00329601359
-0.00337883822
0.00743838722
-3.06901598e-08
4.44544541e-07
-1.19668292e-07
1.33209491e-06
-2.66057506e-07
2.25034354e-06
-4.69666824e-07
3.20591065e-06
-7.30944393e-07
4.20434887e-06
-1.05067061e-06
5.24968926e-06
-1.42982658e-06
6.34489568e-06
-1.8691453e-06
7.49192182e-06
-2.36897015e-06
8.69179232e-06
-2.92930705e-06
9.94489821e-06
-3.54940392e-06
1.12505229e-05
-4.22754241e-06
1.26070813e-05
-4.96082769e-06
1.40121592e-05
-5.74498597e-06
1.54625588e-05
-6.57415113e-06
1.69543212e-05
-7.44063253e-06
1.84827199e-05
-8.33466196e-06
2.00422364e-05
-9.24407415e-06
2.16264767e-05
-1.01539445e-05
2.32280797e-05
-1.10461968e-05
2.48386304e-05
-1.18992722e-05
2.6448627e-05
-1.26882663e-05
2.80478098e-05
-1.33844673e-05
2.96244226e-05
-1.39550518e-05
3.11652114e-05
-1.43627292e-05
3.26551808e-05
-1.45660731e-05
3.40780283e-05
-1.45113306e-05
3.54086538e-05
-1.41357561e-05
3.66233981e-05
-1.33654797e-05
3.76949186e-05
-1.21124635e-05
3.85909779e-05
-1.02667196e-05
3.92713019e-05
-7.70676375e-06
3.96873127e-05
-4.29353236e-06
3.97847986e-05
1.36054221e-07
3.94986138e-05
5.76788299e-06
3.87521377e-05
1.27969566e-05
3.74752323e-05
2.14485969e-05
3.55707998e-05
3.19774338e-05
3.29280334e-05
4.47071605e-05
2.93978832e-05
5.99814366e-05
2.48551185e-05
7.80031064e-05
1.93212142e-05
9.9381878e-05
1.22200091e-05
0.000124692285
3.45957402e-06
0.000154600665
-7.020504e-06
0.000189859115
-1.99509452e-05
0.000231333914
-3.55569809e-05
0.00028012892
-5.42096866e-05
0.000337242985
-7.63678861e-05
0.000403587866
-0.000102563083
0.000480440357
-0.000133351957
0.000569200961
-0.000169354745
0.000671305124
-0.000211242849
0.000788236595
-0.000259698175
0.000921522171
-0.000315435581
0.00107270235
-0.000379188675
0.00124323617
-0.000451680364
0.00143465059
-0.000533722816
0.00164831147
-0.000625957229
0.00188520662
-0.000728886012
0.00214576665
-0.000842728861
0.00242989707
-0.000967702848
0.00273689268
-0.00110357457
0.00306479704
-0.00124878104
0.0034100932
-0.00140143599
0.00376667789
-0.00155980674
0.00413233635
-0.00172884693
0.00450773006
-0.00189730586
0.00487517579
-0.00206082842
0.00521424204
-0.00223618958
0.00555309456
-0.00240855797
0.0058793055
-0.00253443975
0.00610257079
-0.00264776382
0.0062493858
-0.00277071679
0.00642201528
-0.00288307877
0.0065967447
-0.0029886215
0.00673321484
-0.00309276214
0.00683122373
-0.00318789044
0.00691611649
-0.00328600727
0.00701346296
-0.00339339288
-0.00349423325
0.00712881794
-2.71948697e-08
4.71777726e-07
-1.04944851e-07
1.40989704e-06
-2.31205396e-07
2.37666247e-06
-4.04409151e-07
3.37917851e-06
-6.2325794e-07
4.42326701e-06
-8.86623e-07
5.5131286e-06
-1.19327813e-06
6.6516298e-06
-1.54152387e-06
7.84025115e-06
-1.92913591e-06
9.0794925e-06
-2.35271511e-06
1.036857e-05
-2.80778781e-06
1.17056927e-05
-3.28869487e-06
1.30880901e-05
-3.78820381e-06
1.45117745e-05
-4.29724002e-06
1.59717061e-05
-4.80461575e-06
1.74618128e-05
-5.29675366e-06
1.89749788e-05
-5.75742807e-06
2.05030371e-05
-6.16763948e-06
2.20368203e-05
-6.50534802e-06
2.35659266e-05
-6.74521134e-06
2.50786385e-05
-6.85600423e-06
2.65595717e-05
-6.80190948e-06
2.79938747e-05
-6.54143549e-06
2.93641169e-05
-6.02613268e-06
3.06500864e-05
-5.19929266e-06
3.18285288e-05
-3.9936006e-06
3.28725354e-05
-2.33417979e-06
3.37494446e-05
-1.32159195e-07
3.44216023e-05
2.71810812e-06
3.48448902e-05
6.34170223e-06
3.49676389e-05
1.08841542e-05
3.4729122e-05
1.64994353e-05
3.40723208e-05
2.33656654e-05
3.29188754e-05
3.16850035e-05
3.11796008e-05
4.16857324e-05
2.87517513e-05
5.365843e-05
2.55028947e-05
6.79179978e-05
2.1311609e-05
8.46675241e-05
1.61789008e-05
0.00010445228
9.61352778e-06
0.000127784338
1.523468e-06
0.000155248951
-8.14297811e-06
0.000187512319
-2.00429222e-05
0.000225341105
-3.43687619e-05
0.000269777347
-5.14562746e-05
0.000321556661
-7.17297657e-05
0.000381654632
-9.56544181e-05
0.000451186052
-0.00012374052
0.000531372014
-0.000156553174
0.000623486919
-0.000194677204
0.000728881593
-0.00023874568
0.000848944265
-0.000289416271
0.000985055225
-0.000347352382
0.00113858669
-0.000413227897
0.00131083332
-0.000487680002
0.00150299243
-0.000571345081
0.00171601274
-0.000664697433
0.00195038626
-0.000768092836
0.00220609008
-0.000881657285
0.00248241795
-0.00100521002
0.00277761249
-0.00113791931
0.00308916408
-0.00127925034
0.00341405865
-0.00142846486
0.00374825156
-0.00158296976
0.00408631973
-0.00173949984
0.00442038738
-0.0018938702
0.00474022861
-0.00204868381
0.00504897596
-0.00220604934
0.00533361703
-0.00234546603
0.00556642012
-0.00246898988
0.00573914131
-0.00258127636
0.00589547668
-0.00269077311
0.00604638457
-0.00279867163
0.00617137049
-0.00289570548
0.00627856106
-0.00299027501
0.00636799251
-0.00307806394
0.00644616229
-0.00317094822
0.00653528037
-0.00327702487
0.00662713514
-0.00337788635
0.00671511467
-0.00348140692
-0.00358585593
0.00680670153
-2.76811111e-08
4.99401616e-07
-1.0582999e-07
1.48796495e-06
-2.31181109e-07
2.50192085e-06
-4.00622846e-07
3.54851719e-06
-6.1097394e-07
4.63350598e-06
-8.58728445e-07
5.76076287e-06
-1.13980546e-06
6.93257915e-06
-1.44952253e-06
8.14983357e-06
-1.7822079e-06
9.41203657e-06
-2.13073351e-06
1.07169481e-05
-2.4863734e-06
1.20611791e-05
-2.83833661e-06
1.34398942e-05
-3.17369081e-06
1.48469644e-05
-3.47709672e-06
1.62749429e-05
-3.7305872e-06
1.77151298e-05
-3.91282052e-06
1.91570348e-05
-3.99879261e-06
2.05888287e-05
-3.95964988e-06
2.19974939e-05
-3.76197943e-06
2.33680692e-05
-3.36708e-06
2.46835494e-05
-2.73137971e-06
2.59236793e-05
-1.80367816e-06
2.70659783e-05
-5.23717617e-07
2.80839584e-05
1.17920088e-06
2.89469664e-05
3.38793211e-06
2.96195908e-05
6.2000159e-06
3.00602382e-05
9.72207472e-06
3.02271644e-05
1.4076524e-05
3.00669217e-05
1.94035906e-05
2.95175791e-05
2.58635746e-05
2.85073942e-05
3.36382302e-05
2.69541853e-05
4.29467818e-05
2.47634635e-05
5.40487772e-05
2.18165444e-05
6.7232043e-05
1.79959629e-05
8.2698515e-05
1.3284863e-05
0.000100928893
7.27205634e-06
0.00012237756
-1.37568724e-07
0.000147558974
-9.00309145e-06
0.000177062445
-1.98905992e-05
0.000211560729
-3.29755536e-05
0.000251977013
-4.85600856e-05
0.00029896398
-6.70308023e-05
0.000353398297
-8.88040841e-05
0.000416277361
-0.000114336431
0.000488675978
-0.000144129558
0.000571742437
-0.000178722121
0.000666687105
-0.000218686478
0.000774754884
-0.000264622242
0.000897217587
-0.000317141166
0.00103531921
-0.000376848469
0.00119022632
-0.00044432441
0.0013629762
-0.000520103078
0.00155442
-0.000604672268
0.0017651198
-0.000698379994
0.00199514864
-0.000801373752
0.00224392892
-0.000913477144
0.00251006446
-0.0010342275
0.00279130883
-0.00116290045
0.0030849598
-0.0012988596
0.00338711394
-0.00144007179
0.0036929438
-0.00158507846
0.00399641775
-0.00173193686
0.00429179323
-0.00187834333
0.00457383323
-0.00202153777
0.00483857963
-0.00215861469
0.00507313212
-0.00228323458
0.00526430148
-0.00239721738
0.00541788455
-0.00249904729
0.0055465568
-0.00259766091
0.00565917517
-0.00269389435
0.00575555149
-0.00278715022
0.00584442021
-0.00288754297
0.00593563318
-0.0029869229
0.00602309881
-0.0030777474
0.0061085429
-0.00316351797
0.00618288268
-0.0032452987
0.00624811862
-0.00334227681
0.00632174973
-0.0034515469
0.00640628883
-0.00356598012
-0.00367739563
0.00649780406
-2.98522376e-08
5.29266077e-07
-1.12952235e-07
1.57107924e-06
-2.44413125e-07
2.63339602e-06
-4.19241138e-07
3.72335963e-06
-6.31968155e-07
4.84624766e-06
-8.76347149e-07
6.0051568e-06
-1.14505337e-06
7.20130056e-06
-1.42938553e-06
8.43418116e-06
-1.71896624e-06
9.70163291e-06
-2.00181191e-06
1.09998095e-05
-2.26357171e-06
1.23229548e-05
-2.48719516e-06
1.36635338e-05
-2.65259023e-06
1.50123759e-05
-2.73628225e-06
1.63586517e-05
-2.7109846e-06
1.76898493e-05
-2.54505032e-06
1.89911184e-05
-2.20204409e-06
2.02458412e-05
-1.63985107e-06
2.14353209e-05
-8.09274185e-07
2.25375139e-05
3.47202991e-07
2.35270959e-05
1.89432065e-06
2.43765877e-05
3.90687543e-06
2.50534525e-05
6.47037457e-06
2.55204916e-05
9.6826078e-06
2.57347694e-05
1.36552869e-05
2.56469521e-05
1.85154404e-05
2.520013e-05
2.44140243e-05
2.43286305e-05
3.15240377e-05
2.29569632e-05
4.0043426e-05
2.09982504e-05
5.02044924e-05
1.83463918e-05
6.22690735e-05
1.48896717e-05
7.64362724e-05
1.05963347e-05
9.31264687e-05
5.12641767e-06
0.000112739899
-1.61739944e-06
0.000135730527
-9.70570164e-06
0.0001626173
-1.96146587e-05
0.000193989598
-3.15098176e-05
0.000230651475
-4.56649317e-05
0.000273187548
-6.24266506e-05
0.000322376837
-8.21648386e-05
0.000379104705
-0.00010528797
0.000444321639
-0.000132247773
0.000519046332
-0.000163528836
0.000604358916
-0.000199649092
0.000701383107
-0.000241153841
0.000811256336
-0.000288595446
0.000935096366
-0.000342526601
0.00107395563
-0.000403481576
0.00122876775
-0.000471953318
0.00140029205
-0.000548372724
0.00158904281
-0.000633075037
0.00179522199
-0.000726281997
0.00201853072
-0.000827980646
0.00225807386
-0.00093792267
0.00251221112
-0.00105551049
0.00277842461
-0.00117969001
0.00305324295
-0.00130904519
0.00333213728
-0.00144179405
0.00361068074
-0.00157740235
0.00388408975
-0.00171348001
0.00414923282
-0.00185022077
0.00439641918
-0.00197912238
0.00461944181
-0.00210136519
0.00481339117
-0.00221548628
0.00497627905
-0.00232150169
0.00511036367
-0.00241731825
0.00521586307
-0.00250271584
0.00530483407
-0.00258801728
0.00538882679
-0.00268165324
0.00546744962
-0.00277251717
0.00553836634
-0.0028580681
0.00559781821
-0.0029469974
0.00565695036
-0.00304606094
0.00572650039
-0.00314730513
0.00580585843
-0.00324288525
0.00589174654
-0.00333120042
0.00597410582
-0.00342465172
0.00604866935
-0.00352612752
0.00611951258
-0.00363684748
-0.00375448654
0.00619657859
-3.00481167e-08
5.59253611e-07
-1.12112571e-07
1.65305921e-06
-2.39370956e-07
2.76055856e-06
-4.04427266e-07
3.88831007e-06
-5.98925003e-07
5.04063061e-06
-8.13195888e-07
6.21930479e-06
-1.03591523e-06
7.42388943e-06
-1.25374534e-06
8.6518736e-06
-1.45088522e-06
9.89862819e-06
-1.60866354e-06
1.11574366e-05
-1.70523648e-06
1.24193699e-05
-1.71529208e-06
1.36734252e-05
-1.60922857e-06
1.4906142e-05
-1.3526224e-06
1.61018692e-05
-9.05448544e-07
1.72424933e-05
-2.21761406e-07
1.83072437e-05
7.5116532e-07
1.92727217e-05
2.07419705e-06
2.01120913e-05
3.8164459e-06
2.07950622e-05
6.05701779e-06
2.12863162e-05
8.88718197e-06
2.15462103e-05
1.24115183e-05
2.15288974e-05
1.67498145e-05
2.11819703e-05
2.20392225e-05
2.04451295e-05
2.84366468e-05
1.92492876e-05
3.61213524e-05
1.75151745e-05
4.53018589e-05
1.51478627e-05
5.62159167e-05
1.20426298e-05
6.90568613e-05
8.15701224e-06
8.41917278e-05
3.21121411e-06
0.000101973412
-2.89234524e-06
0.000122802843
-1.02334587e-05
0.000147136906
-1.92080463e-05
0.000175490592
-2.9971526e-05
0.000208558885
-4.27744832e-05
0.000246866364
-5.79226797e-05
0.000291101559
-7.57456155e-05
0.000342043898
-9.660794e-05
0.000400529709
-0.000120913205
0.000467459424
-0.000149095379
0.000543788521
-0.000181617974
0.000630509931
-0.000218970172
0.000728631925
-0.0002616519
0.000839148013
-0.000310166327
0.000962996699
-0.000365003744
0.00110102152
-0.000426621546
0.00125391505
-0.000495421455
0.00142215637
-0.00057172425
0.00160594152
-0.000655739862
0.00180515313
-0.000747585717
0.0020191976
-0.000847120802
0.00224687421
-0.000953959751
0.00248628839
-0.00106739584
0.00273488931
-0.00118652447
0.00298951763
-0.00131013961
0.00324643542
-0.00143660849
0.00350108998
-0.00156370039
0.00374843126
-0.00168913587
0.00398347838
-0.00181244999
0.0042028765
-0.00193287854
0.00439658253
-0.00204392717
0.00456301984
-0.00214555996
0.00470221571
-0.00224056133
0.00481479022
-0.00232806088
0.00490707234
-0.00241378375
0.00498917253
-0.00249941792
0.00506719521
-0.00258073775
0.00513054143
-0.00265136255
0.0051799185
-0.00273102922
0.00522775965
-0.00282035751
0.00528089979
-0.0029112085
0.00533281343
-0.00299891237
0.00537912637
-0.00309237697
0.00542652163
-0.00319470731
0.00548145493
-0.00329782786
0.00555161615
-0.00340137271
0.00562776096
-0.00350081516
0.00570767118
-0.00360605871
0.00578770763
-0.00371690922
-0.00383164439
0.00586483432
-2.63596928e-08
5.855911e-07
-9.51589183e-08
1.72182454e-06
-1.96770019e-07
2.86212904e-06
-3.2050367e-07
4.01199721e-06
-4.54089064e-07
5.17416426e-06
-5.83236886e-07
6.34839605e-06
-6.9119626e-07
7.53178759e-06
-7.58301847e-07
8.71891339e-06
-7.61428485e-07
9.90168448e-06
-6.73476356e-07
1.10694096e-05
-4.62844848e-07
1.22086588e-05
-9.27287827e-08
1.33032248e-05
4.79311698e-07
1.43340126e-05
1.30200726e-06
1.52790801e-05
2.43123112e-06
1.61131714e-05
3.93081172e-06
1.68075608e-05
5.87385826e-06
1.73295686e-05
8.34433528e-06
1.76415039e-05
1.14381577e-05
1.77011254e-05
1.52649295e-05
1.74594265e-05
1.99497764e-05
1.68612419e-05
2.56348581e-05
1.5843691e-05
3.24822469e-05
1.43344532e-05
4.06787049e-05
1.22485401e-05
5.04387874e-05
9.48906966e-06
6.19477654e-05
6.00605686e-06
7.55257208e-05
1.56976326e-06
9.14842597e-05
-3.91605757e-06
0.000110177584
-1.05364687e-05
0.000132007551
-1.86189204e-05
0.000157423321
-2.83082939e-05
0.00018702189
-3.98322212e-05
0.000221273635
-5.34600018e-05
0.000260786099
-6.94842206e-05
0.000306240208
-8.82288492e-05
0.000358368579
-0.000110051336
0.000417960309
-0.000135337666
0.000485852905
-0.000164500895
0.000562917667
-0.000197978368
0.000650041584
-0.000236219744
0.000748103402
-0.00027968029
0.000857940376
-0.000328807697
0.000980312993
-0.000384025123
0.00111585666
-0.000445710653
0.00126502531
-0.000514173117
0.0014280285
-0.000589625505
0.00160476751
-0.000672161289
0.00179478228
-0.000761739911
0.00199720019
-0.000858158695
0.00221058938
-0.000960975804
0.00243290468
-0.00106943701
0.00266141915
-0.00118247513
0.00289277136
-0.00129874899
0.00312314309
-0.00141689717
0.0033484617
-0.00153545925
0.00356473675
-0.00165288461
0.00376765586
-0.00176662066
0.00395401572
-0.00187549692
0.00411796514
-0.00197640062
0.00425481898
-0.00206973359
0.00436483769
-0.00215394712
0.00446151605
-0.00224223945
0.00455021249
-0.00232925884
0.00463468554
-0.00241253462
0.00471248398
-0.00249158252
0.00478345838
-0.00257039225
0.00485235665
-0.00264963563
0.00491927314
-0.00271827815
0.00497235758
-0.00278411278
0.00501763088
-0.00286563017
0.0050576775
-0.00295125518
0.00510150364
-0.00304273961
0.00514540977
-0.0031362862
0.00518746845
-0.00323677097
0.00523265787
-0.00334302406
0.00528330623
-0.00345203062
0.00534561439
-0.00356313818
0.00541746711
-0.00367792942
0.00549985385
-0.00379931283
-0.00391652996
0.00558472092
-1.72726697e-08
6.02805975e-07
-5.59409316e-08
1.76041126e-06
-1.02455361e-07
2.90855027e-06
-1.4151079e-07
4.05094911e-06
-1.55418416e-07
5.18795912e-06
-1.23561624e-07
6.31641797e-06
-2.1841888e-08
7.42993837e-06
1.77922488e-07
8.51901152e-06
5.08542998e-07
9.57091853e-06
1.00805726e-06
1.05697419e-05
1.72037312e-06
1.14961815e-05
2.69599794e-06
1.23274305e-05
3.99284454e-06
1.30369884e-05
5.67719017e-06
1.35945488e-05
7.82497534e-06
1.39651924e-05
1.05230099e-05
1.41093242e-05
1.38704154e-05
1.39819523e-05
1.79801727e-05
1.35315274e-05
2.29813356e-05
1.26997346e-05
2.90216401e-05
1.14188852e-05
3.62617394e-05
9.62089651e-06
4.48945556e-05
7.21061886e-06
5.50940145e-05
4.13472719e-06
6.71451828e-05
1.97095118e-07
8.13204028e-05
-4.68643756e-06
9.79295738e-05
-1.06034163e-05
0.000117324356
-1.78253391e-05
0.000139895898
-2.64879372e-05
0.000166155589
-3.6796518e-05
0.000196523645
-4.89873592e-05
0.000231533741
-6.3318802e-05
0.000271778278
-8.00772014e-05
0.000317896003
-9.95782089e-05
0.000370575153
-0.000122163896
0.000430546649
-0.00014820092
0.000498573003
-0.000178078321
0.000575433858
-0.000212199213
0.000661906341
-0.00025097414
0.000758737874
-0.00029481074
0.000866617006
-0.000344099798
0.000986133807
-0.000399198107
0.00111773308
-0.000460408088
0.00126166083
-0.0005279541
0.00141790515
-0.000601956308
0.00158613379
-0.000682403226
0.00176563421
-0.000769127536
0.00195528155
-0.000861810363
0.00215346349
-0.000959923621
0.00235804026
-0.00106273725
0.00256629533
-0.00116923264
0.00277509836
-0.00127824182
0.00298092294
-0.00138830151
0.00317995464
-0.00149778251
0.0033681966
-0.00160514097
0.00354213623
-0.00170940077
0.00369907946
-0.00180982973
0.00383780582
-0.00190534899
0.00395677573
-0.00199446891
0.00405671912
-0.00207634582
0.00413854904
-0.00215156489
0.00420988215
-0.00222528168
0.00427008547
-0.00230244415
0.00432462944
-0.00238380388
0.00437745341
-0.00246535932
0.0044320209
-0.00254615016
0.00448829369
-0.00262666449
0.00454724136
-0.0027085823
0.0046108052
-0.00278184071
0.00467574236
-0.00284904824
0.00473774006
-0.00292762653
0.00479579277
-0.00300930755
0.00485196863
-0.00309891588
0.00490670746
-0.00319102688
0.00495887348
-0.0032889407
0.00501376195
-0.00339791839
0.00506778576
-0.00350606262
0.00512305219
-0.00361841587
0.00518807816
-0.00374296927
0.0052638269
-0.00387507831
-0.0039965329
0.00534381373
-2.07747604e-09
6.04820271e-07
8.60313722e-09
1.74963741e-06
5.0938958e-08
2.86610479e-06
1.46430771e-07
3.95533318e-06
3.1991568e-07
5.01433718e-06
6.00206653e-07
6.03597801e-06
1.02073705e-06
7.00924748e-06
1.62022551e-06
7.9193512e-06
2.44334678e-06
8.74761394e-06
3.54158858e-06
9.47130515e-06
4.97411591e-06
1.00634472e-05
6.80854529e-06
1.04927821e-05
9.12240602e-06
1.07228962e-05
1.20041773e-05
1.07125333e-05
1.55546632e-05
1.04144491e-05
1.98885255e-05
9.77519127e-06
2.51365821e-05
8.73361162e-06
3.14463011e-05
7.22151107e-06
3.89676225e-05
5.17810131e-06
4.7905381e-05
2.48080009e-06
5.84740111e-05
-9.48073146e-07
7.09149662e-05
-5.23068839e-06
8.55019923e-05
-1.04526678e-05
0.000102543799
-1.68450985e-05
0.000122380323
-2.45233653e-05
0.000145447605
-3.36711201e-05
0.00017211862
-4.44967951e-05
0.00020285915
-5.72289306e-05
0.000238182319
-7.21201734e-05
0.000278642868
-8.94484208e-05
0.000324839073
-0.00010951555
0.000377407166
-0.000132645869
0.000437012818
-0.000159184471
0.000504339859
-0.000189491585
0.000580074799
-0.000223936551
0.000664885551
-0.000262889812
0.000759397335
-0.00030671179
0.000864161264
-0.000355738921
0.000979616574
-0.00041026697
0.00110604724
-0.000470531461
0.00124353388
-0.000536685826
0.00139190242
-0.000608777799
0.00155067214
-0.0006867251
0.00171900654
-0.00077029211
0.00189567176
-0.000859070007
0.00207901964
-0.000952477096
0.00226693432
-0.0010497268
0.00245683588
-0.001149827
0.00264574915
-0.00125165241
0.00283045773
-0.00135394322
0.00300783031
-0.00145561651
0.00317469532
-0.00155516874
0.00332938934
-0.00165247884
0.00346840373
-0.00174415778
0.00359015093
-0.00183115046
0.00369451009
-0.00191419155
0.00378254545
-0.00199338708
0.00385588809
-0.0020678138
0.00391962886
-0.00214008868
0.00397681926
-0.00220875796
0.00402904861
-0.00227751325
0.00407028007
-0.00234367717
0.00410645642
-0.00241998158
0.00413823364
-0.00249713737
0.00416962919
-0.00257754596
0.00420251744
-0.00265955234
0.00423880871
-0.00274487266
0.00428241362
-0.00282544412
0.00433498133
-0.00290161449
0.00438957925
-0.00298222298
0.00444784058
-0.0030675679
0.00450740793
-0.00315848332
0.00456920117
-0.0032528216
0.0046332444
-0.00335298719
0.00469983255
-0.00346451245
0.00476986509
-0.0035761026
0.00483968516
-0.00368824452
0.0049021565
-0.00380545141
0.00495711337
-0.00393005064
-0.00405182086
0.0050123802
1.95244867e-08
5.8521411e-07
9.98142933e-08
1.66922806e-06
2.66717089e-07
2.69906212e-06
5.49673021e-07
3.67221937e-06
9.82548563e-07
4.58128753e-06
1.60441708e-06
5.41392017e-06
2.46033049e-06
6.15312991e-06
3.60215161e-06
6.77731102e-06
5.08946036e-06
7.26007085e-06
6.99034548e-06
7.57017004e-06
9.38286872e-06
7.67065776e-06
1.23559714e-05
7.51939594e-06
1.60108258e-05
7.06774036e-06
2.04625745e-05
6.26046459e-06
2.58417461e-05
5.0349381e-06
3.22847651e-05
3.33181226e-06
3.99672303e-05
1.05076682e-06
4.90772555e-05
-1.88891357e-06
5.98259665e-05
-5.57103246e-06
7.24505406e-05
-1.01442208e-05
8.7222525e-05
-1.57205279e-05
0.000104436203
-2.2444861e-05
0.000124462588
-3.04795731e-05
0.000147623309
-4.00063666e-05
0.000174324803
-5.12254345e-05
0.000205011695
-6.43586152e-05
0.0002401642
-7.96499352e-05
0.000280299687
-9.73650849e-05
0.00032596886
-0.000117790049
0.000377749719
-0.000141230018
0.000436239102
-0.00016800571
0.000502040566
-0.000198448151
0.000575747965
-0.000232892735
0.00065792586
-0.000271670395
0.000749084859
-0.000315096522
0.000849651488
-0.000363457478
0.000959933286
-0.000416994701
0.0010800799
-0.000475886731
0.00121004099
-0.000540229358
0.00134952337
-0.000610015252
0.00149794945
-0.000685113451
0.00165442115
-0.00076525118
0.00181769332
-0.000849999125
0.0019861639
-0.000938764764
0.00215789485
-0.00103080318
0.0023306195
-0.00112520406
0.00250179575
-0.00122090544
0.00266873943
-0.00131677317
0.00282876865
-0.00141168421
0.00297950717
-0.00150468446
0.00311906262
-0.00159517485
0.00324627683
-0.00168238576
0.00335811499
-0.00176431971
0.00345570174
-0.00184174731
0.00353992965
-0.0019153813
0.00361244767
-0.00198671249
0.00367576871