/*--------------------------------*- C++ -*----------------------------------*\
  =========                 |
  \\      /  F ield         | OpenFOAM: The Open Source CFD Toolbox
   \\    /   O peration     | Website:  https://openfoam.org
    \\  /    A nd           | Version:  8
     \\/     M anipulation  |
\*---------------------------------------------------------------------------*/
FoamFile
{
    version     2.0;
    format      ascii;
    class       volScalarField;
    location    "0.055";
    object      T;
}
// * * * * * * * * * * * * * * * * * * * * * * * * * * * * * * * * * * * * * //

dimensions      [0 0 0 1 0 0 0];

internalField   nonuniform List<scalar> 
42400
(
472.127983
470.364692
468.555141
466.698343
464.793383
462.839434
460.835788
458.781878
456.677312
454.521905
452.315718
450.059098
447.75272
445.397635
442.995314
440.547699
438.057249
435.52699
432.960561
430.362254
427.737054
425.090665
422.429538
419.760877
417.092634
414.433498
411.792854
409.18073
406.607728
404.084919
401.62374
399.235851
396.932985
394.726791
392.628654
390.649521
388.799722
387.08881
385.525435
384.117217
382.870628
381.790832
380.881618
380.145336
379.582834
379.193406
378.974753
378.924719
379.034723
379.298457
379.706046
380.246049
380.903324
381.659576
382.492123
383.374234
384.263958
385.124445
385.933375
386.688657
387.070815
387.026714
386.526234
385.715729
384.6022
383.111233
381.109517
378.487496
375.300992
371.368438
366.583073
361.83657
356.30719
349.171215
342.531939
337.273659
331.13732
324.525224
317.246997
312.73329
472.170207
470.492306
468.770426
467.003666
465.191196
463.332285
461.426319
459.472835
457.471545
455.422375
453.325502
451.181388
448.99083
446.755
444.475495
442.154379
439.794235
437.398209
434.970055
432.514176
430.03566
427.540308
425.034656
422.525985
420.022315
417.532392
415.065648
412.632154
410.242544
407.907925
405.639762
403.449748
401.349653
399.351169
397.465739
395.704407
394.077617
392.595005
391.265184
390.095535
389.091998
388.258837
387.598501
387.111472
386.796081
386.649011
386.662134
386.827205
387.13201
387.560143
388.091307
388.701859
389.3588
390.028566
390.685757
391.328959
391.699169
391.745219
391.488585
390.707048
389.689711
388.354636
386.626349
384.35009
381.47233
377.966959
373.823075
369.007948
363.749235
358.081534
351.600177
345.192019
339.222257
332.473901
325.597953
319.672796
314.925294
310.236867
306.265425
302.459653
472.222769
470.651171
469.038446
467.383805
465.686539
463.946043
462.161836
460.333593
458.461173
456.544655
454.584371
452.580946
450.535344
448.448903
446.323388
444.161029
441.96457
439.737311
437.483148
435.206614
432.912907
430.607918
428.298246
425.991203
423.69481
421.417767
419.169423
416.95971
414.799074
412.698377
410.668788
408.72166
406.868365
405.12011
403.487737
401.981507
400.610819
399.383933
398.307678
397.387196
396.625672
396.024037
395.580594
395.290765
395.147386
395.139196
395.246852
395.45806
395.742509
396.071533
396.418202
396.766528
396.966856
396.929379
396.610162
395.857756
394.90333
393.679606
392.116953
390.11092
387.563662
384.437442
380.709502
376.376456
371.461169
366.025022
360.170832
353.889625
347.399062
341.048279
334.551182
328.057002
322.3387
317.157018
312.229689
307.937977
304.451096
301.810228
300.252492
300.02963
472.282186
470.830761
469.341438
467.813564
466.246572
464.640007
462.993552
461.307049
459.580536
457.814277
456.008797
454.164921
452.283814
450.367019
448.416502
446.43469
444.424515
442.38945
440.333544
438.261455
436.178472
434.090534
432.004232
429.926811
427.86615
425.830728
423.829577
421.872212
419.968532
418.128709
416.363046
414.68181
413.09501
411.612166
410.242035
408.992311
407.869321
406.877683
406.019954
405.29622
404.703736
404.236972
403.886264
403.637476
403.473295
403.37296
403.314959
403.282591
403.145442
402.852863
402.344431
401.544884
400.532343
399.30219
397.792553
395.93353
393.611433
390.78056
387.409354
383.480405
378.995633
373.974022
368.470246
362.558903
356.326355
349.870001
343.367002
336.884877
330.515571
324.579811
319.18438
314.204453
309.877243
306.331013
303.531041
301.364532
300.150531
299.90343
299.846128
299.824949
472.344604
471.019422
469.659744
468.265063
466.834969
465.369175
463.867538
462.330086
460.757052
459.148897
457.506354
455.830454
454.12257
452.384447
450.618243
448.826562
447.012491
445.179623
443.332088
441.474572
439.612325
437.751166
435.897473
434.058156
432.240623
430.452715
428.702631
426.998817
425.349832
423.764189
422.250152
420.815499
419.467269
418.211461
417.052704
415.99389
415.035778
414.176585
413.411827
412.733616
412.130817
411.59009
411.095412
410.607488
410.067136
409.430422
408.646525
407.656099
406.525041
405.211042
403.663276
401.824348
399.611329
396.968425
393.861239
390.264666
386.168147
381.575255
376.506493
370.994214
365.098048
358.899146
352.502205
346.02308
339.578906
333.266964
327.237684
321.631793
316.510368
311.980432
308.174867
305.117488
302.777788
301.014165
300.095526
299.908888
299.85937
299.844637
299.837698
299.836926
472.405726
471.204166
469.97145
468.707218
467.411215
466.083318
464.723554
463.332126
461.90944
460.456136
458.973114
457.461568
455.923018
454.359332
452.772765
451.165974
449.542047
447.904513
446.257357
444.605016
442.952373
441.304729
439.667773
438.04752
436.450238
434.882344
433.35028
431.860359
430.418577
429.030399
427.700507
426.432521
425.228698
424.089587
423.013684
421.997283
421.034002
420.114778
419.219538
418.324153
417.400206
416.415323
415.332877
414.137233
412.82614
411.362886
409.706985
407.810772
405.608448
403.05586
400.118675
396.768348
392.985576
388.762322
384.102949
379.025352
373.561682
367.752464
361.660909
355.369903
348.970678
342.566283
336.273658
330.214914
324.504729
319.242251
314.509988
310.410367
307.000154
304.303842
302.305342
300.908028
300.097829
299.926472
299.879439
299.857149
299.84613
299.83881
299.83328
299.830587
472.460649
471.370178
470.251551
469.104537
467.929013
466.724986
465.49261
464.232207
462.944293
461.629598
460.289091
458.924003
457.535847
456.126438
454.697907
453.252711
451.793639
450.323808
448.846646
447.365871
445.88545
444.409543
442.942429
441.488411
440.051697
438.636253
437.245634
435.882785
434.549809
433.247714
431.976116
430.73294
429.51418
428.313472
427.120915
425.921593
424.697525
423.428207
422.100785
420.696608
419.191852
417.558842
415.764874
413.769024
411.528015
409.008474
406.178336
403.008988
399.47738
395.567684
391.27273
386.595332
381.549345
376.160374
370.466049
364.514333
358.367719
352.103779
345.806587
339.576434
333.514629
327.727977
322.316929
317.383996
313.014437
309.283386
306.220074
303.834222
302.095155
300.948979
300.236913
299.973855
299.899714
299.876603
299.865352
299.853759
299.841446
299.827868
299.822224
299.820984
472.504095
471.50149
470.473093
469.418757
468.338434
467.232192
466.10023
464.942889
463.760671
462.554254
461.324505
460.072489
458.799482
457.506969
456.196648
454.870417
453.530361
452.178719
450.817849
449.450176
448.078117
446.704001
445.329959
443.957793
442.588825
441.22372
439.86229
438.503272
437.144106
435.780718
434.407249
433.01568
431.59598
430.135447
428.619579
427.033376
425.358587
423.573072
421.649349
419.559864
417.277395
414.77407
412.022282
408.995867
405.67167
402.030669
398.059222
393.750275
389.104474
384.131093
378.849026
373.287199
367.484785
361.491059
355.364355
349.181024
343.027357
336.994912
331.172485
325.661542
320.561712
315.957607
311.915901
308.490994
305.710971
303.577315
302.04538
301.021787
300.407204
300.084174
299.96225
299.914188
299.885785
299.8617
299.843929
299.832426
299.824352
299.822901
299.822085
299.821683
472.531032
471.582896
470.610405
469.613429
468.591914
467.545893
466.475494
465.380943
464.262573
463.120828
461.956262
460.769538
459.561421
458.332763
457.084484
455.817541
454.532892
453.231439
451.913972
450.58108
449.233068
447.870029
446.491571
445.096667
443.683478
442.249133
440.789447
439.298533
437.769343
436.193444
434.560618
432.858891
431.074105
429.190263
427.189564
425.052587
422.758538
420.285642
417.611694
414.714767
411.573951
408.170382
404.488086
400.514961
396.243752
391.672991
386.807869
381.661041
376.253377
370.614637
364.784174
358.810859
352.7518
346.675225
340.662178
334.802473
329.192643
323.926079
319.089142
314.758254
310.993895
307.839148
305.308682
303.381392
301.999097
301.074567
300.510154
300.195018
300.030618
299.952219
299.897422
299.862501
299.839487
299.827538
299.824089
299.822888
299.82268
299.822737
299.822504
299.823576
472.537658
471.602887
470.644027
469.660867
468.653244
467.621041
466.564187
465.482655
464.37646
463.245646
462.090282
460.910441
459.706179
458.477507
457.224353
455.946525
454.64367
453.315213
451.960273
450.577572
449.165294
447.720756
446.240343
444.719265
443.151225
441.530088
439.848676
438.098935
436.271124
434.353771
432.333988
430.197536
427.928943
425.511705
422.928565
420.161881
417.194069
414.008124
410.588311
406.920844
402.994632
398.802059
394.339804
389.609655
384.619325
379.38323
373.923208
368.269256
362.460161
356.54418
350.578884
344.629361
338.772688
333.092928
327.677861
322.616385
317.995955
313.890039
310.355951
307.415263
305.061863
303.265052
301.968383
301.090309
300.534563
300.207905
300.031009
299.936644
299.879633
299.842852
299.835252
299.833059
299.829688
299.826746
299.824502
299.823066
299.822677
299.822339
299.822401
299.823277
472.523917
471.561323
470.573812
469.56105
468.522711
467.458469
466.367988
465.250912
464.106847
462.935352
461.735915
460.507936
459.250688
457.963289
456.643678
455.289331
453.898035
452.4673
450.994126
449.474948
447.905588
446.281225
444.596377
442.84498
441.020628
439.114742
437.117677
435.018779
432.806397
430.467946
427.990034
425.358636
422.559332
419.577611
416.399228
413.010655
409.399606
405.55561
401.470639
397.139798
392.56207
387.741096
382.686009
377.412281
371.942569
366.307472
360.54617
354.706906
348.847042
343.032949
337.336535
331.839582
326.627807
321.782916
317.378366
313.475767
310.121359
307.336653
305.11566
303.415983
302.167489
301.290316
300.704326
300.331677
300.102208
299.966723
299.889504
299.850634
299.839736
299.836475
299.834949
299.832894
299.830155
299.827211
299.825849
299.825164
299.82372
299.822793
299.822436
299.821777
472.4899
471.458474
470.400199
469.314565
468.201018
467.058947
465.887663
464.686385
463.453575
462.187764
460.887416
459.550724
458.175562
456.759441
455.300434
453.796356
452.243885
450.639033
448.977255
447.253373
445.461557
443.595267
441.647199
439.609244
437.472506
435.227283
432.863112
430.368844
427.732757
424.942708
421.986336
418.851318
415.525661
411.998094
408.258509
404.298475
400.111817
395.69526
391.049159
386.17829
381.092706
375.808631
370.349356
364.746077
359.038576
353.275614
347.514906
341.822417
336.270769
330.936754
325.898045
321.232795
317.010415
313.281472
310.078203
307.410659
305.265048
303.604096
302.368823
301.485488
300.875475
300.463629
300.196288
300.029803
299.920706
299.867099
299.843123
299.837836
299.835506
299.832494
299.829162
299.827236
299.826604
299.825695
299.825877
299.827104
299.826438
299.825685
299.824708
299.823765
472.436532
471.297126
470.127844
468.927916
467.696463
466.432475
465.134338
463.800503
462.42981
461.020586
459.570717
458.077776
456.538986
454.951182
453.31078
451.613724
449.855427
448.030743
446.133929
444.158596
442.097704
439.943547
437.687754
435.321313
432.834607
430.217485
427.459361
424.549343
421.47641
418.229631
414.798413
411.172871
407.344231
403.305311
399.051077
394.579288
389.891219
384.992465
379.893807
374.612121
369.171253
363.602833
357.946881
352.252108
346.575754
340.982824
335.544428
330.33511
325.429194
320.896607
316.797807
313.177963
310.06108
307.455735
305.346219
303.694566
302.446758
301.538844
300.903187
300.473964
300.196602
300.01141
299.908033
299.855369
299.846073
299.83701
299.830611
299.824541
299.82232
299.821545
299.821619
299.821816
299.822427
299.822898
299.823624
299.824288
299.825825
299.827811
299.82845
299.828725
472.368433
471.091271
469.780457
468.434968
467.053616
465.634918
464.17746
462.67944
461.138778
459.55309
457.919641
456.235313
454.496567
452.699405
450.839341
448.911365
446.90991
444.828836
442.661413
440.400318
438.037639
435.564901
432.973103
430.252784
427.394112
424.38701
421.221315
417.886955
414.374228
410.674129
406.778751
402.681744
398.378876
393.86867
389.153123
384.238515
379.136257
373.863769
368.445317
362.912735
357.305926
351.673023
346.070066
340.560018
335.211066
330.094038
325.278858
320.830577
316.805087
313.244093
310.173093
307.593022
305.485112
303.815561
302.538174
301.595634
300.92727
300.473634
300.181509
300.003544
299.903924
299.875509
299.86259
299.852591
299.845676
299.838364
299.83035
299.825139
299.822179
299.821189
299.82147
299.822039
299.822921
299.823007
299.823082
299.823984
299.825209
299.827344
299.829584
299.833208
472.289339
470.852202
469.377094
467.862762
466.30773
464.710299
463.068662
461.380598
459.643556
457.854616
456.010451
454.107299
452.14092
450.106574
447.99899
445.812352
443.540283
441.175845
438.711546
436.139365
433.450789
430.636878
427.688353
424.595715
421.349395
417.939928
414.358243
410.595975
406.645856
402.502181
398.161354
393.62252
388.888282
383.965478
378.866008
373.607663
368.214897
362.719467
357.160833
351.586201
346.050077
340.613202
335.340806
330.300112
325.5571
321.17221
317.196184
313.667402
310.608863
308.025423
305.903653
304.209671
302.89629
301.908209
301.187981
300.682751
300.34354
300.128207
299.998037
299.929275
299.893919
299.872527
299.858982
299.848662
299.842017
299.837821
299.834267
299.831396
299.828506
299.826186
299.825032
299.82506
299.826922
299.82784
299.827774
299.827644
299.827978
299.828113
299.829324
299.83141
472.201432
470.58651
468.928854
467.22699
465.479205
463.683586
461.837888
459.939485
457.985369
455.972107
453.895813
451.752113
449.536119
447.242412
444.865025
442.397443
439.832609
437.162948
434.380407
431.476517
428.442481
425.269295
421.947875
418.469273
414.824937
411.007028
407.008802
402.825073
398.452743
393.891424
389.144126
384.218004
379.125146
373.883339
368.516782
363.056645
357.541396
352.016766
346.535247
341.155005
335.938117
330.9481
326.246888
321.891586
317.931122
314.401081
311.320752
308.694904
306.511948
304.745496
303.355745
302.294571
301.509446
300.947471
300.557479
300.293153
300.119503
300.009322
299.941348
299.892363
299.863981
299.847492
299.839291
299.837024
299.836144
299.835435
299.833845
299.832609
299.831729
299.831115
299.830024
299.829814
299.8298
299.830474
299.830553
299.830728
299.831187
299.829411
299.826844
299.826504
472.106165
470.298579
468.44314
466.5382
464.581817
462.571729
460.505309
458.379533
456.190937
453.935594
451.609072
449.206423
446.722158
444.150246
441.484119
438.71669
435.840399
432.847266
429.728981
426.477021
423.082776
419.537772
415.83392
411.963824
407.921158
403.701106
399.300883
394.720328
389.962553
385.034658
379.94846
374.721213
369.376252
363.943498
358.459737
352.968554
347.519837
342.168744
336.974058
331.995925
327.293033
322.919323
318.920685
315.332217
312.174823
309.456327
307.169609
305.291942
303.790587
302.623269
301.741779
301.096059
300.638169
300.324764
300.118352
299.982018
299.904471
299.866267
299.847029
299.845887
299.845872
299.845343
299.840909
299.837402
299.835102
299.834652
299.833877
299.831591
299.830174
299.829745
299.829417
299.829019
299.829158
299.829389
299.829383
299.829435
299.831852
299.830972
299.82539
299.820476
472.00466
469.991801
467.925641
465.804316
463.625628
461.387008
459.085477
456.71761
454.279502
451.766744
449.174398
446.49699
443.728509
440.862428
437.891735
434.808991
431.606414
428.275984
424.80958
421.199189
417.437143
413.516419
409.430999
405.176287
400.749611
396.150772
391.38267
386.451963
381.369753
376.152251
370.821379
365.405235
359.93835
354.461631
349.021929
343.671111
338.464617
333.459448
328.711667
324.273572
320.190804
316.499394
313.223768
310.374873
307.950153
305.935618
304.304139
303.017018
302.029898
301.295936
300.768309
300.402426
300.158485
300.003537
299.911861
299.876494
299.863276
299.854625
299.850094
299.848841
299.847991
299.846099
299.844289
299.841862
299.838227
299.835587
299.833391
299.831043
299.828123
299.826025
299.825283
299.824713
299.824137
299.824247
299.824981
299.825554
299.829605
299.832357
299.828114
299.821621
471.897849
469.668987
467.381094
465.032091
462.619519
460.140508
457.591734
454.969388
452.269154
449.486187
446.615114
443.650042
440.584584
437.411914
434.124837
430.71589
427.177479
423.50206
419.68238
415.711746
411.584371
407.295771
402.843226
398.226307
393.447455
388.512602
383.431811
378.21991
372.897054
367.489184
362.028282
356.552373
351.105166
345.735278
340.494992
335.438545
330.61999
326.090663
321.896491
318.075478
314.655632
311.652747
309.07003
306.89777
305.112285
303.679056
302.559134
301.709216
301.083927
300.639073
300.33426
300.134083
300.008499
299.933688
299.893225
299.869547
299.858026
299.850882
299.84622
299.844257
299.843878
299.844218
299.844052
299.842549
299.839614
299.83688
299.833974
299.830713
299.827681
299.824583
299.822578
299.822688
299.822889
299.822612
299.821593
299.82043
299.821937
299.832065
299.835686
299.841536
471.786808
469.333391
466.814989
464.229307
461.573638
458.84482
456.039211
453.152664
450.180513
447.11758
443.958184
440.696191
437.325073
433.837998
430.227951
426.487906
422.611038
418.590984
414.422152
410.100099
405.621956
400.98692
396.196795
391.256573
386.175041
380.965381
375.645717
370.239575
364.776172
359.290476
353.82296
348.418977
343.127715
338.000718
333.089999
328.445897
324.114744
320.136264
316.541289
313.350061
310.571177
308.20045
306.220761
304.604832
303.317977
302.31878
301.562322
301.005783
300.608605
300.333702
300.14916
300.029119
299.953597
299.907041
299.877061
299.857816
299.84734
299.842709
299.841683
299.841169
299.840561
299.839995
299.839449
299.83764
299.835122
299.833211
299.83095
299.828909
299.827028
299.824927
299.82241
299.822378
299.822443
299.821797
299.820969
299.81951
299.81963
299.827708
299.845822
299.854546
472.568778
471.696858
470.802181
469.884289
468.942706
467.976946
466.986505
465.970871
464.929516
463.8619
462.767465
461.645635
460.495813
459.317375
458.109666
456.871995
455.603626
454.303775
452.971596
451.606181
450.206547
448.771643
447.300065
445.790172
444.24014
442.647915
441.011409
439.3284
437.596338
435.812326
433.973079
432.074892
430.113827
428.085617
425.985523
423.808428
421.549003
419.202029
416.761524
414.22038
411.571812
408.809502
405.927776
402.921751
399.787611
396.523244
393.128818
389.607337
385.965168
382.212517
378.366005
374.449233
370.492403
366.532511
362.613083
358.783308
355.096453
351.607462
348.369707
345.430957
342.828808
340.586272
338.708559
337.18198
335.974828
335.03965
334.317004
333.740482
333.242722
332.761915
332.247746
331.66393
330.989065
330.218069
329.366058
328.466972
327.541946
326.58996
325.60253
324.711554
472.557438
471.662626
470.744535
469.802745
468.83682
467.846313
466.830763
465.789701
464.722646
463.629106
462.508575
461.360535
460.184447
458.979752
457.745862
456.482158
455.187981
453.86263
452.505126
451.11428
449.688887
448.227765
446.729823
445.19391
443.618712
442.002753
440.344142
438.640618
436.889664
435.088467
433.233875
431.322367
429.350017
427.312468
425.204908
423.022066
420.758225
418.407251
415.962638
413.417617
410.765341
407.999118
405.112692
402.100591
398.958556
395.684052
392.276839
388.73959
385.078493
381.303808
377.433105
373.491465
369.511218
365.532195
361.601355
357.77156
354.09929
350.642041
347.454299
344.582851
342.062019
339.909205
338.121732
336.676438
335.532963
334.64005
333.940063
333.373725
332.884095
332.419307
331.935804
331.400325
330.789559
330.087518
329.280593
328.391634
327.450131
326.507521
325.654742
325.026029
472.544114
471.622396
470.676768
469.706845
468.712228
467.692505
466.647257
465.576053
464.478456
463.354022
462.202297
461.022818
459.815105
458.578665
457.312977
456.017499
454.691398
453.333763
451.944021
450.521647
449.065941
447.575945
446.050599
444.488721
442.888976
441.249851
439.56962
437.846307
436.07766
434.261109
432.393732
430.472216
428.492818
426.451337
424.343083
422.162868
419.905004
417.563335
415.131292
412.601989
409.968376
407.223446
404.360513
401.373567
398.257708
395.009644
391.628202
388.114602
384.472725
380.710966
376.854855
372.930348
368.96655
365.00001
361.073903
357.236474
353.563551
350.110446
346.932307
344.076385
341.576482
339.448707
337.689681
336.278951
335.179099
334.324862
333.651589
333.099839
332.616896
332.159081
331.691086
331.185554
330.6214
329.982038
329.254634
328.448934
327.585618
326.763375
326.017571
325.493951
472.528736
471.575958
470.598526
469.596086
468.568271
467.514706
466.435005
465.32878
464.195638
463.035185
461.847026
460.630759
459.385981
458.112278
456.809128
455.475849
454.112135
452.717682
451.291954
449.834372
448.344297
446.821013
445.263712
443.671471
442.043233
440.377777
438.67369
436.929331
435.142795
433.311872
431.434007
429.50625
427.525221
425.48706
423.3874
421.221333
418.983401
416.667601
414.267411
411.775853
409.185588
406.489052
403.678638
400.746927
397.686947
394.493962
391.17923
387.741193
384.181286
380.498539
376.70372
372.821829
368.88557
364.935497
361.020092
357.195142
353.509156
350.027998
346.814088
343.922384
341.395382
339.258995
337.521308
336.130414
334.944141
334.046922
333.364172
332.822694
332.356688
331.910314
331.447728
330.94386
330.386956
329.777531
329.132192
328.442934
327.76586
326.995685
326.334157
325.877778
472.51108
471.52263
470.508655
469.468828
468.402809
467.310251
466.190804
465.044115
463.869839
462.667632
461.43716
460.178093
458.890111
457.572791
456.225782
454.84896
453.44204
452.004716
450.536668
449.037552
447.506992
445.944563
444.349778
442.722066
441.06075
439.365019
437.633898
435.866211
434.060543
432.215192
430.328126
428.396928
426.418748
424.390253
422.307578
420.166284
417.961333
415.687068
413.33722
410.904945
408.382889
405.763314
403.038271
400.199868
397.241957
394.172902
390.980156
387.663495
384.222807
380.661003
376.986623
373.217585
369.380886
365.511773
361.653687
357.857285
354.17867
350.678042
347.415396
344.446074
341.815041
339.550599
337.65752
336.122686
334.934783
334.025328
333.319032
332.719152
332.177298
331.712674
331.250974
330.774973
330.271196
329.751813
329.092486
328.432954
327.775908
327.145
326.58999
326.196717
472.490786
471.461326
470.405327
469.322478
468.212462
467.074955
465.909639
464.716198
463.49433
462.243744
460.964173
459.655368
458.317028
456.948997
455.551212
454.123545
452.665894
451.178176
449.660331
448.112303
446.534044
444.925492
443.286562
441.617124
439.916984
438.185852
436.423312
434.628783
432.801474
430.940338
429.044015
427.110777
425.138464
423.124427
421.065464
418.957769
416.796886
414.577679
412.294323
409.940328
407.508602
404.991567
402.381326
399.669875
396.85111
393.9243
390.88567
387.733803
384.45974
381.065475
377.556974
373.944842
370.2509
366.504618
362.743142
359.011025
355.359404
351.8446
348.525353
345.458788
342.695264
340.272844
338.21244
336.515557
335.161839
334.105552
333.295203
332.683419
332.180352
331.683189
331.267418
330.767909
330.256621
329.71327
329.130418
328.526382
327.928214
327.373046
326.904068
326.569515
472.467383
471.390624
470.286136
469.15362
467.992771
466.803287
465.584871
464.337241
463.060134
461.753315
460.416584
459.049747
457.652745
456.225575
454.768242
453.280811
451.763403
450.216198
448.639431
447.033388
445.398403
443.734843
442.043102
440.323574
438.576641
436.802636
435.001814
433.174312
431.320096
429.438914
427.530229
425.593158
423.626398
421.628158
419.596079
417.527174
415.417759
413.263404
411.058905
408.79827
406.474742
404.080865
401.6086
399.049557
396.393316
393.641793
390.791084
387.839479
384.777196
381.598148
378.30444
374.902431
371.403201
367.829724
364.212117
360.58784
357.001476
353.503787
350.149813
346.995862
344.095545
341.494923
339.22749
337.309646
335.737173
334.484577
333.509982
332.755809
332.159277
331.6711
331.232728
330.803373
330.352908
329.872086
329.359168
328.825004
328.301543
327.828888
327.442343
327.169211
472.440392
471.309074
470.148638
468.958786
467.739219
466.489642
465.209777
463.899367
462.558185
461.186052
459.782845
458.348538
456.883166
455.386825
453.859698
452.302055
450.714263
449.096788
447.450196
445.77515
444.072412
442.342831
440.587335
438.806915
437.0026
435.175434
433.326439
431.456569
429.566665
427.657391
425.729169
423.782104
421.815905
419.8298
417.822448
415.791857
413.735308
411.649281
409.529413
407.370472
405.166367
402.910207
400.594412
398.210893
395.751308
393.192261
390.548312
387.817643
384.999456
382.079647
379.049621
375.911096
372.670066
369.337012
365.933607
362.48935
359.040462
355.629544
352.304545
349.116876
346.11863
343.358911
340.879517
338.710473
336.866153
335.343006
334.119716
333.15896
332.413455
331.829839
331.353529
330.935188
330.535397
330.129296
329.70393
329.262943
328.828503
328.430637
328.11713
327.912139
472.409418
471.21548
469.99081
468.735097
467.448036
466.129333
464.778719
463.395964
461.980889
460.533375
459.053376
457.540931
455.996173
454.419345
452.810804
451.171038
449.500667
447.800456
446.071317
444.314313
442.53066
440.72172
438.888994
437.034111
435.158804
433.264887
431.354213
429.428641
427.48997
425.539883
423.579871
421.611154
419.634587
417.650571
415.658944
413.65889
411.648836
409.626372
407.588173
405.529959
403.446477
401.331529
399.178059
396.978294
394.723977
392.406634
390.002142
387.502307
384.931834
382.288771
379.5606
376.730261
373.798658
370.770667
367.655667
364.470875
361.243814
358.007982
354.802409
351.670625
348.658945
345.814026
343.179752
340.793714
338.683749
336.86512
335.338851
334.09142
333.096309
332.316018
331.705515
331.217101
330.805975
330.43544
330.079533
329.72755
329.382572
329.069445
328.829813
328.630904
472.374305
471.10937
469.811858
468.481434
467.117773
465.720575
464.289572
462.82454
461.325321
459.79183
458.224076
456.622175
454.986364
453.317021
451.614673
449.880014
448.113914
446.317436
444.491838
442.638586
440.759353
438.856025
436.930691
434.985633
433.023311
431.046334
429.057426
427.059384
425.055022
423.047103
421.038261
419.030912
417.027161
415.028687
413.036634
411.051497
409.073008
407.100023
405.130433
403.161079
401.187703
399.204935
397.206314
395.184375
393.130785
391.036558
388.8923
386.689911
384.400657
382.020202
379.582075
377.07839
374.500014
371.828046
369.06612
366.222248
363.308607
360.347194
357.36771
354.404483
351.495548
348.681205
346.002043
343.496537
341.198434
339.13423
337.321062
335.765251
334.461689
333.393911
332.535068
331.851055
331.305363
330.863027
330.493977
330.167218
329.877624
329.627729
329.439481
329.264775
472.335282
470.991439
469.612947
468.199429
466.750526
465.265909
463.74529
462.188438
460.595198
458.965507
457.299413
455.597096
453.858883
452.085269
450.276936
448.43477
446.559879
444.653605
442.717541
440.753543
438.763734
436.75051
434.71654
432.664758
430.598343
428.520702
426.435431
424.346269
422.257052
420.171634
418.093811
416.027223
413.975261
411.940933
409.926754
407.934614
405.965644
404.020099
402.097239
400.195228
398.311057
396.440496
394.578082
392.717163
390.849984
388.96784
387.061289
385.120441
383.135143
381.097372
378.97271
376.757052
374.496298
372.184011
369.810143
367.366453
364.845231
362.257585
359.618323
356.949407
354.279969
351.641969
349.069129
346.595485
344.253692
342.073187
340.078392
338.287097
336.709124
335.345277
334.186492
333.215467
332.411599
331.752636
331.20164
330.743212
330.37049
330.078511
329.868414
329.697534
472.293056
470.863815
469.397661
467.894155
466.352884
464.77347
463.155589
461.498982
459.803483
458.06903
456.295693
454.483696
452.633437
450.745509
448.82073
446.860155
444.865107
442.837188
440.778303
438.690675
436.576853
434.439723
432.282511
430.108775
427.922394
425.727546
423.528672
421.330437
419.137663
416.955267
414.78817
412.641203
410.518999
408.425862
406.365649
404.341619
402.356294
400.411322
398.50735
396.643905
394.819299
393.030562
391.273403
389.542218
387.830148
386.12919
384.430374
382.724014
381.000057
379.248591
377.460304
375.630003
373.717011
371.723868
369.660533
367.575087
365.452993
363.287176
361.069949
358.803576
356.504783
354.192082
351.889704
349.625136
347.425851
345.318303
343.326751
341.471983
339.770094
338.231274
336.858397
335.646901
334.588489
333.672757
332.862517
332.140994
331.513495
330.990076
330.571161
330.277969
472.248941
470.730475
469.172706
467.575116
465.937218
464.258572
462.538794
460.777585
458.974745
457.130198
455.244017
453.316451
451.347947
449.339179
447.291075
445.20484
443.081986
440.924352
438.734129
436.513878
434.266545
431.995477
429.704421
427.397523
425.079319
422.754714
420.428946
418.107539
415.796248
413.50098
411.227706
408.982361
406.770723
404.598289
402.470137
400.390787
398.364032
396.392804
394.479033
392.623514
390.825805
389.084136
387.39537
385.754985
384.157118
382.59465
381.05935
379.542095
378.033148
376.52249
375.000185
373.456617
371.882123
370.270155
368.610975
366.872118
365.061952
363.21538
361.370229
359.512094
357.639838
355.73887
353.82499
351.916039
350.030777
348.188025
346.405648
344.702232
343.094631
341.595993
340.214827
338.954352
337.813621
336.789074
335.870667
335.015629
334.206578
333.485564
332.816931
332.449862
472.204899
470.597346
468.94808
467.256487
465.521991
463.74407
461.92227
460.05623
458.145705
456.190586
454.190934
452.147005
450.059279
447.92849
445.755659
443.542122
441.28956
439.000027
436.675979
434.320292
431.936286
429.527738
427.098887
424.654432
422.199526
419.739749
417.281075
414.829823
412.392598
409.976207
407.587564
405.233584
402.921052
400.656489
398.446004
396.295156
394.208775
392.190824
390.244255
388.370882
386.57127
384.844646
383.188845
381.600303
380.074083
378.60396
377.182538
375.801428
374.451464
373.122983
371.806186
370.491488