/*--------------------------------*- C++ -*----------------------------------*\
  =========                 |
  \\      /  F ield         | OpenFOAM: The Open Source CFD Toolbox
   \\    /   O peration     | Website:  https://openfoam.org
    \\  /    A nd           | Version:  8
     \\/     M anipulation  |
\*---------------------------------------------------------------------------*/
FoamFile
{
    version     2.0;
    format      ascii;
    class       volVectorField;
    location    "0.055";
    object      U;
}
// * * * * * * * * * * * * * * * * * * * * * * * * * * * * * * * * * * * * * //

dimensions      [0 1 -1 0 0 0 0];

internalField   nonuniform List<vector> 
42400
(
(-0.0177699151 0.0169915613 -9.33123656e-27)
(-0.0525689161 0.0492460688 3.02288688e-26)
(-0.0873870579 0.0803177818 2.96452127e-26)
(-0.12236264 0.110303296 0)
(-0.157543976 0.139274906 0)
(-0.192946098 0.16723907 -8.90959968e-28)
(-0.228567458 0.194172006 0)
(-0.264398222 0.220039736 9.87074181e-28)
(-0.300423289 0.24480395 0)
(-0.336620877 0.268422238 1.09452615e-27)
(-0.372961184 0.290848671 1.15293888e-27)
(-0.409406345 0.312035523 -1.21473275e-27)
(-0.445911323 0.331935491 5.61289416e-27)
(-0.482425136 0.350503953 1.08239179e-26)
(-0.518892141 0.367700981 -1.42256386e-27)
(-0.55525322 0.383493081 0)
(-0.591446797 0.397854617 0)
(-0.62740966 0.410768946 0)
(-0.66307753 0.422229281 0)
(-0.698385382 0.432239291 0)
(-0.733267474 0.440813482 0)
(-0.767657098 0.447977347 -4.14669669e-27)
(-0.801486017 0.453767312 7.03122366e-26)
(-0.83468358 0.458230483 1.62991212e-25)
(-0.867175489 0.461424197 9.33922032e-26)
(-0.898882187 0.463415381 -5.175771e-27)
(-0.929716826 0.464279724 -5.47590122e-27)
(-0.959582706 0.464100682 1.15920747e-26)
(-0.988370081 0.462968379 0)
(-1.01595254 0.460978249 0)
(-1.04218321 0.4582292 -1.63523578e-25)
(-1.06688994 0.454818221 -1.77913169e-25)
(-1.08986812 0.450837385 1.55433985e-26)
(-1.1108797 0.44637174 2.10127876e-25)
(-1.12963496 0.441497027 2.09549574e-25)
(-1.14588114 0.43629555 0)
(-1.15940745 0.430895914 0)
(-1.16951355 0.425993874 0)
(-1.1760061 0.420686654 0)
(-1.17804264 0.41542544 4.43701557e-25)
(-1.17570839 0.409084081 3.53467749e-25)
(-1.16664418 0.40457202 3.14464627e-25)
(-1.15063822 0.400227141 7.49998735e-25)
(-1.12598942 0.395790158 -6.63646532e-26)
(-1.0897276 0.391892566 -5.1532196e-25)
(-1.04165728 0.38679472 -7.85617623e-25)
(-0.979138277 0.381712287 8.31074024e-26)
(-0.900021364 0.376624379 7.84558697e-25)
(-0.802002497 0.371536351 9.34148535e-26)
(-0.682554883 0.366500931 1.0383072e-24)
(-0.539720445 0.361280589 5.48723098e-33)
(-0.368563564 0.356219912 -2.61679009e-24)
(-0.168849744 0.351123379 -1.94280585e-24)
(0.0722625872 0.347901751 2.65676421e-25)
(0.343353443 0.346424599 0)
(0.673490452 0.342776367 0)
(1.05832118 0.336819372 0)
(1.50270878 0.330965279 -3.68182713e-25)
(2.01424824 0.326121185 -3.9350134e-25)
(2.60024928 0.32197576 0)
(3.26482269 0.318332221 8.44860226e-24)
(4.01278355 0.31539902 9.96776823e-24)
(4.8488578 0.313641895 -1.04709498e-23)
(5.77674742 0.313571316 -1.12964754e-23)
(6.79837209 0.31701445 0)
(7.9081411 0.327919979 0)
(9.11229613 0.32273156 -1.0298265e-23)
(10.4297566 0.312259998 -8.54653289e-24)
(11.6367836 0.478707061 -3.17615876e-25)
(13.0357632 0.455633651 0)
(14.8602106 -0.100860398 0)
(15.7549211 0.71780891 1.60049705e-25)
(16.5156238 1.55130393 1.94664761e-25)
(18.7917035 0.0854484987 0)
(20.774065 -1.49836342 -8.42678714e-25)
(21.2188163 0.0562435685 1.16485968e-24)
(21.0281893 2.48573158 -4.79137159e-24)
(22.436125 1.7029162 -2.15562761e-24)
(23.5596671 -0.0167985178 4.96765805e-24)
(23.7707059 -0.468080174 -2.60806331e-23)
(-0.0221754539 0.0196332816 0)
(-0.0650920013 0.056854929 2.39043182e-26)
(-0.10751338 0.0927279371 2.25533648e-26)
(-0.149652012 0.127417469 0)
(-0.191631017 0.161052517 0)
(-0.23351109 0.193683117 1.45542045e-26)
(-0.275316767 0.225315064 1.31990958e-26)
(-0.317047626 0.25593028 1.37592118e-27)
(-0.358683991 0.285494504 0)
(-0.40018821 0.313959947 1.52334801e-27)
(-0.441506065 0.341268321 1.60309339e-27)
(-0.482569279 0.367354736 4.29136028e-27)
(-0.523298526 0.392151786 1.92177649e-26)
(-0.563606328 0.415593259 1.34762831e-26)
(-0.603399517 0.437617267 -2.05312964e-26)
(-0.642581166 0.458168749 -1.98273419e-26)
(-0.681051978 0.477201399 0)
(-0.718711163 0.494679073 4.61300368e-27)
(-0.755456821 0.510576753 0)
(-0.79118589 0.524881156 0)
(-0.825793686 0.537591031 0)
(-0.859173044 0.548717208 5.78176033e-26)
(-0.891213084 0.558282452 1.36443143e-25)
(-0.921797581 0.566321132 7.93178476e-26)
(-0.950802877 0.57287876 0)
(-0.978095365 0.578011387 -1.39320352e-26)
(-1.00352858 0.581784707 -7.30502906e-27)
(-1.02693909 0.584272114 1.53900447e-26)
(-1.0481419 0.585553783 1.25761364e-25)
(-1.06692721 0.585716288 1.36599511e-25)
(-1.08305406 0.584848282 -1.81717491e-26)
(-1.09626492 0.583069981 -1.90768224e-26)
(-1.1063417 0.580421337 2.086076e-25)
(-1.11294704 0.57704743 1.99225357e-25)
(-1.11552744 0.573483518 -2.75405947e-25)
(-1.11406805 0.569148489 -3.27303005e-25)
(-1.1075318 0.564619195 0)
(-1.09627856 0.559071094 2.64243434e-26)
(-1.07776725 0.554382274 0)
(-1.05155238 0.549191207 6.04761182e-26)
(-1.01516314 0.544009669 3.82417008e-25)
(-0.968393464 0.537650312 3.90317549e-25)
(-0.90925636 0.531135119 6.97671707e-26)
(-0.836219552 0.524540776 -7.32166197e-26)
(-0.747248174 0.517920715 1.54954428e-25)
(-0.640127177 0.511204283 -8.02687609e-26)
(-0.512794204 0.503884255 8.45151419e-26)
(-0.361288502 0.496105796 6.96397325e-25)
(-0.186008042 0.488264514 1.07307012e-24)
(0.022054335 0.482238304 0)
(0.255620123 0.478209157 -1.0859237e-25)
(0.538711457 0.471954548 2.30382165e-25)
(0.870190761 0.463416504 1.13660898e-24)
(1.25277783 0.454601181 1.94135912e-24)
(1.69384694 0.446685487 2.87905736e-25)
(2.20037104 0.439381393 4.54558631e-24)
(2.77685271 0.432446288 5.16280997e-24)
(3.42840625 0.42625944 -3.13684976e-25)
(4.16008658 0.421136016 -3.23663219e-25)
(4.97642287 0.417194973 7.38901258e-24)
(5.88070112 0.415610226 8.30501464e-24)
(6.87435617 0.417939025 3.08102128e-25)
(7.95605542 0.424556281 -2.98416701e-25)
(9.12213757 0.433467845 0)
(10.366438 0.443239302 -9.22760307e-24)
(11.6568869 0.47547951 -1.64423225e-23)
(12.9795726 0.509812463 -8.77968553e-24)
(14.4498715 0.429031795 0)
(15.7481614 0.534202929 2.96473674e-26)
(16.7981928 0.966642714 1.45596955e-25)
(18.5248138 0.479918922 9.55839945e-24)
(20.0364482 -0.0973949895 6.02708649e-24)
(20.289516 1.39014821 1.03534881e-25)
(21.0582535 1.85937434 3.07109968e-25)
(22.7601825 0.374778403 6.56689884e-26)
(23.7760294 -0.246945163 3.14836999e-23)
(23.8521641 0.233308825 7.32461499e-24)
(23.7267593 1.28753076 -2.56596624e-24)
(23.6639602 1.57101295 -1.56023789e-23)
(23.7896063 0.845313835 -1.7648875e-23)
(-0.0258694665 0.0211773907 2.71309445e-27)
(-0.0755643079 0.0612983692 6.21176903e-28)
(-0.124310003 0.0999899795 -6.56768524e-28)
(-0.172400347 0.137478124 6.89317235e-28)
(-0.220007229 0.173926525 0)
(-0.267240238 0.209421581 -1.0189955e-26)
(-0.314143355 0.243994242 1.50351619e-33)
(-0.360720934 0.277639996 5.01507031e-27)
(-0.406944727 0.310328477 1.9984061e-27)
(-0.452756858 0.342008084 -2.64069286e-27)
(-0.498073802 0.372610857 -2.96484681e-27)
(-0.542791382 0.402058068 2.08893099e-27)
(-0.586789849 0.430265745 2.19858162e-27)
(-0.629938374 0.457149536 -1.78130066e-26)
(-0.672098647 0.482628706 -2.27824442e-26)
(-0.713127525 0.506629244 7.69266689e-27)
(-0.752878764 0.529086172 2.8357277e-26)
(-0.791203929 0.549945168 7.95373952e-26)
(-0.82795258 0.569163626 4.61404973e-26)
(-0.862971832 0.586711279 6.29712934e-27)
(-0.89610538 0.602570509 -6.62115777e-27)
(-0.9271919 0.616736441 -6.9601728e-27)
(-0.956062746 0.629216794 0)
(-0.982539173 0.640031612 1.53214578e-26)
(-1.00642861 0.649212917 -9.16822399e-26)
(-1.0275198 0.656804 6.15750415e-29)
(-1.04558229 0.662854725 1.08860807e-25)
(-1.0603638 0.667425057 1.16721839e-25)
(-1.07161521 0.670549232 1.24928619e-25)
(-1.07903137 0.672296628 -1.19911708e-25)
(-1.0822005 0.672875463 -2.10225395e-26)
(-1.08106006 0.672201141 3.44502589e-25)
(-1.07498662 0.670623908 2.65123236e-25)
(-1.06353198 0.668387708 0)
(-1.04675058 0.665154557 0)
(-1.02223174 0.661635161 -2.73330668e-26)
(-0.989268437 0.657058213 0)
(-0.94586848 0.651786936 6.11997191e-26)
(-0.891897791 0.645305196 2.8851354e-25)
(-0.82568631 0.638360112 1.31278545e-25)
(-0.745818259 0.631079891 -2.67902944e-25)
(-0.650332505 0.623437778 0)
(-0.536984934 0.61536737 0)
(-0.40405417 0.606396327 4.25988606e-25)
(-0.247723073 0.596654996 6.79038033e-25)
(-0.0660956591 0.588061596 8.58363312e-26)
(0.138277304 0.582221289 0)
(0.377048122 0.575703763 0)
(0.664045062 0.566339016 6.97394596e-25)
(0.994748663 0.556034424 9.46341872e-25)
(1.37512904 0.546765635 -1.10361285e-25)
(1.81236141 0.538526718 0)
(2.31109358 0.530991151 -1.10698532e-24)
(2.87658836 0.524368978 -1.55779278e-24)
(3.51418998 0.518930903 -3.40817728e-24)
(4.22906179 0.514866168 -3.81908478e-24)
(5.0257669 0.513023032 -4.78651864e-24)
(5.90718724 0.514569394 -3.09032805e-32)
(6.87452803 0.520312045 3.69257792e-32)
(7.92652296 0.530724922 -1.45248148e-23)
(9.06074254 0.545263131 -7.61965866e-24)
(10.2696833 0.565024366 7.64473268e-24)
(11.5378711 0.592153976 7.54602715e-24)
(12.8498582 0.626894876 0)
(14.1953994 0.655551107 7.8070711e-24)
(15.545356 0.696617325 1.5201736e-23)
(16.7998329 0.808919497 7.871159e-24)
(18.1388581 0.815971216 0)
(19.5006843 0.640752816 -4.0383122e-26)
(20.3712602 1.01310382 7.96601925e-24)
(21.2042031 1.43887308 8.18363149e-24)
(22.5486604 0.747023538 0)
(23.4895848 0.44742599 0)
(23.6138969 1.32346691 1.05739424e-24)
(23.7128343 1.65148545 -1.13226415e-24)
(23.9243564 1.20640596 7.44743058e-24)
(23.9945598 0.854025076 9.5865722e-24)
(23.9929613 0.898972149 0)
(23.9937991 1.10454284 -1.36281228e-24)
(23.9187033 1.22746135 1.52360323e-23)
(-0.0289391785 0.0218650703 4.5873106e-28)
(-0.0842481557 0.0632344167 7.21534015e-28)
(-0.138220266 0.10311351 6.11778418e-27)
(-0.191217292 0.141773699 -3.48093473e-27)
(-0.243478208 0.17941598 -4.12829202e-27)
(-0.295125608 0.216143438 0)
(-0.346212449 0.252003276 -3.2982678e-27)
(-0.396758837 0.287005727 -2.23671468e-27)
(-0.446716651 0.321127091 2.94019613e-27)
(-0.496000877 0.354313648 6.43279851e-27)
(-0.544493306 0.386491298 1.49184011e-26)
(-0.59204822 0.417572494 5.90738762e-34)
(-0.638499201 0.447462526 2.57063761e-27)
(-0.683665064 0.476065064 3.46598902e-33)
(-0.727354462 0.503286733 -2.84830377e-27)
(-0.769369109 0.529040618 4.13706e-26)
(-0.809505732 0.553248838 -4.7926516e-26)
(-0.847556778 0.575844392 -6.59813606e-27)
(-0.883310038 0.596772546 5.55036012e-26)
(-0.916547684 0.615991935 7.27959157e-27)
(-0.947044652 0.633474749 -1.5333947e-26)
(-0.974562919 0.64920216 -7.91919063e-26)
(-0.998848842 0.663160973 -8.75995656e-26)
(-1.01963469 0.67534543 8.8392809e-27)
(-1.03663528 0.68575237 0)
(-1.04953647 0.694391096 9.65328502e-27)
(-1.05808228 0.701336059 0)
(-1.06195459 0.70669136 1.56170935e-25)
(-1.06081909 0.710627078 3.26241514e-25)
(-1.05430133 0.713360174 1.92485328e-25)
(-1.04220407 0.714842989 -1.59679186e-25)
(-1.0228777 0.715154605 -1.803221e-25)
(-0.995607866 0.714046708 5.32412093e-26)
(-0.959323071 0.711464114 2.80225236e-26)
(-0.912387023 0.707660851 -2.29164721e-25)
(-0.854623923 0.702627583 -2.88994363e-25)
(-0.784551428 0.696796052 0)
(-0.700747762 0.690255377 3.23359565e-25)
(-0.601344091 0.683028352 3.06082282e-25)
(-0.484197669 0.675132366 6.9965249e-26)
(-0.34755914 0.66618435 7.36612634e-26)
(-0.18792885 0.656267864 0)
(-0.00294825844 0.64764879 0)
(0.201184204 0.64141947 0)
(0.447046148 0.633674393 8.68767449e-26)
(0.732378754 0.623984884 6.5810473e-25)
(1.06171537 0.614456048 6.90942234e-25)
(1.44004232 0.606011334 0)
(1.87231603 0.598648064 0)
(2.36314532 0.592439084 9.07519882e-25)
(2.91800581 0.587781204 9.48117462e-25)
(3.54238184 0.585029546 1.25338643e-24)
(4.24132069 0.584844317 1.4717175e-24)
(5.01905126 0.58806371 -2.27133294e-25)
(5.87817939 0.595542828 -2.18005426e-24)
(6.81944209 0.607896865 -2.05592423e-24)
(7.84176186 0.625523301 -5.24915265e-24)
(8.94183373 0.64898618 -5.89442049e-24)
(10.1153577 0.677867337 0)
(11.3525574 0.712275032 1.03892576e-25)
(12.6396764 0.751541738 -6.81996123e-24)
(13.9590035 0.79806142 -1.3924528e-23)
(15.2821592 0.85390254 5.3656774e-27)
(16.586443 0.925204471 3.91835262e-26)
(17.8469433 0.989688912 -7.57555925e-24)
(19.0897016 1.02635659 7.49196717e-24)
(20.1702301 1.10821274 7.60420116e-24)
(21.1362632 1.27724966 -2.8912013e-25)
(22.1338747 1.18337206 -6.49419071e-24)
(23.0829024 1.04809647 -1.04915992e-23)
(23.5202409 1.31629446 6.84957223e-26)
(23.7993482 1.52907056 -1.46369923e-23)
(23.9586347 1.28948913 -1.17393359e-23)
(24.0062328 1.24812196 0)
(24.0445444 1.27860941 -9.17411686e-24)
(24.0218878 1.35415211 -1.73199819e-23)
(23.9723082 1.36799795 1.31980355e-24)
(23.9824476 1.25425148 1.24862779e-23)
(23.9962378 1.17704365 7.49046489e-24)
(23.9762018 1.17777915 1.31243836e-23)
(-0.0316973073 0.0220549861 2.29688753e-27)
(-0.0920201623 0.063670331 0)
(-0.150634562 0.103696627 0)
(-0.20796534 0.142437262 1.18581949e-30)
(-0.264294111 0.180120087 0)
(-0.31978128 0.216877703 0)
(-0.374499856 0.252771113 0)
(-0.428419891 0.287805026 -4.49990233e-27)
(-0.481466685 0.321958212 0)
(-0.533553552 0.355181354 2.50450635e-27)
(-0.584511069 0.387405795 2.05395063e-26)
(-0.634142781 0.418539689 3.47550417e-33)
(-0.682227435 0.448483386 -2.25475932e-26)
(-0.728524378 0.477135814 0)
(-0.772778889 0.504399133 -3.23312104e-27)
(-0.81472602 0.530182461 6.81269881e-27)
(-0.854092761 0.554404348 0)
(-0.890594055 0.576991397 6.0061123e-26)
(-0.923930236 0.59787846 7.94175414e-27)
(-0.953788626 0.617009981 -1.43234414e-25)
(-0.979869562 0.634306905 -9.07406666e-26)
(-1.00183771 0.649839078 9.0828086e-27)
(-1.01941296 0.663591969 0)
(-1.0322647 0.67561422 -1.26379992e-25)
(-1.04003763 0.685980739 -1.40762219e-25)
(-1.04239707 0.694802352 -1.4247803e-25)
(-1.03848487 0.701882203 -1.64268249e-25)
(-1.02767534 0.707263218 1.74597992e-25)
(-1.00923177 0.710940042 1.73085938e-25)
(-0.982261025 0.712903342 0)
(-0.945554269 0.713247054 -2.14658303e-25)
(-0.898736803 0.71221179 -2.34145368e-25)
(-0.840588427 0.709976326 2.94760288e-26)
(-0.769823407 0.70660447 -2.30843908e-25)
(-0.684984349 0.702172203 -2.78066293e-25)
(-0.584249895 0.696752443 -6.68567849e-26)
(-0.465556299 0.690424634 3.46655404e-26)
(-0.327112941 0.682906224 -3.23253399e-25)
(-0.16574165 0.674292814 -4.32565526e-25)
(0.0211431571 0.66674748 4.86223838e-25)
(0.22721629 0.661218123 7.62414591e-25)
(0.474450557 0.654368882 4.40983179e-25)
(0.759785779 0.645930552 0)
(1.0874661 0.638151864 -9.2306928e-26)
(1.46240896 0.631747727 -5.84870761e-25)
(1.88898699 0.626728681 -9.69902654e-26)
(2.37206509 0.623388942 1.93010742e-32)
(2.91692256 0.622204294 -7.12825582e-25)
(3.52877264 0.623865323 0)
(4.21229656 0.629131056 -1.07346903e-25)
(4.97135711 0.638692862 -1.43971275e-24)
(5.80833635 0.6532811 -1.4122676e-24)
(6.72406358 0.673532108 -3.93252563e-25)
(7.71754746 0.700044575 -2.30457223e-24)
(8.78592659 0.73340314 -2.26746939e-24)
(9.92376085 0.774131529 -2.65695783e-24)
(11.1246291 0.821319317 -8.41720329e-24)
(12.3768597 0.874527798 -5.87232106e-24)
(13.6637257 0.933948766 -6.17978322e-24)
(14.9645443 1.00000577 -6.48016216e-24)
(16.2601584 1.06810139 0)
(17.5306628 1.13721053 8.31004474e-26)
(18.7411642 1.20836778 -7.16585269e-24)
(19.8684707 1.29579175 -7.48720356e-24)
(20.8684751 1.38556629 -3.67357153e-26)
(21.7957189 1.44385799 0)
(22.5946645 1.44429215 9.6820482e-24)
(23.2683654 1.50401475 1.21624026e-23)
(23.7248421 1.57328187 6.59434954e-25)
(23.9125329 1.53787698 -5.93039734e-25)
(23.9775312 1.48186914 -2.85342811e-26)
(24.0014045 1.50942988 -1.28945587e-24)
(24.0003846 1.59282979 -7.98725085e-24)
(23.9536881 1.50725812 -1.88175741e-23)
(23.9593518 1.52584951 -2.64364514e-25)
(23.9738533 1.40713463 0)
(23.99058 1.36615539 -8.37515333e-24)
(23.953014 1.38333196 -1.29722793e-23)
(23.9512834 1.32709447 0)
(23.9312071 1.27761831 -1.31397129e-23)
(-0.0344313587 0.0220036502 -3.52489404e-27)
(-0.0996820883 0.0633512289 -4.50096848e-27)
(-0.162812088 0.102958464 -5.75136369e-27)
(-0.224301165 0.141149147 -1.024629e-27)
(-0.284463993 0.178168092 2.03867873e-27)
(-0.34347323 0.21416138 -2.28059249e-27)
(-0.401392278 0.249205773 3.56014397e-27)
(-0.458199261 0.283327769 2.84714417e-28)
(-0.513808107 0.316503805 2.6766666e-27)
(-0.568011179 0.348678245 5.6416805e-27)
(-0.620608521 0.379776516 -7.11450004e-27)
(-0.671365977 0.409713896 -3.96480097e-26)
(-0.719987818 0.438401379 -3.28561886e-26)
(-0.766158125 0.465739148 -3.64690429e-26)
(-0.809540447 0.491632413 3.66592132e-27)
(-0.84978161 0.515996496 6.2175551e-26)
(-0.886536282 0.538719815 0)
(-0.919412431 0.559802293 0)
(-0.948075995 0.579176494 7.94821855e-26)
(-0.972142388 0.596870195 2.00226947e-25)
(-0.991083113 0.612772639 1.11396975e-25)
(-1.00447755 0.626856428 1.24941731e-25)
(-1.01176721 0.639145929 3.26980448e-33)
(-1.01235419 0.649629241 -1.60794032e-25)
(-1.00555948 0.658304843 1.51243344e-25)
(-0.990559337 0.665164606 3.557244e-25)
(-0.966826982 0.670448919 1.80026414e-25)
(-0.93344775 0.674184607 -1.3546373e-26)
(-0.889396821 0.676425224 1.4143046e-26)
(-0.833530326 0.677235541 -2.95054066e-26)
(-0.764573087 0.676692555 0)
(-0.681051758 0.674895782 3.06815367e-25)
(-0.581162325 0.671960977 -3.3574564e-26)
(-0.462928602 0.668004856 -2.93164928e-25)
(-0.324538728 0.662840782 0)
(-0.163101783 0.65660014 -4.49212074e-25)
(0.0240061307 0.651220862 -3.85878655e-25)
(0.231071911 0.647459758 0)
(0.478217953 0.64269598 0)
(0.762390343 0.636744027 -4.2332039e-25)
(1.08740258 0.631811418 -5.17694322e-25)
(1.45813324 0.628535808 1.87547658e-25)
(1.878676 0.626981947 0)
(2.35373984 0.627661606 5.30832709e-25)
(2.88835343 0.631200727 1.29687648e-24)
(3.48726179 0.638295915 6.75971156e-25)
(4.15478232 0.649646247 1.07667198e-25)
(4.89454053 0.665922789 -2.41699172e-27)
(5.70889695 0.687876088 0)
(6.59891712 0.716270337 -1.40461024e-24)
(7.56399603 0.751843321 -1.92699306e-25)
(8.60151397 0.795220231 1.78821153e-24)
(9.70665575 0.846873435 -1.53040754e-25)
(10.8719897 0.907086928 -2.58151117e-24)
(12.0886141 0.975100479 -5.22204189e-24)
(13.3426517 1.05019525 -7.44486947e-33)
(14.6162595 1.13151795 2.91025721e-24)
(15.8890807 1.21677913 0)
(17.1402199 1.30361512 0)
(18.342124 1.39255259 6.68478117e-26)
(19.476595 1.47918951 1.03618451e-25)
(20.5275586 1.55456125 0)
(21.4650209 1.61603347 8.52621065e-24)
(22.2721977 1.67911602 8.80793883e-24)
(22.9216169 1.74224594 -8.49552609e-24)
(23.4169599 1.78700979 -2.43279835e-23)
(23.8491256 1.81024091 -1.21981137e-23)
(23.9398676 1.78936936 -8.9948332e-24)
(23.9510395 1.78360782 -7.88519046e-24)
(23.9540145 1.79549823 -4.16625496e-25)
(23.9548161 1.75893748 8.00577953e-24)
(23.9855116 1.66648706 9.19500828e-24)
(23.9983541 1.61284516 -1.44620242e-23)
(24.0057802 1.6465204 -5.93664726e-24)
(23.933616 1.63994011 -1.20309674e-23)
(23.8863097 1.6785852 -9.40992265e-24)
(23.9129053 1.57543484 -9.43142376e-24)
(23.939933 1.45898342 5.81075489e-32)
(23.9412028 1.39725781 2.63170942e-23)
(23.9347482 1.37757879 2.03640226e-23)
(-0.0373665445 0.0218604013 1.85391825e-27)
(-0.107833565 0.062719612 1.04049481e-27)
(-0.175653986 0.10163841 3.71920959e-27)
(-0.241352145 0.13895233 -1.81735709e-33)
(-0.305262264 0.174916457 -1.53362762e-27)
(-0.367555182 0.209684429 -2.30364039e-27)
(-0.428274912 0.243338274 4.66358909e-27)
(-0.487364293 0.275909636 1.79288664e-27)
(-0.544681355 0.307392178 7.13134529e-27)
(-0.600017539 0.337743687 9.53237459e-27)
(-0.653081826 0.366891132 1.20396367e-26)
(-0.703515085 0.394746866 1.15561648e-26)
(-0.750953899 0.421223201 1.88786856e-26)
(-0.795008158 0.446225524 2.74032648e-26)
(-0.835241508 0.469726013 4.11317273e-27)
(-0.871217484 0.491577834 4.32368468e-27)
(-0.902419384 0.511790869 8.32382943e-26)
(-0.928402668 0.530269681 9.65301749e-26)
(-0.94858982 0.547008437 -9.97234262e-27)
(-0.962395962 0.561934816 -1.0564655e-26)
(-0.969223472 0.575146049 1.19105125e-25)
(-0.968411928 0.586616155 1.33316908e-25)
(-0.959221424 0.59636299 0)
(-0.940808273 0.604437869 1.27934898e-26)
(-0.912262174 0.610873739 0)
(-0.87256521 0.615731545 0)
(-0.820575934 0.619094915 1.46831208e-26)
(-0.754998869 0.621073322 -2.7731323e-25)
(-0.674362731 0.621788273 -2.50799926e-25)
(-0.576944082 0.621371517 2.51480241e-25)
(-0.460843312 0.619967718 2.92252552e-25)
(-0.324239766 0.617478061 3.60096231e-26)
(-0.164476777 0.614058198 -3.7682777e-26)
(0.0211118564 0.611348127 0)
(0.227576863 0.609952091 4.04289632e-26)
(0.472821565 0.607952254 0)
(0.754174731 0.605238598 0)
(1.07513594 0.603840747 4.67833786e-26)
(1.44038617 0.60437671 0)
(1.85375853 0.607022547 0)
(2.31965585 0.612356114 5.95092139e-25)
(2.84271665 0.621015113 7.52569421e-25)
(3.42731357 0.633694194 0)
(4.07746525 0.651103232 0)
(4.79666807 0.673956515 0)
(5.58735209 0.703091887 1.12057702e-25)
(6.45077554 0.739339373 1.07497427e-25)
(7.38667641 0.783453131 1.19318966e-24)
(8.39293313 0.836061474 1.50165951e-24)
(9.46529336 0.897621455 1.74909221e-24)
(10.5971286 0.968384814 2.04707305e-24)
(11.7793595 1.04830068 2.30329828e-24)
(13.0010609 1.13652558 2.55250266e-24)
(14.2477848 1.23174216 0)
(15.5005909 1.3332212 0)
(16.736838 1.43958362 -3.0106422e-24)
(17.9337372 1.54932649 -6.31901412e-24)
(19.0667452 1.65653184 -3.40814262e-24)
(20.1228933 1.75569954 -3.66961937e-24)
(21.0727623 1.84466547 -3.90914002e-24)
(21.9116242 1.93110136 8.61303007e-24)
(22.6205174 2.00426737 1.60042758e-23)
(23.1865603 2.0411888 2.5092254e-25)
(23.6191367 2.06106161 -1.14273981e-23)
(23.9249495 2.08596825 2.07303397e-25)
(24.0032199 2.07152124 -5.73373792e-25)
(23.959132 2.11497823 5.39930169e-24)
(23.9380797 2.05367587 -5.67617558e-32)
(23.9417629 2.01684448 -7.1602694e-24)
(23.9379771 1.9705882 -3.52792106e-25)
(23.9238532 1.95753929 9.08477836e-24)
(23.9468905 1.87978616 9.69634646e-24)
(23.9792374 1.77109146 0)
(23.9818983 1.70454373 7.10826193e-25)
(23.9738631 1.71698432 0)
(23.8844388 1.73218872 1.04204781e-23)
(23.8366621 1.75104682 2.3184389e-23)
(23.8497331 1.72851873 8.41503898e-24)
(23.8777151 1.62688415 8.36240912e-24)
(23.8965566 1.54539092 2.32547326e-23)
(-0.0404819619 0.0215968648 1.79264961e-27)
(-0.116367618 0.0617255627 5.36019399e-27)
(-0.188915792 0.0997061192 -1.24731624e-27)
(-0.258681375 0.135877608 -2.39742829e-27)
(-0.326001742 0.170497671 -4.0223717e-28)
(-0.391028069 0.203722148 3.04252198e-28)
(-0.453766017 0.235635279 -3.08736573e-27)
(-0.514104376 0.266270623 -1.01964572e-26)
(-0.571833904 0.295622793 -1.34418149e-26)
(-0.626659666 0.323660455 -1.71630002e-26)
(-0.678217551 0.350322331 0)
(-0.726073582 0.375574948 -8.00591942e-27)
(-0.769755485 0.399301971 4.21881314e-27)
(-0.808716162 0.421466409 0)
(-0.842411901 0.441954868 0)
(-0.870199829 0.460776908 0)
(-0.89147164 0.47786895 0)
(-0.90554471 0.493222831 -5.43051422e-27)
(-0.911686447 0.506837828 0)
(-0.909101633 0.5187329 -8.15549008e-26)
(-0.896957856 0.528931016 -8.99370643e-26)
(-0.874284578 0.537509101 1.58869996e-25)
(-0.840053404 0.544520436 1.89944449e-25)
(-0.793106447 0.550063675 -1.94090021e-25)
(-0.732158129 0.554250004 -2.42899536e-25)
(-0.655767116 0.557209423 -2.48068489e-25)
(-0.562276626 0.559092256 -2.50919221e-25)
(-0.44985523 0.560069561 -3.13403251e-25)
(-0.316684808 0.560121066 -6.08488864e-25)
(-0.16030905 0.559428254 -3.68509654e-25)
(0.0219529654 0.559344421 0)
(0.226038403 0.560364661 -4.07172031e-26)
(0.467486821 0.561204599 -4.31724662e-26)
(0.744082484 0.56185542 0)
(1.05926878 0.564074699 4.66399628e-26)
(1.417257 0.568466121 0)
(1.82166229 0.575281926 0)
(2.27657411 0.585126632 6.24002866e-25)
(2.78626506 0.598659558 -5.46802197e-26)
(3.35479834 0.616599633 -6.75146032e-25)
(3.98596235 0.639709506 8.01488485e-25)
(4.68312307 0.668753315 8.19838695e-25)
(5.44870836 0.704580014 5.94090854e-26)
(6.28411653 0.748007367 0)
(7.18940327 0.79976858 1.0476051e-24)
(8.16297417 0.860469246 1.44499148e-24)
(9.20129657 0.930541502 0)
(10.2986383 1.01018306 0)
(11.4468653 1.09928884 -2.16739156e-24)
(12.6355631 1.19740881 -2.48313644e-24)
(13.8519967 1.30366547 2.68781224e-24)
(15.0813434 1.41628939 2.76479256e-24)
(16.3042344 1.53377657 -2.92260396e-24)
(17.4998153 1.65386638 -7.7084605e-35)
(18.6463531 1.77449017 3.09778846e-24)
(19.7199695 1.89316562 1.55829185e-26)
(20.6994021 2.0116669 0)
(21.5602743 2.12274911 1.38670303e-25)
(22.3098168 2.21815826 -2.75694483e-24)
(22.9324634 2.27995044 2.34512064e-25)
(23.4765969 2.34352118 5.36357931e-24)
(23.7756024 2.37715072 0)
(23.9458683 2.42145692 1.74944981e-25)
(23.9920793 2.4347919 0)
(23.9817373 2.40283229 1.43278416e-25)
(23.9948116 2.38601656 -6.77994226e-26)
(23.9469558 2.34883401 -2.50730905e-25)
(23.8806263 2.38324328 -9.99614372e-24)
(23.902424 2.27471351 -6.79084948e-24)
(23.905778 2.1671318 -4.79152137e-25)
(23.8943389 2.12145355 -7.36987916e-24)
(23.8539701 2.06891238 -1.38144697e-23)
(23.8820987 2.00312911 -8.9538791e-24)
(23.9051522 1.8659375 -1.01716478e-23)
(23.9052091 1.77257921 -1.72114713e-23)
(23.8967414 1.77217329 -1.17640001e-23)
(23.8440712 1.73237693 1.33446438e-23)
(23.823471 1.71739037 1.62409703e-23)
(23.8357451 1.72896146 -6.95050287e-25)
(23.840576 1.6447128 1.27121406e-24)
(-0.0435202382 0.0210702956 1.42825537e-27)
(-0.124498916 0.0599807985 -5.41459209e-27)
(-0.201255583 0.0965678631 -1.41958107e-27)
(-0.274355078 0.131168954 -1.46073786e-33)
(-0.344116985 0.164038233 1.87533024e-27)
(-0.410651236 0.195330634 -1.66211773e-27)
(-0.473903973 0.225132189 7.52522327e-27)
(-0.533685521 0.253489564 2.79624805e-33)
(-0.589692002 0.280393453 -2.62860693e-26)
(-0.641512316 0.305822974 -1.91750348e-26)
(-0.688642064 0.329740707 4.31703842e-27)
(-0.730519947 0.35206672 -3.23613093e-26)
(-0.766487823 0.372784773 -2.81981377e-26)
(-0.795874107 0.39183359 -3.87485099e-26)
(-0.817940877 0.409187635 -4.49366398e-26)
(-0.831903745 0.424833047 5.1596324e-26)
(-0.8369223 0.438774995 5.88873379e-26)
(-0.832084965 0.451047625 -6.09715165e-27)
(-0.816452781 0.461681845 0)
(-0.788903499 0.470774466 -7.60225509e-26)
(-0.748293999 0.478392409 -9.19374512e-26)
(-0.693340503 0.484662194 -1.49011744e-26)
(-0.622627621 0.489723779 1.11384791e-25)
(-0.534560463 0.49374406 1.37664969e-25)
(-0.427382711 0.496918554 -3.40812255e-26)
(-0.299302473 0.499300996 0)
(-0.148038291 0.501101184 1.88232085e-26)
(0.0290740343 0.503431614 2.17141486e-28)
(0.228838169 0.506714256 -3.47803841e-25)
(0.464533719 0.510183827 -3.54333636e-25)
(0.734418534 0.513931394 4.21515084e-25)
(1.04184986 0.51944691 3.86203241e-25)
(1.39062207 0.527322125 -9.71519456e-26)
(1.78414183 0.537887777 -4.5534768e-25)
(2.22620502 0.551779548 -3.75169188e-32)
(2.72075276 0.569689609 5.88717739e-25)
(3.27156901 0.592364502 -6.96418008e-25)
(3.88221078 0.620587987 -6.99040925e-25)
(4.55588274 0.655138126 -1.20252149e-25)
(5.29499419 0.696854954 6.16501606e-26)
(6.10105862 0.746546103 6.11508874e-26)
(6.97442443 0.804936641 -1.05484235e-24)
(7.91398467 0.872626737 -2.33493532e-24)
(8.91688872 0.950045631 -1.37178411e-24)
(9.97826635 1.03738755 -1.69498731e-24)
(11.0909982 1.1345401 -1.83198497e-24)
(12.2455934 1.24101531 0)
(13.4302136 1.35590036 2.37398483e-24)
(14.6308122 1.47786037 2.76873052e-24)
(15.8325899 1.60447837 2.96650955e-24)
(17.0164405 1.73370046 6.30934161e-24)
(18.1609915 1.86327592 6.66762335e-24)
(19.2445777 1.99014121 7.0463036e-24)
(20.2483236 2.11036495 7.47435371e-24)
(21.1548443 2.21982681 3.96276735e-24)
(21.9488459 2.31625657 -1.70753348e-25)
(22.6131306 2.40216273 0)
(23.1394453 2.48021909 -4.57273537e-24)
(23.5321595 2.52498441 -5.13901844e-24)
(23.8259573 2.56770121 0)
(23.8865761 2.56487158 -4.53364143e-24)
(23.9481344 2.56375385 -3.11369392e-24)
(23.9797255 2.54649143 0)
(23.9759319 2.53861598 -1.21236058e-25)
(23.9740944 2.55956872 0)
(23.9620897 2.54252666 -1.05724553e-23)
(23.9657344 2.5570865 -3.40989475e-25)
(23.8636226 2.57333106 8.33379901e-24)
(23.7822023 2.60933358 -3.94043547e-25)
(23.7845175 2.54275248 -2.96546866e-25)
(23.811942 2.44580837 -9.11007945e-24)
(23.7940894 2.35112706 -8.86133113e-24)
(23.7833686 2.29692915 -3.14085462e-25)
(23.7983359 2.192365 -3.7062824e-25)
(23.8125325 2.09858905 -5.76292724e-26)
(23.8454555 1.99433603 -3.52026163e-25)
(23.8409595 1.93195141 1.13254015e-23)
(23.8464429 1.88376432 2.59677032e-23)
(23.877995 1.8701675 9.86788383e-24)
(23.8762665 1.83376573 -6.16034342e-25)
(-0.046107516 0.0201370396 0)
(-0.131078572 0.057078556 -1.5320868e-27)
(-0.210707542 0.0915802018 1.61498396e-27)
(-0.285545001 0.123977839 -4.96414225e-27)
(-0.355864781 0.154515684 1.79523566e-27)
(-0.421700693 0.183348269 1.89175935e-27)
(-0.482898571 0.210564428 -1.29479407e-26)
(-0.539152962 0.236200556 0)
(-0.590012321 0.26027683 4.41136462e-27)
(-0.63492392 0.282777539 -2.56116875e-26)
(-0.673232425 0.303682025 -2.5919107e-26)
(-0.704197235 0.322966972 3.64238027e-26)
(-0.727003919 0.340614284 5.42290934e-27)
(-0.740769535 0.356618564 -9.27305491e-26)
(-0.74453714 0.370998227 -1.12581351e-25)
(-0.737297084 0.383771178 -5.72720448e-26)
(-0.717949018 0.395017815 -6.6070795e-27)
(-0.685272844 0.404809279 -8.02134578e-26)
(-0.637985855 0.413252703 -8.2183914e-26)
(-0.574665275 0.4205017 7.58371222e-27)
(-0.493781304 0.426736716 -8.01256758e-27)
(-0.393695804 0.432140198 -3.34002276e-26)
(-0.272640776 0.436826892 -1.27971417e-25)
(-0.128473088 0.441069048 -3.02085641e-25)
(0.0414267273 0.445785927 -1.60639186e-25)
(0.23469621 0.451320042 -1.9961055e-26)
(0.462521734 0.457306385 -1.25890687e-25)
(0.723650567 0.463916317 2.1933468e-26)
(1.02131685 0.472419211 -2.29182807e-26)
(1.35893391 0.483412339 -1.98736345e-25)
(1.73969613 0.497307456 0)
(2.16712314 0.514767205 -5.3990602e-25)
(2.64485614 0.536501867 -5.4118005e-26)
(3.17642189 0.56327138 6.5627028e-25)
(3.76516133 0.595872963 7.1207977e-25)
(4.41410761 0.635107215 7.71601876e-25)
(5.12565683 0.681810797 -6.14814343e-26)
(5.90142036 0.736795952 0)
(6.74199955 0.800798803 -1.27767889e-25)