/*--------------------------------*- C++ -*----------------------------------*\
  =========                 |
  \\      /  F ield         | OpenFOAM: The Open Source CFD Toolbox
   \\    /   O peration     | Website:  https://openfoam.org
    \\  /    A nd           | Version:  8
     \\/     M anipulation  |
\*---------------------------------------------------------------------------*/
FoamFile
{
    version     2.0;
    format      ascii;
    class       volScalarField;
    location    "0.068";
    object      p_rgh;
}
// * * * * * * * * * * * * * * * * * * * * * * * * * * * * * * * * * * * * * //

dimensions      [1 -1 -2 0 0 0 0];

internalField   nonuniform List<scalar> 
42400
(
101541.533
101541.522
101541.509
101541.495
101541.479
101541.462
101541.443
101541.423
101541.401
101541.378
101541.353
101541.327
101541.299
101541.269
101541.237
101541.204
101541.168
101541.13
101541.091
101541.049
101541.004
101540.957
101540.908
101540.855
101540.8
101540.741
101540.679
101540.614
101540.545
101540.472
101540.396
101540.315
101540.23
101540.141
101540.047
101539.949
101539.853
101539.758
101539.66
101539.545
101539.409
101539.266
101539.13
101538.999
101538.867
101538.73
101538.589
101538.447
101538.3
101538.15
101537.994
101537.847
101537.711
101537.56
101537.386
101537.22
101537.066
101536.917
101536.762
101536.603
101536.442
101536.277
101536.112
101535.952
101535.804
101535.673
101535.533
101535.392
101535.297
101535.081
101535.191
101535.977
101535.724
101534.44
101535.615
101536.859
101537.438
101537.135
101540.784
101543.233
101541.336
101541.327
101541.317
101541.306
101541.293
101541.279
101541.264
101541.247
101541.229
101541.209
101541.188
101541.166
101541.142
101541.116
101541.089
101541.06
101541.029
101540.996
101540.962
101540.925
101540.887
101540.846
101540.803
101540.757
101540.708
101540.657
101540.603
101540.546
101540.486
101540.423
101540.356
101540.285
101540.211
101540.136
101540.065
101539.992
101539.904
101539.798
101539.685
101539.578
101539.476
101539.371
101539.263
101539.151
101539.036
101538.918
101538.794
101538.678
101538.568
101538.464
101538.34
101538.197
101538.074
101537.962
101537.85
101537.737
101537.627
101537.52
101537.42
101537.329
101537.257
101537.21
101537.188
101537.19
101537.212
101537.288
101537.418
101537.594
101537.93
101538.183
101538.62
101540.05
101541.517
101542.049
101543.28
101545.909
101549.753
101553.863
101556.494
101557.992
101541.309
101541.303
101541.296
101541.287
101541.277
101541.266
101541.254
101541.241
101541.226
101541.21
101541.192
101541.174
101541.154
101541.133
101541.11
101541.086
101541.061
101541.034
101541.005
101540.975
101540.943
101540.909
101540.873
101540.835
101540.795
101540.753
101540.708
101540.661
101540.611
101540.558
101540.504
101540.451
101540.397
101540.335
101540.262
101540.18
101540.101
101540.025
101539.948
101539.867
101539.784
101539.698
101539.608
101539.512
101539.425
101539.35
101539.257
101539.144
101539.04
101538.95
101538.867
101538.78
101538.695
101538.614
101538.538
101538.471
101538.422
101538.394
101538.388
101538.403
101538.451
101538.543
101538.682
101538.887
101539.15
101539.52
101539.995
101540.545
101541.265
101542.028
101542.904
101543.986
101545.884
101548.817
101552.34
101555.488
101557.833
101560.032
101562.856
101565.766
101541.452
101541.447
101541.442
101541.435
101541.427
101541.418
101541.408
101541.398
101541.386
101541.373
101541.359
101541.344
101541.329
101541.312
101541.294
101541.275
101541.255
101541.235
101541.212
101541.189
101541.165
101541.139
101541.112
101541.083
101541.053
101541.021
101540.987
101540.952
101540.916
101540.88
101540.838
101540.79
101540.738
101540.683
101540.631
101540.579
101540.525
101540.468
101540.409
101540.346
101540.277
101540.216
101540.166
101540.098
101540.011
101539.938
101539.875
101539.81
101539.744
101539.68
101539.619
101539.564
101539.522
101539.497
101539.489
101539.501
101539.535
101539.601
101539.715
101539.879
101540.095
101540.387
101540.766
101541.262
101541.836
101542.557
101543.422
101544.439
101545.537
101546.687
101548.382
101552.06
101554.655
101555.944
101557.633
101560.146
101563.031
101565.145
101566.974
101569.032
101541.746
101541.742
101541.737
101541.731
101541.725
101541.717
101541.709
101541.7
101541.69
101541.68
101541.67
101541.658
101541.646
101541.634
101541.621
101541.608
101541.594
101541.579
101541.564
101541.548
101541.532
101541.514
101541.494
101541.474
101541.454
101541.433
101541.411
101541.388
101541.362
101541.335
101541.308
101541.28
101541.251
101541.219
101541.185
101541.15
101541.111
101541.067
101541.029
101541.003
101540.959
101540.898
101540.85
101540.811
101540.767
101540.721
101540.677
101540.637
101540.603
101540.581
101540.571
101540.575
101540.596
101540.64
101540.717
101540.834
101541.002
101541.226
101541.513
101541.878
101542.324
101542.87
101543.521
101544.337
101545.238
101546.309
101547.393
101548.739
101551.32
101554.582
101556.081
101556.6
101558.443
101561.313
101563.422
101565.631
101567.652
101570.181
101573.164
101575.674
101542.161
101542.157
101542.152
101542.146
101542.14
101542.134
101542.127
101542.119
101542.111
101542.103
101542.095
101542.087
101542.079
101542.071
101542.062
101542.054
101542.046
101542.038
101542.029
101542.018
101542.009
101542.001
101541.994
101541.987
101541.979
101541.97
101541.961
101541.951
101541.94
101541.929
101541.916
101541.902
101541.887
101541.87
101541.849
101541.833
101541.828
101541.808
101541.772
101541.748
101541.731
101541.709
101541.686
101541.664
101541.646
101541.634
101541.628
101541.631
101541.646
101541.677
101541.73
101541.812
101541.93
101542.09
101542.305
101542.581
101542.926
101543.357
101543.884
101544.514
101545.239
101546.072
101547.016
101548.127
101549.244
101550.792
101553.856
101556.155
101557.075
101557.883
101559.739
101561.821
101563.951
101566.226
101568.622
101571.049
101573.436
101575.58
101578.611
101581.29
101542.656
101542.651
101542.645
101542.639
101542.633
101542.627
101542.621
101542.615
101542.609
101542.604
101542.598
101542.594
101542.589
101542.585
101542.582
101542.579
101542.576
101542.574
101542.574
101542.576
101542.577
101542.579
101542.58
101542.582
101542.584
101542.586
101542.588
101542.591
101542.593
101542.596
101542.597
101542.595
101542.598
101542.611
101542.612
101542.6
101542.597
101542.602
101542.603
101542.603
101542.604
101542.608
101542.616
101542.629
101542.649
101542.679
101542.724
101542.788
101542.876
101542.994
101543.149
101543.348
101543.603
101543.923
101544.315
101544.797
101545.38
101546.063
101546.865
101547.783
101548.838
101549.924
101551.098
101552.856
101555.78
101557.447
101557.993
101559.534
101561.382
101562.877
101564.971
101567.215
101569.433
101571.713
101574.186
101576.717
101579.15
101581.629
101583.89
101586.307
101543.18
101543.174
101543.168
101543.162
101543.157
101543.152
101543.148
101543.144
101543.14
101543.138
101543.135
101543.134
101543.133
101543.134
101543.137
101543.141
101543.146
101543.152
101543.159
101543.167
101543.176
101543.186
101543.198
101543.21
101543.224
101543.238
101543.254
101543.269
101543.282
101543.3
101543.329
101543.348
101543.355
101543.371
101543.395
101543.417
101543.438
101543.46
101543.485
101543.514
101543.548
101543.589
101543.639
101543.701
101543.78
101543.879
101544.004
101544.16
101544.354
101544.593
101544.887
101545.246
101545.677
101546.196
101546.813
101547.53
101548.358
101549.278
101550.313
101551.317
101552.612
101554.788
101557.335
101559.116
101559.955
101561.255
101562.792
101564.236
101565.933
101568.076
101570.397
101572.748
101575.068
101577.497
101579.778
101582.08
101584.585
101587.15
101589.818
101591.728
101543.675
101543.669
101543.664
101543.659
101543.655
101543.652
101543.65
101543.649
101543.649
101543.65
101543.654
101543.658
101543.664
101543.671
101543.68
101543.69
101543.702
101543.716
101543.732
101543.749
101543.769
101543.79
101543.812
101543.836
101543.862
101543.886
101543.916
101543.955
101543.988
101544.012
101544.044
101544.083
101544.122
101544.161
101544.202
101544.246
101544.295
101544.348
101544.409
101544.478
101544.559
101544.655
101544.769
101544.905
101545.07
101545.268
101545.506
101545.792
101546.13
101546.532
101547.005
101547.561
101548.207
101548.948
101549.784
101550.723
101551.736
101552.827
101554.512
101557.079
101559.383
101560.5
101561.284
101562.384
101563.817
101565.516
101567.469
101570.26
101572.55
101574.479
101576.258
101578.081
101580.176
101582.276
101584.413
101586.548
101588.585
101590.632
101593.116
101596.208
101544.091
101544.087
101544.084
101544.081
101544.08
101544.08
101544.082
101544.086
101544.091
101544.098
101544.106
101544.117
101544.129
101544.144
101544.161
101544.18
101544.202
101544.225
101544.251
101544.28
101544.31
101544.343
101544.376
101544.415
101544.462
101544.504
101544.541
101544.585
101544.637
101544.689
101544.742
101544.798
101544.858
101544.923
101544.992
101545.069
101545.154
101545.25
101545.36
101545.486
101545.634
101545.806
101546.009
101546.249
101546.532
101546.864
101547.253
101547.706
101548.232
101548.84
101549.537
101550.326
101551.194
101552.138
101553.123
101554.312
101556.163
101558.545
101560.264
101561.228
101562.095
101563.501
101565.408
101567.231
101569.205
101571.135
101573.212
101575.205
101577.136
101578.87
101580.527
101582.448
101584.474
101586.392
101588.276
101590.363
101592.445
101594.737
101597.456
101599.533
101544.375
101544.374
101544.374
101544.375
101544.379
101544.384
101544.391
101544.4
101544.411
101544.425
101544.441
101544.46
101544.481
101544.506
101544.532
101544.562
101544.595
101544.63
101544.668
101544.708
101544.753
101544.805
101544.855
101544.902
101544.957
101545.018
101545.08
101545.145
101545.212
101545.284
101545.36
101545.442
101545.53
101545.626
101545.732
101545.851
101545.984
101546.136
101546.31
101546.512
101546.747
101547.02
101547.339
101547.711
101548.143
101548.642
101549.216
101549.877
101550.638
101551.502
101552.474
101553.556
101554.751
101556.059
101557.744
101559.421
101560.63
101561.752
101563.229
101564.739
101566.33
101568.34
101570.459
101572.276
101573.977
101575.66
101577.256
101578.771
101580.358
101582.236
101584.167
101585.897
101587.608
101589.632
101591.984
101594.303
101596.604
101598.848
101601.083
101603.229
101544.468
101544.471
101544.476
101544.483
101544.492
101544.504
101544.518
101544.535
101544.555
101544.578
101544.603
101544.633
101544.665
101544.701
101544.74
101544.782
101544.827
101544.877
101544.934
101544.991
101545.046
101545.109
101545.177
101545.248
101545.321
101545.398
101545.48
101545.566
101545.657
101545.754
101545.858
101545.97
101546.094
101546.23
101546.382
101546.553
101546.748
101546.97
101547.226
101547.521
101547.862
101548.257
101548.712
101549.235
101549.834
101550.517
101551.295
101552.179
101553.171
101554.268
101555.472
101556.76
101558.149
101559.645
101561.028
101562.512
101564.062
101565.502
101566.905
101568.413
101569.985
101571.393
101572.964
101574.658
101576.407
101578.405
101580.354
101582.175
101584.028
101585.903
101587.886
101589.951
101592.065
101594.399
101596.88
101599.314
101601.683
101603.639
101606.185
101607.93
101544.306
101544.315
101544.327
101544.341
101544.358
101544.378
101544.402
101544.429
101544.459
101544.493
101544.531
101544.573
101544.618
101544.667
101544.721
101544.782
101544.844
101544.906
101544.976
101545.051
101545.129
101545.211
101545.297
101545.387
101545.482
101545.582
101545.688
101545.8
101545.92
101546.05
101546.19
101546.344
101546.513
101546.702
101546.914
101547.154
101547.427
101547.737
101548.092
101548.498
101548.961
101549.487
101550.084
101550.756
101551.51
101552.349
101553.278
101554.3
101555.416
101556.613
101557.873
101559.206
101560.609
101562.052
101563.538
101564.968
101566.317
101567.669
101569.26
101571.043
101572.837
101574.778
101576.825
101579.098
101581.328
101583.277
101585.169
101587.108
101589.12
101591.178
101593.26
101595.558
101597.911
101600.093
101601.918
101603.792
101605.469
101607.495
101609.51
101611.27
101543.819
101543.836
101543.857
101543.88
101543.908
101543.939
101543.974
101544.013
101544.056
101544.104
101544.156
101544.213
101544.276
101544.342
101544.411
101544.487
101544.568
101544.653
101544.742
101544.836
101544.936
101545.04
101545.15
101545.266
101545.388
101545.518
101545.657
101545.805
101545.966
101546.141
101546.334
101546.546
101546.783
101547.048
101547.346
101547.683
101548.064
101548.495
101548.982
101549.53
101550.145
101550.832
101551.595
101552.433
101553.351
101554.334
101555.375
101556.448
101557.69
101559.217
101560.786
101562.278
101563.843
101565.519
101567.217
101569.072
101571.081
101573.335
101575.099
101576.684
101578.484
101580.18
101581.867
101583.576
101585.341
101587.156
101589.013
101590.983
101593.07
101595.206
101597.37
101599.49
101601.408
101603.16
101605.461
101607.78
101609.53
101611.273
101613.662
101616.553
101542.931
101542.957
101542.989
101543.025
101543.065
101543.109
101543.158
101543.211
101543.271
101543.335
101543.403
101543.477
101543.557
101543.642
101543.732
101543.828
101543.929
101544.036
101544.149
101544.268
101544.393
101544.526
101544.666
101544.815
101544.974
101545.145
101545.33
101545.53
101545.75
101545.992
101546.26
101546.559
101546.893
101547.267
101547.688
101548.159
101548.687
101549.277
101549.932
101550.656
101551.45
101552.316
101553.251
101554.239
101555.291
101556.473
101558.029
101560.046
101562.014
101563.599
101565.142
101566.802
101568.315
101569.689
101571.132
101572.733
101574.443
101576.214
101578.046
101580.219
101581.922
101583.249
101584.776
101586.467
101588.187
101590.044
101592.079
101594.103
101596.288
101598.707
101600.91
101602.998
101605.438
101608.04
101609.925
101611.953
101614.425
101615.891
101617.239
101619.331
101541.567
101541.605
101541.651
101541.701
101541.755
101541.814
101541.878
101541.948
101542.024
101542.105
101542.192
101542.285
101542.383
101542.488
101542.599
101542.717
101542.841
101542.972
101543.111
101543.257
101543.413
101543.579
101543.757
101543.948
101544.154
101544.379
101544.625
101544.896
101545.196
101545.53
101545.903
101546.32
101546.787
101547.311
101547.897
101548.55
101549.275
101550.078
101550.96
101551.925
101552.973
101554.104
101555.315
101556.585
101558.016
101559.73
101561.293
101562.623
101564.006
101565.48
101567.072
101568.636
101570.359
101572.343
101574.128
101575.596
101577.026
101578.504
101579.996
101581.375
101582.878
101584.752
101586.813
101589.302
101591.851
101594.408
101597.037
101599.818
101602.086
101604.045
101606.019
101608.4
101610.503
101612.289
101613.995
101615.889
101617.862
101620.144
101621.998
101623.239
101539.667
101539.719
101539.78
101539.845
101539.915
101539.99
101540.071
101540.157
101540.25
101540.349
101540.453
101540.565
101540.683
101540.807
101540.939
101541.078
101541.226
101541.382
101541.548
101541.725
101541.915
101542.12
101542.341
101542.582
101542.846
101543.137
101543.459
101543.816
101544.215
101544.661
101545.16
101545.717
101546.339
101547.031
101547.798
101548.644
101549.572
101550.584
101551.681
101552.861
101554.123
101555.461
101556.868
101558.368
101559.9
101561.513
101563.158
101564.57
101565.88
101567.261
101568.734
101570.261
101571.774
101573.223
101574.733
101576.398
101578.175
101580.316
101582.788
101585.246
101588.107
101590.518
101592.634
101594.986
101596.97
101598.711
101600.588
101602.575
101604.576
101606.581
101608.391
101610.585
101612.915
101615.209
101617.708
101620.193
101622.754
101624.677
101625.33
101627.712
101537.211
101537.277
101537.356
101537.437
101537.523
101537.614
101537.711
101537.814
101537.923
101538.039
101538.161
101538.289
101538.425
101538.568
101538.72
101538.881
101539.051
101539.234
101539.429
101539.639
101539.867
101540.115
101540.386
101540.685
101541.016
101541.383
101541.791
101542.247
101542.756
101543.323
101543.954
101544.653
101545.426
101546.275
101547.202
101548.209
101549.294
101550.457
101551.694
101553
101554.37
101555.791
101557.283
101558.818
101560.445
101561.993
101563.46
101565.056
101566.722
101568.258
101569.622
101571.416
101573.613
101575.901
101578.458
101581.265
101583.873
101585.936
101587.514
101588.923
101590.689
101592.914
101594.817
101596.592
101598.933
101601.446
101603.667
101605.478
101607.272
101609.285
101611.285
101613.778
101616.06
101618.345
101620.774
101622.391
101623.937
101626.295
101628.636
101630.812
101534.247
101534.33
101534.426
101534.525
101534.627
101534.735
101534.848
101534.968
101535.094
101535.226
101535.366
101535.513
101535.668
101535.833
101536.009
101536.196
101536.397
101536.615
101536.85
101537.107
101537.389
101537.7
101538.045
101538.428
101538.854
101539.329
101539.86
101540.45
101541.107
101541.833
101542.634
101543.512
101544.47
101545.507
101546.623
101547.815
101549.08
101550.415
101551.811
101553.279
101554.805
101556.359
101557.902
101559.389
101561.054
101563.133
101565.341
101567.677
101570.072
101572.549
101575.189
101577.647
101579.606
101581.289
101582.841
101584.239
101585.696
101587.469
101589.365
101591.435
101593.7
101596.285
101598.929
101600.995
101602.679
101604.266
101606.252
101608.682
101611.581
101614.362
101616.527
101617.883
101618.991
101620.773
101623.739
101625.977
101627.64
101629
101630.78
101632.709
101530.887
101530.986
101531.1
101531.216
101531.335
101531.46
101531.59
101531.727
101531.871
101532.023
101532.183
101532.354
101532.535
101532.729
101532.938
101533.164
101533.411
101533.681
101533.978
101534.307
101534.673
101535.08
101535.535
101536.043
101536.609
101537.241
101537.943
101538.72
101539.575
101540.511
101541.529
101542.628
101543.804
101545.054
101546.368
101547.732
101549.124
101550.537
101551.986
101553.775
101556.106
101558.703
101561.415
101564.192
101566.749
101568.615
101570.254
101572.127
101574.096
101575.659
101577.269
101579.106
101580.948
101582.73
101584.284
101586.304
101588.587
101590.449
101592.91
101596.135
101598.146
101599.753
101601.483
101603.433
101605.778
101608.508
101610.677
101612.65
101614.628
101616.304
101617.655
101619.463
101622.75
101625.163
101626.564
101628.862
101630.727
101631.893
101634.056
101635.904
101574.581
101574.587
101574.594
101574.601
101574.609
101574.617
101574.626
101574.636
101574.646
101574.656
101574.668
101574.68
101574.692
101574.706
101574.72
101574.734
101574.75
101574.766
101574.782
101574.8
101574.818
101574.837
101574.857
101574.877
101574.898
101574.92
101574.943
101574.967
101574.991
101575.017
101575.043
101575.069
101575.097
101575.126
101575.155
101575.185
101575.215
101575.247
101575.279
101575.312
101575.345
101575.379
101575.413
101575.448
101575.483
101575.518
101575.551
101575.584
101575.616
101575.646
101575.673
101575.698
101575.72
101575.739
101575.754
101575.768
101575.777
101575.777
101575.768
101575.745
101575.706
101575.647
101575.563
101575.448
101575.296
101575.101
101574.855
101574.552
101574.189
101573.766
101573.28
101572.769
101572.227
101571.551
101570.671
101569.549
101568.179
101566.791
101565.546
101563.685
101572.943
101572.948
101572.954
101572.961
101572.968
101572.976
101572.984
101572.994
101573.004
101573.015
101573.026
101573.039
101573.052
101573.066
101573.081
101573.096
101573.113
101573.13
101573.149
101573.168
101573.188
101573.21
101573.232
101573.256
101573.28
101573.306
101573.333
101573.361
101573.391
101573.421
101573.453
101573.486
101573.521
101573.557
101573.595
101573.634
101573.675
101573.717
101573.761
101573.807
101573.854
101573.903
101573.952
101574.003
101574.056
101574.11
101574.164
101574.218
101574.274
101574.334
101574.399
101574.465
101574.528
101574.589
101574.649
101574.706
101574.761
101574.809
101574.85
101574.879
101574.895
101574.891
101574.864
101574.806
101574.71
101574.568
101574.374
101574.125
101573.817
101573.446
101573.007
101572.475
101571.779
101570.974
101570.078
101569.127
101567.914
101566.573
101564.945
101562.628
101571.213
101571.217
101571.222
101571.228
101571.234
101571.242
101571.25
101571.259
101571.269
101571.279
101571.291
101571.303
101571.317
101571.331
101571.347
101571.363
101571.381
101571.399
101571.419
101571.44
101571.462
101571.486
101571.51
101571.537
101571.564
101571.593
101571.624
101571.656
101571.69
101571.725
101571.763
101571.802
101571.843
101571.887
101571.932
101571.98
101572.03
101572.083
101572.137
101572.194
101572.255
101572.317
101572.382
101572.45
101572.522
101572.601
101572.684
101572.77
101572.856
101572.945
101573.038
101573.134
101573.234
101573.335
101573.437
101573.54
101573.641
101573.739
101573.831
101573.913
101573.983
101574.032
101574.056
101574.044
101573.99
101573.884
101573.719
101573.487
101573.178
101572.783
101572.286
101571.65
101570.836
101570.001
101569.171
101567.977
101566.751
101565.402
101563.551
101561.637
101569.378
101569.381
101569.385
101569.39
101569.396
101569.402
101569.41
101569.418
101569.427
101569.437
101569.449
101569.461
101569.474
101569.489
101569.504
101569.521
101569.539
101569.558
101569.578
101569.6
101569.623
101569.648
101569.674
101569.702
101569.731
101569.762
101569.795
101569.83
101569.867
101569.906
101569.947
101569.991
101570.037
101570.086
101570.137
101570.191
101570.248
101570.309
101570.373
101570.44
101570.511
101570.589
101570.67
101570.755
101570.844
101570.938
101571.037
101571.142
101571.251
101571.365
101571.483
101571.606
101571.734
101571.867
101572.002
101572.141
101572.28
101572.418
101572.552
101572.679
101572.793
101572.888
101572.956
101572.988
101572.975
101572.906
101572.771
101572.559
101572.254
101571.843
101571.304
101570.603
101569.72
101568.675
101567.407
101566.323
101565.399
101564.449
101563.569
101561.825
101567.43
101567.432
101567.435
101567.438
101567.443
101567.449
101567.455
101567.462
101567.471
101567.48
101567.49
101567.502
101567.514
101567.528
101567.542
101567.558
101567.576
101567.594
101567.614
101567.636
101567.658
101567.683
101567.709
101567.736
101567.766
101567.797
101567.831
101567.866
101567.904
101567.944
101567.986
101568.031
101568.079
101568.13
101568.184
101568.241
101568.302
101568.367
101568.436
101568.51
101568.587
101568.67
101568.758
101568.851
101568.95
101569.055
101569.165
101569.281
101569.403
101569.53
101569.664
101569.803
101569.949
101570.1
101570.256
101570.416
101570.579
101570.742
101570.902
101571.054
101571.194
101571.313
101571.402
101571.45
101571.445
101571.373
101571.218
101570.964
101570.592
101570.079
101569.415
101568.609
101567.694
101566.668
101565.339
101563.535
101561.905
101560.772
101559.314
101557.566
101565.367
101565.368
101565.37
101565.372
101565.376
101565.38
101565.385
101565.391
101565.398
101565.406
101565.415
101565.425
101565.435
101565.447
101565.461
101565.475
101565.49
101565.507
101565.525
101565.544
101565.565
101565.587
101565.611
101565.637
101565.664
101565.693
101565.724
101565.757
101565.793
101565.831
101565.872
101565.914
101565.959
101566.008
101566.06
101566.115
101566.175
101566.238
101566.306
101566.378
101566.455
101566.537
101566.624
101566.717
101566.816
101566.92
101567.03
101567.147
101567.27
101567.399
101567.534
101567.674
101567.821
101567.972
101568.129
101568.289
101568.452
101568.614
101568.771
101568.919
101569.051
101569.158
101569.23
101569.253
101569.213
101569.096
101568.883
101568.554
101568.087
101567.472
101566.715
101565.821
101564.801
101563.644
101562.368
101561.021
101559.336
101557.407
101555.335
101553.433
101563.198
101563.199
101563.2
101563.201
101563.203
101563.206
101563.21
101563.214
101563.219
101563.225
101563.231
101563.239
101563.247
101563.256
101563.266
101563.277
101563.29
101563.303
101563.317
101563.333
101563.35
101563.368
101563.387
101563.408
101563.431
101563.455
101563.481
101563.509
101563.538
101563.569
101563.602
101563.638
101563.677
101563.719
101563.764
101563.812
101563.863
101563.918
101563.977
101564.04
101564.107
101564.179
101564.255
101564.337
101564.424
101564.516
101564.614
101564.717
101564.826
101564.941
101565.061
101565.186
101565.315
101565.448
101565.583
101565.72
101565.857
101565.99
101566.116
101566.227
101566.315
101566.371
101566.383
101566.337
101566.214
101565.993
101565.648
101565.158
101564.512
101563.706
101562.753
101561.654
101560.383
101558.909
101557.401
101555.986
101554.551
101553.144
101551.84
101549.925
101560.946
101560.946
101560.945
101560.946
101560.946
101560.948
101560.949
101560.951
101560.954
101560.957
101560.961
101560.965
101560.97
101560.975
101560.981
101560.988
101560.995
101561.004
101561.013
101561.023
101561.034
101561.046
101561.058
101561.072
101561.086
101561.101
101561.118
101561.136
101561.156
101561.178
101561.201
101561.226
101561.253
101561.282
101561.313
101561.347
101561.383
101561.421
101561.463
101561.508
101561.556
101561.608
101561.663
101561.722
101561.785
101561.852
101561.923
101561.999
101562.078
101562.161
101562.248
101562.338
101562.429
101562.521
101562.611
101562.697
101562.777
101562.849
101562.908
101562.948
101562.959
101562.924
101562.824
101562.643
101562.362
101561.959
101561.418
101560.722
101559.858
101558.834
101557.664
101556.337
101554.85
101553.221
101551.493
101549.852
101548.38
101547.026
101545.697
101543.221
101558.643
101558.642
101558.641
101558.64
101558.639
101558.638
101558.637
101558.636
101558.636
101558.636
101558.636
101558.636
101558.637
101558.638
101558.638
101558.64
101558.641
101558.643
101558.644
101558.646
101558.649
101558.652
101558.655
101558.659
101558.663
101558.668
101558.673
101558.679
101558.686
101558.693
101558.701
101558.71
101558.719
101558.73
101558.742
101558.754
101558.768
101558.784
101558.801
101558.819
101558.839
101558.86
101558.883
101558.908
101558.935
101558.963
101558.993
101559.021
101559.052
101559.083
101559.114
101559.146
101559.177
101559.207
101559.235
101559.257
101559.263
101559.249
101559.207
101559.129
101559.008
101558.831
101558.58
101558.232
101557.767
101557.168
101556.417
101555.499
101554.39
101553.084
101551.589
101549.903
101548.031
101546.011
101543.903
101541.771
101539.639
101537.488
101535.257
101532.464
101556.334
101556.332
101556.33
101556.327
101556.324
101556.321
101556.318
101556.314
101556.31
101556.306
101556.301
101556.297
101556.292
101556.287
101556.282
101556.276
101556.27
101556.264
101556.258
101556.251
101556.244
101556.237
101556.229
101556.221
101556.213
101556.204
101556.195
101556.185
101556.175
101556.165
101556.154
101556.143
101556.131
101556.119
101556.106
101556.092
101556.078
101556.063
101556.047
101556.031
101556.015
101555.997
101555.979
101555.959
101555.938
101555.913
101555.89
101555.864
101555.833
101555.8
101555.762
101555.718
101555.663
101555.597
101555.516
101555.422
101555.309
101555.172
101555.001
101554.786
101554.512
101554.169
101553.746
101553.222
101552.575
101551.781
101550.817
101549.645
101548.261
101546.638
101544.761
101542.651
101540.341
101537.867
101535.267
101532.544
101529.655
101526.348
101522.895
101519.582
101554.069
101554.067
101554.063
101554.059
101554.054
101554.048
101554.042
101554.035
101554.027
101554.019
101554.01
101554
101553.99
101553.979
101553.967
101553.954
101553.94
101553.925
101553.91
101553.893
101553.875
101553.856
101553.836
101553.815
101553.793
101553.769
101553.743
101553.716
101553.688
101553.658
101553.625
101553.591
101553.555
101553.516
101553.475
101553.432
101553.386
101553.337
101553.286
101553.231
101553.173
101553.113
101553.048
101552.98
101552.907
101552.819
101552.729
101552.639
101552.535
101552.42
101552.295
101552.159
101552.009
101551.841
101551.651
101551.433
101551.186
101550.902
101550.578
101550.201
101549.76
101549.238
101548.621
101547.888
101547.023
101546.008
101544.797
101543.384
101541.765
101539.898
101537.734
101535.286
101532.568
101529.549
101526.214
101522.693
101518.604
101514.388
101510.523
101506.762
101551.906
101551.902
101551.897
101551.891
101551.884
101551.876
101551.866
101551.856
101551.844
101551.831
101551.817
101551.802
101551.786
101551.768
101551.749
101551.729
101551.707
101551.683
101551.658
101551.631
101551.603
101551.572
101551.54
101551.505
101551.468
101551.429
101551.388
101551.343
101551.296
101551.246
101551.193
101551.135
101551.074
101551.01
101550.941
101550.869
101550.792
101550.71
101550.624
101550.533
101550.434
101550.326
101550.209
101550.077
101549.94
101549.799
101549.648
101549.489
101549.318
101549.131
101548.926
101548.703
101548.46
101548.196
101547.909
101547.591
101547.235
101546.832
101546.376
101545.855
101545.256
101544.564
101543.757
101542.817
101541.767
101540.584
101539.181
101537.579
101535.801
101533.609
101530.785
101527.752
101524.536
101521.027
101517.642
101514.29
101510.84
101507.536
101504.414
101501.744
101549.899
101549.893
101549.886
101549.878
101549.868
101549.857
101549.844
101549.83
101549.814
101549.797
101549.778
101549.758
101549.736
101549.712
101549.686
101549.658
101549.629
101549.597
101549.563
101549.527
101549.488
101549.446
101549.402
101549.355
101549.305
101549.251
101549.194
101549.134
101549.069
101549.001
101548.926
101548.848
101548.766
101548.679
101548.587
101548.488
101548.382
101548.268
101548.144
101548.008
101547.866
101547.721
101547.566
101547.399
101547.221
101547.032
101546.83
101546.613
101546.382
101546.134
101545.868
101545.58
101545.268
101544.927
101544.555
101544.148
101543.701
101543.212
101542.669
101542.059
101541.367
101540.587
101539.717
101538.756
101537.57
101536.084
101534.446
101532.656
101530.582
101528.195
101525.715
101523.198
101520.549
101517.785
101514.936
101511.968
101508.924
101505.979
101503.252
101500.899
101548.087
101548.08
101548.07
101548.059
101548.047
101548.033
101548.017
101547.999
101547.979
101547.958
101547.935
101547.909
101547.882
101547.853
101547.821
101547.787
101547.751
101547.712
101547.67
101547.626
101547.578
101547.528
101547.474
101547.416
101547.356
101547.291
101547.222
101547.149
101547.071
101546.989
101546.901
101546.806
101546.705
101546.597
101546.482
101546.359
101546.23
101546.095
101545.951
101545.796
101545.632
101545.458
101545.273
101545.076
101544.868
101544.647
101544.412
101544.161
101543.893
101543.606
101543.3
101542.972