/*--------------------------------*- C++ -*----------------------------------*\
  =========                 |
  \\      /  F ield         | OpenFOAM: The Open Source CFD Toolbox
   \\    /   O peration     | Website:  https://openfoam.org
    \\  /    A nd           | Version:  8
     \\/     M anipulation  |
\*---------------------------------------------------------------------------*/
FoamFile
{
    version     2.0;
    format      ascii;
    class       surfaceScalarField;
    location    "0.068";
    object      phi;
}
// * * * * * * * * * * * * * * * * * * * * * * * * * * * * * * * * * * * * * //

dimensions      [1 0 -1 0 0 0 0];

internalField   nonuniform List<scalar> 
84340
(
-4.77373132e-08
2.77681569e-07
-2.29867889e-07
-2.04260708e-07
8.55753709e-07
-6.99106842e-07
-4.84796209e-07
1.47803973e-06
-1.19735166e-06
-9.02373041e-07
2.14825694e-06
-1.73050233e-06
-1.46804087e-06
2.86878415e-06
-2.30291615e-06
-2.19116216e-06
3.64044194e-06
-2.91709955e-06
-3.07975807e-06
4.46278036e-06
-3.57394273e-06
-4.14081511e-06
5.33455414e-06
-4.27323425e-06
-5.38053023e-06
6.25418596e-06
-5.01418572e-06
-6.8044852e-06
7.22009899e-06
-5.79583506e-06
-8.41775116e-06
8.23091664e-06
-6.61731597e-06
-1.02249292e-05
9.28554549e-06
-7.47800482e-06
-1.22301374e-05
1.03831773e-05
-8.37757608e-06
-1.44369538e-05
1.15232412e-05
-9.31599864e-06
-1.68483155e-05
1.27053229e-05
-1.0293499e-05
-1.94663981e-05
1.39290873e-05
-1.13105033e-05
-2.22924544e-05
1.51941913e-05
-1.23675908e-05
-2.53266413e-05
1.65002113e-05
-1.34654337e-05
-2.85678156e-05
1.78465825e-05
-1.46047669e-05
-3.20133106e-05
1.92325424e-05
-1.57863512e-05
-3.56586899e-05
2.06570848e-05
-1.70109495e-05
-3.94974763e-05
2.21189155e-05
-1.82793083e-05
-4.352085e-05
2.36164031e-05
-1.9592138e-05
-4.7717329e-05
2.51475334e-05
-2.09500867e-05
-5.20724043e-05
2.67098417e-05
-2.2353716e-05
-5.6568152e-05
2.83003432e-05
-2.38034553e-05
-6.11828141e-05
2.99154359e-05
-2.5299537e-05
-6.58903201e-05
3.15507918e-05
-2.68419445e-05
-7.06597373e-05
3.3201196e-05
-2.84303248e-05
-7.5454579e-05
3.48603174e-05
-3.00639007e-05
-8.02321631e-05
3.65206417e-05
-3.17413528e-05
-8.49432773e-05
3.81735803e-05
-3.3460623e-05
-8.95318089e-05
3.98091475e-05
-3.52186275e-05
-9.39302651e-05
4.14118092e-05
-3.70112054e-05
-9.80532074e-05
4.29589093e-05
-3.88336432e-05
-0.000101808125
4.44380638e-05
-4.06806448e-05
-0.000105103036
4.58397599e-05
-4.25422075e-05
-0.000107838172
4.712777e-05
-4.43898446e-05
-0.000109870356
4.82472918e-05
-4.62120975e-05
-0.000110994768
4.91274322e-05
-4.79997767e-05
-0.00011099841
4.97331848e-05
-4.97260996e-05
-0.000109666681
5.00021279e-05
-5.13301903e-05
-0.000106786829
4.98532813e-05
-5.27292484e-05
-0.000102092323
4.91929573e-05
-5.38833643e-05
-9.52507523e-05
4.79081852e-05
-5.47454517e-05
-8.59153458e-05
4.58824962e-05
-5.52133967e-05
-7.37284611e-05
4.29848553e-05
-5.51670582e-05
-5.82625168e-05
3.90233727e-05
-5.44844701e-05
-3.91330458e-05
3.38895055e-05
-5.30140059e-05
-1.5828726e-05
2.73033065e-05
-5.0602552e-05
1.19440962e-05
1.92947104e-05
-4.70624104e-05
4.50531712e-05
9.01549582e-06
-4.21195031e-05
8.42837868e-05
-3.62775785e-06
-3.55979387e-05
0.000130532839
-1.88036642e-05
-2.74406024e-05
0.000184779114
-3.73602391e-05
-1.68814842e-05
0.000248174592
-5.97206053e-05
-3.67070021e-06
0.000321802633
-8.63287581e-05
1.27043466e-05
0.000407234775
-0.000117796967
3.23677596e-05
0.000505530665
-0.00015481844
5.65246164e-05
0.000618011029
-0.000198040928
8.55615465e-05
0.000746343087
-0.00024822588
0.000119893503
0.000892105105
-0.000306070677
0.000160306725
0.00105669418
-0.000372214681
0.000207621846
0.00124116066
-0.000446946534
0.000262473999
0.00144634131
-0.000530813743
0.000325624735
0.00167354626
-0.000624726386
0.000397510915
0.00192290073
-0.000727516591
0.000478149727
0.00219594208
-0.000842166489
0.00056911063
0.0024972396
-0.000969084064
0.000667770117
0.00281282899
-0.00108654771
0.000770939838
0.00313940629
-0.00125784508
0.000931248018
0.00355337874
-0.00151210751
0.00109811405
0.00405676013
-0.00162162422
0.00111822206
0.00444600736
-0.00165981662
0.00127055069
0.00473808465
-0.00199601491
0.00170392441
0.0052661264
-0.00239968031
0.00187163367
0.00601687872
-0.0024580284
0.0017072827
0.00655593375
-0.00252747041
0.00198843422
0.00681531249
-0.00281202679
0.00255271222
-0.0030506313
0.00287382528
0.00699219527
-3.4439458e-08
3.12211157e-07
-1.49962045e-07
9.71402977e-07
-3.59962194e-07
1.68818503e-06
-6.75925426e-07
2.46438268e-06
-1.10743299e-06
3.30047093e-06
-1.66238583e-06
4.19559072e-06
-2.34740514e-06
5.14801292e-06
-3.16800633e-06
6.15538693e-06
-4.12880938e-06
7.21524035e-06
-5.23368808e-06
8.32525049e-06
-6.48585262e-06
9.48337734e-06
-7.88787042e-06
1.0687885e-05
-9.44163115e-06
1.19372876e-05
-1.11482626e-05
1.32302527e-05
-1.3008015e-05
1.45654884e-05
-1.50200961e-05
1.59416178e-05
-1.71824893e-05
1.73570733e-05
-1.94917372e-05
1.88099907e-05
-2.19426948e-05
2.02981182e-05
-2.45282611e-05
2.18187373e-05
-2.72390816e-05
2.33685883e-05
-3.00632159e-05
2.49437917e-05
-3.29857871e-05
2.65397798e-05
-3.59885886e-05
2.81512087e-05
-3.90496556e-05
2.97718559e-05
-4.21427815e-05
3.1394495e-05
-4.52369545e-05
3.30107186e-05
-4.8295772e-05
3.46108084e-05
-5.12769815e-05
3.61836988e-05
-5.41313279e-05
3.77160586e-05
-5.6800436e-05
3.91912534e-05
-5.92154321e-05
4.05901835e-05
-6.13009442e-05
4.18963635e-05
-6.29796726e-05
4.30923625e-05
-6.4169195e-05
4.41503864e-05
-6.47503175e-05
4.50212635e-05
-6.45532746e-05
4.56449153e-05
-6.33992845e-05
4.59761064e-05
-6.11045956e-05
4.59550683e-05
-5.74832828e-05
4.55087286e-05
-5.23106861e-05
4.45633234e-05
-4.53262883e-05
4.30205924e-05
-3.62464448e-05
4.07764125e-05
-2.47598084e-05
3.77094076e-05
-1.04987938e-05
3.36503454e-05
6.88547829e-06
2.85014795e-05
2.76104163e-05
2.22632264e-05
5.2298371e-05
1.43387825e-05
8.15938109e-05
4.59738634e-06
0.000116188727
-7.28836548e-06
0.000156906498
-2.14198797e-05
0.000204664297
-3.87392146e-05
0.00026045647
-5.9417065e-05
0.000325543689
-8.38883009e-05
0.000400959114
-0.000112773493
0.000487923469
-0.000146683291
0.000587880845
-0.000186285131
0.000702335483
-0.000232251406
0.000832784222
-0.000285267983
0.000980668432
-0.000345927134
0.00114745176
-0.000415012623
0.0013341692
-0.000492793296
0.00154176007
-0.000579812463
0.00177098259
-0.000676177562
0.00202230842
-0.000782149579
0.0022981082
-0.000900538015
0.00259908776
-0.00102850991
0.00292278878
-0.00116588361
0.00327636885
-0.00132268242
0.00366165792
-0.00147185756
0.00403233901
-0.00162854857
0.00439877484
-0.00187856727
0.00490283922
-0.00212571198
0.00546010613
-0.0022171049
0.00582325995
-0.00235918469
0.0060690647
-0.0026454939
0.00646038323
-0.00284934431
0.00687413308
-0.00294120393
0.0071267763
-0.00306463618
-0.0032014176
0.00727761084
-2.28293892e-08
3.35143878e-07
-1.02236049e-07
1.05095336e-06
-2.49606071e-07
1.83571864e-06
-4.74560462e-07
2.68951944e-06
-7.8490767e-07
3.61101869e-06
-1.18683912e-06
4.59774097e-06
-1.6850228e-06
5.64643424e-06
-2.28301896e-06
6.75364063e-06
-2.98342266e-06
7.91592295e-06
-3.78793114e-06
9.13006093e-06
-4.69740768e-06
1.03931809e-05
-5.71188131e-06
1.17027129e-05
-6.83049114e-06
1.30562813e-05
-8.05138229e-06
1.445156e-05
-9.37156005e-06
1.58861175e-05
-1.0786712e-05
1.73572592e-05
-1.22909885e-05
1.88618808e-05
-1.38767621e-05
2.03963404e-05
-1.55343497e-05
2.19563308e-05
-1.72517121e-05
2.35367775e-05
-1.90141251e-05
2.51317366e-05
-2.08037968e-05
2.67342606e-05
-2.25993998e-05
2.83362469e-05
-2.43755645e-05
2.99283095e-05
-2.61023214e-05
3.14996259e-05
-2.77443799e-05
3.30376494e-05
-2.92596957e-05
3.45272193e-05
-3.05996577e-05
3.59520514e-05
-3.17100812e-05
3.72954999e-05
-3.25317158e-05
3.85391684e-05
-3.3002957e-05
3.96640797e-05
-3.30426316e-05
4.06315622e-05
-3.2551093e-05
4.14066434e-05
-3.14006592e-05
4.19438718e-05
-2.94394712e-05
4.21912733e-05
-2.65070547e-05
4.20910638e-05
-2.24345105e-05
4.15747314e-05
-1.70335318e-05
4.05776286e-05
-1.00873913e-05
3.90115646e-05
-1.35938095e-06
3.67834919e-05
9.41987489e-06
3.37869683e-05
2.25645593e-05
2.98789326e-05
3.83902913e-05
2.49538163e-05
5.70845503e-05
1.90183927e-05
7.92368966e-05
1.15012801e-05
0.000105393172
2.34850958e-06
0.000136206444
-8.54668884e-06
0.000172421395
-2.18727732e-05
0.0002148913
-3.78691701e-05
0.000264513265
-5.69070473e-05
0.000322517732
-7.94212063e-05
0.000389731926
-0.00010595045
0.000467373124
-0.000137055588
0.000556817953
-0.000173330793
0.00065947719
-0.000215430861
0.000776806018
-0.000264010818
0.000910308315
-0.000319786864
0.00106136454
-0.000383307915
0.00123128286
-0.000455187647
0.00142099618
-0.000535643041
0.0016311267
-0.000625147076
0.00186257175
-0.000724243514
0.00211629167
-0.000833538856
0.00239331056
-0.000953204459
0.002692738
-0.00108158669
0.00301528968
-0.0012231014
0.00336247026
-0.0013757043
0.0037299359
-0.00153336559
0.00411129086
-0.00170405603
0.00452545195
-0.00188603993
0.00495286813
-0.00205598776
0.00531555795
-0.00224128162
0.00565669588
-0.00246687276
0.00606716701
-0.0026275974
0.00643260561
-0.00272464169
0.00661897658
-0.00283187857
0.00674627697
-0.00297665045
0.00690771875
-0.00310263947
0.00706350684
-0.00322040046
-0.00332335811
0.00718548984
-1.6135832e-08
3.51348909e-07
-7.37676453e-08
1.10867995e-06
-1.82178001e-07
1.94423589e-06
-3.48909508e-07
2.85636963e-06
-5.79772108e-07
3.84201176e-06
-8.78952469e-07
4.89706398e-06
-1.2490707e-06
6.01670802e-06
-1.69133315e-06
7.19607253e-06
-2.20564625e-06
8.43042066e-06
-2.79112396e-06
9.7157399e-06
-3.44584736e-06
1.10481239e-05
-4.16683103e-06
1.24239363e-05
-4.94994075e-06
1.3839653e-05
-5.78977543e-06
1.52916811e-05
-6.67950233e-06
1.67761576e-05
-7.61064735e-06
1.82887469e-05
-8.57285998e-06
1.98244683e-05
-9.55362894e-06
2.13775194e-05
-1.05379531e-05
2.29411034e-05
-1.15079097e-05
2.45072243e-05
-1.24421678e-05
2.60665302e-05
-1.33155117e-05
2.76081892e-05
-1.40980997e-05
2.9119473e-05
-1.4755819e-05
3.0586725e-05
-1.52504717e-05
3.19950347e-05
-1.55400737e-05
3.33280705e-05
-1.55749244e-05
3.45629573e-05
-1.52943042e-05
3.56723932e-05
-1.46257588e-05
3.66279947e-05
-1.34819777e-05
3.73965102e-05
-1.17542148e-05
3.79375254e-05
-9.32699685e-06
3.82056415e-05
-6.06626035e-06
3.81472965e-05
-1.81767571e-06
3.76967782e-05
3.59200315e-06
3.67831882e-05
1.03452751e-05
3.53394871e-05
1.86449485e-05
3.32768527e-05
2.87285919e-05
3.04958808e-05
4.08722197e-05
2.68699264e-05
5.53603601e-05
2.22974387e-05
7.23711562e-05
1.67783486e-05
9.24443744e-05
9.80794599e-06
0.000116071385
1.32907057e-06
0.000143831901
-8.73978258e-06
0.000176389725
-2.1054146e-05
0.000214524312
-3.57836489e-05
0.000259246961
-5.32669177e-05
0.000311312661
-7.39360759e-05
0.00037170776
-9.8261949e-05
0.000441556338
-0.000126753403
0.000522083127
-0.000159945943
0.000614590871
-0.000198456342
0.000720467299
-0.000242930474
0.000841129216
-0.000293991541
0.000977981035
-0.000352282004
0.00113236968
-0.000418399353
0.00130549018
-0.000492907963
0.00149825438
-0.000576073541
0.0017113339
-0.000668269494
0.00194507386
-0.000769386167
0.00219943823
-0.000879515514
0.00247461841
-0.000999428792
0.00277071886
-0.00112964556
0.00308790227
-0.00127039552
0.00342333868
-0.00141703229
0.00377351294
-0.00157328672
0.00413544614
-0.00173765052
0.00451144404
-0.00190937884
0.00488522741
-0.00207785674
0.00524804822
-0.00224887923
0.00559599545
-0.00240395447
0.00588722409
-0.00253253185
0.0060732001
-0.00265287183
0.00622558642
-0.00278001201
0.00639962093
-0.00289869762
0.0065660093
-0.0029982802
0.00669204733
-0.00310269488
0.00679556155
-0.00320614943
0.00689449507
-0.00331931988
-0.00342395528
0.00699511271
-1.5176083e-08
3.66587359e-07
-6.80156709e-08
1.16160282e-06
-1.6570884e-07
2.04202141e-06
-3.13656109e-07
3.00441835e-06
-5.15402672e-07
4.04386905e-06
-7.72705641e-07
5.15448742e-06
-1.0857928e-06
6.3299261e-06
-1.45330239e-06
7.56372444e-06
-1.87249758e-06
8.84977071e-06
-2.33903236e-06
1.01824433e-05
-2.84762265e-06
1.1556898e-05
-3.39161187e-06
1.29681261e-05
-3.96285818e-06
1.44111185e-05
-4.55157315e-06
1.58806359e-05
-5.14611248e-06
1.73709595e-05
-5.73271091e-06
1.88756329e-05
-6.29513667e-06
2.03872094e-05
-6.81432657e-06
2.1897055e-05
-7.26807057e-06
2.33952267e-05
-7.63070607e-06
2.4870276e-05
-7.87328304e-06
2.63095628e-05
-7.96239152e-06
2.76977963e-05
-7.85782762e-06
2.90154554e-05
-7.51264988e-06
3.02421446e-05
-6.87137274e-06
3.1354409e-05
-5.86732548e-06
3.23247348e-05
-4.42541078e-06
3.312182e-05
-2.46149683e-06
3.37093253e-05
1.23846238e-07
3.40435706e-05
3.44837828e-06
3.40729782e-05
7.64977681e-06
3.37372127e-05
1.28735508e-05
3.2983041e-05
1.92860652e-05
3.17360473e-05
2.70708857e-05
2.99133183e-05
3.64336255e-05
2.74219061e-05
4.76273119e-05
2.41473571e-05
6.09139846e-05
1.99918372e-05
7.6473596e-05
1.49380297e-05
9.47875456e-05
8.55781018e-06
0.000116300724
7.86160297e-07
0.000141535093
-8.45402603e-06
0.000171093778
-1.9748648e-05
0.000205674369
-3.32493663e-05
0.000246201777
-4.92649809e-05
0.000293337158
-6.81872882e-05
0.000347990995
-9.04352313e-05
0.000411194944
-0.000116468634
0.000484051281
-0.000146790219
0.000567753142
-0.000181961703
0.000663558547
-0.000222556828
0.000772787274
-0.000269172902
0.000896774054
-0.000322441607
0.00103682956
-0.000382984805
0.00119420949
-0.000451370686
0.00137003799
-0.000528110215
0.00156500844
-0.000613370078
0.0017795261
-0.000707426546
0.00201368946
-0.000810238447
0.00226739716
-0.000921979399
0.0025402131
-0.00104220502
0.00283076568
-0.00117007179
0.00313688813
-0.00130555584
0.00345636441
-0.00144912744
0.00378735567
-0.0016013936
0.00412534876
-0.00175503354
0.00446677934
-0.00191472712
0.00480018218
-0.00207106451
0.00511319475
-0.00222240359
0.00538932906
-0.00235400475
0.00561547533
-0.00247504393
0.00579460611
-0.0025831103
0.00595423885
-0.00269218734
0.00609293376
-0.00279158572
0.00620816785
-0.00289527099
0.0063098851
-0.00300043614
0.00640722272
-0.00309563008
0.00649585504
-0.00319133513
0.00658146976
-0.00329176583
0.00667620568
-0.0034140503
-0.00351882385
0.0067710867
-1.86330447e-08
3.85247819e-07
-7.96182282e-08
1.22262344e-06
-1.87968467e-07
2.15041025e-06
-3.46749029e-07
3.16324109e-06
-5.56989211e-07
4.25415546e-06
-8.17733367e-07
5.41528238e-06
-1.126158e-06
6.63840675e-06
-1.47780128e-06
7.91542968e-06
-1.86660982e-06
9.23864803e-06
-2.28460673e-06
1.06005167e-05
-2.7221015e-06
1.1994478e-05
-3.16774483e-06
1.34138647e-05
-3.60817494e-06
1.48516551e-05
-4.02780139e-06
1.63003815e-05
-4.40853041e-06
1.77518221e-05
-4.72948374e-06
1.91967362e-05
-4.96653858e-06
2.06244325e-05
-5.09185987e-06
2.20225648e-05
-5.07322641e-06
2.33768044e-05
-4.87255482e-06
2.46698412e-05
-4.44553387e-06
2.5882807e-05
-3.74200978e-06
2.69945686e-05
-2.70586115e-06
2.79796378e-05
-1.27096931e-06
2.88076218e-05
6.40559709e-07
2.94432918e-05
3.1207965e-06
2.98449572e-05
6.27427272e-06
2.99688543e-05
1.0217331e-05
2.97668328e-05
1.50810731e-05
2.91804546e-05
2.10126706e-05
2.81420716e-05
2.81764092e-05
2.65742345e-05
3.67713458e-05
2.43889386e-05
4.70281686e-05
2.14801363e-05
5.91886455e-05
1.77538367e-05
7.34360343e-05
1.31756003e-05
9.01932457e-05
7.39130506e-06
0.000109863859
3.22457184e-07
0.000132915628
-8.11240747e-06
0.000159890479
-1.84156101e-05
0.000191412698
-3.07345371e-05
0.000228310643
-4.53503663e-05
0.000271179305
-6.2615625e-05
0.000320838477
-8.29067849e-05
0.000378215527
-0.00010664022
0.000444302983
-0.000134272892
0.000520169757
-0.000166300124
0.000606960937
-0.000203257942
0.000705874855
-0.000245702311
0.000818136066
-0.000294221181
0.000944991948
-0.000349411105
0.00108766238
-0.000411841915
0.00124723607
-0.000482014109
0.00142460835
-0.000560356189
0.00162021748
-0.000646979247
0.00183414634
-0.000742038952
0.00206610382
-0.00084532789
0.00231542828
-0.0009567518
0.00258110478
-0.00107591623
0.00286174969
-0.00120262613
0.0031551045
-0.00133556222
0.00345813985
-0.00147311018
0.0037660837
-0.00161350348
0.00407376569
-0.00175681409
0.00437662313
-0.00190425669
0.0046693946
-0.00204781131
0.00493559105
-0.00218093092
0.00516326988
-0.00229875268
0.00534468825
-0.00240383413
0.00549691891
-0.00250624847
0.005626028
-0.00260416863
0.00574238588
-0.00269948465
0.00584452823
-0.00279434498
0.00594875215
-0.00289582791
0.00604801934
-0.00299455824
0.00613875625
-0.00309119041
0.00622771956
-0.00318460592
0.00631562172
-0.0032792445
0.0064065792
-0.00338272629
0.00651048463
-0.00351795463
-0.00362507288
0.00661674089
-2.39774698e-08
4.09223721e-07
-9.85177263e-08
1.29715664e-06
-2.26193724e-07
2.27807495e-06
-4.0735836e-07
3.34439134e-06
-6.4006788e-07
4.48684854e-06
-9.20115021e-07
5.69531188e-06
-1.2411087e-06
6.95938233e-06
-1.59453647e-06
8.26883958e-06
-1.96977882e-06
9.61387341e-06
-2.354403e-06
1.09851255e-05
-2.73317802e-06
1.23732401e-05
-3.08838199e-06
1.37690591e-05
-3.39962707e-06
1.51628951e-05
-3.64360932e-06
1.65443643e-05
-3.79346639e-06
1.79016868e-05
-3.81813138e-06
1.92214174e-05
-3.68148624e-06
2.0487814e-05
-3.34295316e-06
2.16840706e-05
-2.75609553e-06
2.27900003e-05
-1.86755568e-06
2.37813719e-05
-6.1455052e-07
2.46298924e-05
1.0759792e-06
2.53041522e-05
3.28613244e-06
2.57696241e-05
6.10864398e-06
2.59852795e-05
9.64824915e-06
2.59038895e-05
1.40223342e-05
2.54711126e-05
1.936668e-05
2.46247911e-05
2.58399548e-05
2.32938869e-05
3.36247975e-05
2.13959919e-05
4.29342399e-05
1.88330648e-05
5.39963245e-05
1.5512647e-05
6.69919721e-05
1.13938541e-05
8.22943135e-05
6.17842215e-06
0.000100264961
-2.16117656e-07
0.000121324568
-7.88323373e-06
0.000145954178
-1.72374482e-05
0.000174707634
-2.84300592e-05
0.000208314632
-4.17183831e-05
0.000247319058
-5.74189317e-05
0.000292452259
-7.58665537e-05
0.000344538318
-9.74351684e-05
0.000404460742
-0.000122536723
0.00047317733
-0.000151621988
0.000551715034
-0.000185176497
0.000641154679
-0.000223711095
0.000742622228
-0.000267766237
0.000857255654
-0.000317889972
0.000986175804
-0.000374621132
0.00113041777
-0.000438461927
0.00129084885
-0.000509841092
0.00146808527
-0.000589077426
0.00166230177
-0.000676229897
0.00187323437
-0.000771288367
0.0021002174
-0.000873962166
0.00234215051
-0.000983972264
0.00259758849
-0.0011007664
0.00286447514
-0.00122363932
0.00313985072
-0.00135129306
0.003420416
-0.00148319305
0.00370176625
-0.00161691458
0.00398078776
-0.00175213431
0.00425171151
-0.00188443048
0.00450357514
-0.00200868135
0.0047245515
-0.00212523706
0.00491071697
-0.00223398226
0.00505991553
-0.00233013714
0.0051864821
-0.00242532717
0.0052974302
-0.00251479235
0.00539828102
-0.00260711183
0.0054898367
-0.00269573481
0.00557997209
-0.00278963064
0.0056671247
-0.00288151017
0.00574997857
-0.00297869579
0.00583614981
-0.00308074245
0.00592587327
-0.0031809272
0.00602010171
-0.00327884566
0.00611677184
-0.00337592049
0.00620929254
-0.00347525015
0.00629505244
-0.00360371453
-0.00372725974
0.00639724242
-2.83182675e-08
4.3752594e-07
-1.1285148e-07
1.38166422e-06
-2.5311637e-07
2.4183086e-06
-4.46084769e-07
3.53732389e-06
-6.86056588e-07
4.72678075e-06
-9.64661101e-07
5.97387363e-06
-1.27088949e-06
7.26556525e-06
-1.59110862e-06
8.58901088e-06
-1.90900157e-06
9.93171648e-06
-2.20538303e-06
1.12814553e-05
-2.45808199e-06
1.26258861e-05
-2.64129685e-06
1.39522199e-05
-2.72542881e-06
1.52469727e-05
-2.67668692e-06
1.64955684e-05
-2.4563406e-06
1.76812879e-05
-2.0201809e-06
1.87852075e-05
-1.31753515e-06
1.97851216e-05
-2.90030229e-07
2.06565243e-05
1.129009e-06
2.13709269e-05
3.01508312e-06
2.18952729e-05
5.45304064e-06
2.21919219e-05
8.53984926e-06
2.22173452e-05
1.23876576e-05
2.19218356e-05
1.71246488e-05
2.12483298e-05
2.28972075e-05
2.01313986e-05
2.98729695e-05
1.84954487e-05
3.82463067e-05
1.6251588e-05
4.8229067e-05
1.33113022e-05
5.99981562e-05
9.62712645e-06
7.38851402e-05
4.94635587e-06
9.02131822e-05
-8.15061993e-07
0.000109358299
-7.75086222e-06
0.000131744473
-1.62072739e-05
0.000157862306
-2.63333906e-05
0.000188347873
-3.83681507e-05
0.000223699845
-5.25886758e-05
0.000264566399
-6.92957653e-05
0.000311676152
-8.88271834e-05
0.000365811719
-0.000111553434
0.000427826025
-0.000137879682
0.000498636948
-0.000168244801
0.000579212936
-0.000203111319
0.000670558665
-0.000242966234
0.000773694624
-0.000288310896
0.000889629765
-0.000339644619
0.00101931142
-0.00039744624
0.00116357202
-0.000462148912
0.00132306021
-0.000534107683
0.00149813684
-0.000613536955
0.00168874277
-0.00070044548
0.0018942952
-0.000794628461
0.00211376481
-0.000895698357
0.0023456344
-0.00100315706
0.00258811122
-0.00111643834
0.002838711
-0.00123457165
0.00309452938
-0.00135658466
0.00335177403
-0.00148088413
0.00360667962
-0.00160619913
0.00385507061
-0.00173158486
0.00409142723
-0.00185327237
0.00430582607
-0.00196653462
0.00449339958
-0.00207200581
0.00465034974
-0.00216563393
0.00477835789
-0.00225324885
0.00488410464
-0.00233973321
0.00497999011
-0.00242602685
0.00506441583
-0.00250975858
0.00514726663
-0.00259765016
0.00522673676
-0.00268658929
0.00530131459
-0.0027703207
0.00537529011
-0.00286361482
0.00545260279
-0.00295883185
0.00552769943
-0.00305380137
0.00560234195
-0.00315539515
0.0056803142
-0.00325890911
0.00576398098
-0.00336252155
0.0058525164
-0.00346446269
0.00594134441
-0.00356408088
0.00601235937
-0.00367472982
-0.00379906745
0.00608416991
-2.84626408e-08
4.65927638e-07
-1.10127586e-07
1.46323987e-06
-2.40721369e-07
2.5487979e-06
-4.12908944e-07
3.70939374e-06
-6.16203196e-07
4.92994562e-06
-8.36920889e-07
6.19445136e-06
-1.05820028e-06
7.4866948e-06
-1.25985589e-06
8.79050717e-06
-1.41818538e-06
1.00898773e-05
-1.50565766e-06
1.13687498e-05
-1.49078828e-06
1.26108301e-05
-1.33747856e-06
1.37987149e-05
-1.00422956e-06
1.49135201e-05
-4.43438249e-07
1.59345658e-05
3.990111e-07
1.68386204e-05
1.58474503e-06
1.75992493e-05
3.18335276e-06
1.81862849e-05
5.27490139e-06
1.85647431e-05
7.9503662e-06
1.86952276e-05
1.13134007e-05
1.85320037e-05
1.54818465e-05
1.80232439e-05
2.05899698e-05
1.71089943e-05
2.67909387e-05
1.57206472e-05
3.42610207e-05
1.37780393e-05
4.31934507e-05
1.11987757e-05
5.376183e-05
7.92689489e-06
6.6258151e-05
3.75511781e-06
8.09733831e-05
-1.4040495e-06
9.82394122e-05
-7.63898808e-06
0.000118431095
-1.52453732e-05
0.000141978706
-2.43626725e-05
0.000169438034
-3.52101363e-05
0.00020126156
-4.80306862e-05
0.000238024506
-6.30961567e-05
0.000280365086
-8.07084772e-05
0.000328976073
-0.000101199331
0.000384611491
-0.000124930765
0.000448080581
-0.000152295766
0.000520238525
-0.000183710778
0.000601973522
-0.000219613989
0.000694189076
-0.000260459575
0.000797782371
-0.000306703752
0.000913607616
-0.000358790541
0.00104243086
-0.000417133142
0.00118487778
-0.000482090483
0.00134136986
-0.00055393724
0.00151204577
-0.000632823714
0.00169667469
-0.000718735492
0.00189445378
-0.000811314972
0.00210409543
-0.000910086153
0.00232381176
-0.00101434395
0.00255146086
-0.00112334675
0.0027842951
-0.00123599072
0.00301931363
-0.00135145645
0.00325259365
-0.00146785139
0.00348110322
-0.00158509413
0.00370002827
-0.00169980926
0.00390288436
-0.00180905551
0.0040812527
-0.00190995365
0.00423313899
-0.0020051594
0.004358838
-0.00209223485
0.00446247847
-0.00217564787
0.00455547581
-0.00225863316
0.00464223889
-0.00234001453
0.00472231068
-0.00241980868
0.00479803746
-0.00250175766
0.00486729395
-0.00257901823
0.0049296673
-0.00266002828
0.00499000172
-0.00274692991
0.00505301572
-0.0028333411
0.00511367167
-0.00292427754
0.00517694522
-0.00302211256
0.00524396054
-0.00312082381
0.00531240945
-0.00322385101
0.00538253262
-0.00332903841
0.00545630084
-0.00343629587
0.00553396216
-0.00354212861
0.00561731546
-0.00364743635
0.00569989305
-0.00375730758
-0.00387476195
0.00577558922
-2.29740852e-08
4.88849823e-07
-8.41732295e-08
1.52436383e-06
-1.74415226e-07
2.63895251e-06
-2.80871851e-07
3.8157521e-06
-3.86954667e-07
5.03592028e-06
-4.72198307e-07
6.27957749e-06
-5.12156714e-07
7.52652666e-06
-4.78164427e-07
8.75637926e-06
-3.37036046e-07
9.94860405e-06
-5.05724509e-08
1.10821318e-05
4.25031973e-07
1.21350617e-05
1.13961814e-06
1.3083955e-05
2.14978128e-06
1.39031735e-05
3.51996779e-06
1.45641861e-05
5.32337751e-06
1.50350084e-05
7.64368286e-06
1.52787329e-05
1.05755495e-05
1.52541993e-05
1.42266019e-05
1.49134645e-05
1.87191093e-05
1.42024886e-05
2.41915977e-05
1.30592799e-05
3.08017257e-05
1.14128793e-05
3.87243552e-05
9.18612931e-06
4.81267735e-05
6.31799786e-06
5.9265605e-05
2.63898608e-06
7.24013552e-05
-1.93718138e-06
8.78264105e-05
-7.49835049e-06
0.000105872314
-1.42909523e-05
0.000126916292
-2.24481641e-05
0.000151440531
-3.21633241e-05
0.00017985062
-4.36555148e-05
0.000212654766
-5.71668149e-05
0.000250410384
-7.29656875e-05
0.000293727453
-9.13476129e-05
0.000343266195
-0.000112634673
0.000399735243
-0.000137177202
0.000463884158
-0.000165347819
0.000536492745
-0.00019753881
0.000618356566
-0.000234158926
0.000710268309
-0.000275621732
0.00081298926
-0.000322334022
0.000927211446
-0.00037468071
0.00105351523
-0.000433006361
0.00119231909
-0.00049759309
0.0013438223
-0.000568634937
0.00150794079
-0.000646207455
0.00168423163
-0.000730226457
0.00187179267
-0.000820383024
0.00206918701
-0.000916128108
0.00227451058
-0.00101663689
0.00248545309
-0.0011210271
0.00269929539
-0.00122818477
0.00291288047
-0.00133693043
0.00312262143
-0.00144573037
0.00332508343
-0.0015539172
0.00351678842
-0.00165955524
0.00369068662
-0.0017589914
0.00384074046
-0.00184986233
0.00396674863
-0.00193506305
0.00407082778
-0.00201403231
0.0041589456
-0.00209327689
0.00423823753
-0.00217152673
0.00431025773
-0.00224766843
0.00437725468
-0.00232563086
0.0044401279
-0.00240288896
0.00449952082
-0.00247920305
0.00455637491
-0.00255861355
0.00461395693
-0.0026366027
0.00467171237
-0.00271778689
0.00472502718
-0.00280024861
0.00478158379
-0.00288990288
0.00483992568
-0.00298262487
0.00489733385
-0.0030795266
0.00495627067
-0.00317976648
0.00501578576
-0.00328337129
0.00508175907
-0.00339501577
0.00515505976
-0.00350960036
0.00522926489
-0.00361633613
0.00530630455
-0.00372447692
0.00537979602
-0.00383079769
-0.00394903219
0.00545406916
-1.13519962e-08
5.00106066e-07
-3.26650766e-08
1.54554131e-06
-4.83519941e-08
2.65448384e-06
-3.84413188e-08
3.80566786e-06
2.15601611e-08
4.97572882e-06
1.60857388e-07
6.14007481e-06
4.13677224e-07
7.27348643e-06
8.1953474e-07
8.35028649e-06
1.42368359e-06
9.34420506e-06
2.27763388e-06
1.02279163e-05
3.4399803e-06
1.09724349e-05
4.97726662e-06
1.15463728e-05
6.96484696e-06
1.19152821e-05
9.48874102e-06
1.20399659e-05
1.26461573e-05
1.18772508e-05
1.65472839e-05
1.137725e-05
2.13166235e-05
1.04844897e-05
2.70946783e-05
9.13502665e-06
3.40396093e-05
7.25716272e-06
4.23087081e-05
4.78977532e-06
5.21260782e-05
1.59509728e-06
6.37216651e-05
-2.40987352e-06
7.73537092e-05
-7.31446608e-06
9.33136469e-05
-1.33213733e-05
0.000111932495
-2.05564465e-05
0.000133623104
-2.91893695e-05
0.000158748453
-3.94166967e-05
0.000187752794
-5.14528836e-05
0.00022112508
-6.55359612e-05
0.000259397359
-8.19281147e-05
0.000303145026
-0.000100914762
0.000352985834
-0.00012280673
0.000409573733
-0.000147935687
0.00047359017
-0.00017665122
0.000545732239
-0.000209319303
0.000626697121
-0.00024631265
0.000717159828
-0.000288001369
0.000817741728
-0.000334740578
0.000928975538
-0.000386855183
0.00105126356
-0.000444621568
0.00118482996
-0.000508246526
0.00132966798
-0.000577843671
0.00148548382
-0.00065340811
0.00165163916
-0.000734789341
0.00182709181
-0.000821659042
0.00201031562
-0.000913449116
0.00219931179
-0.001009378
0.00239166947
-0.0011084846
0.0025847337
-0.00120969992
0.00277546956
-0.00131176178
0.002960527
-0.00141324101
0.00313637716
-0.00151277938
0.00329994784
-0.00160929984
0.00344709331
-0.00170106149
0.00357429995
-0.00178676068
0.00368040388
-0.00186509412
0.00377062618
-0.00194008345
0.00384980678
-0.0020142427
0.00392384972
-0.00208807426
0.0039905056
-0.00215993178
0.00405032778
-0.00223134822
0.00410508494
-0.00230242515
0.00415398051
-0.00237452617
0.00420214909
-0.00245105764
0.00424989536
-0.00252694976
0.00429784683
-0.002606566
0.00434931205
-0.00268806958
0.00440305445
-0.00277153162
0.00445947151
-0.00285666809
0.00451718736
-0.0029476218
0.00457743696
-0.00304287776
0.00463882571
-0.00314091886
0.00470167662
-0.00324262066
0.0047651163
-0.00334681409
0.0048303867
-0.00346028876
0.00490135959
-0.00358057485
0.00497572681
-0.00369070358
0.0050520192
-0.0038007684
0.00512511587
-0.00390389158
-0.00401462149
0.00519070898
7.09875874e-09
4.92941567e-07
4.72394816e-08
1.50530859e-06
1.44114787e-07
2.55750371e-06
3.26673045e-07
3.62299294e-06
6.29296191e-07
4.67297795e-06
1.09204727e-06
5.67718528e-06
1.76106466e-06
6.60431993e-06
2.68906413e-06
7.42212707e-06
3.93600336e-06
8.0970948e-06
5.56987966e-06
8.59385744e-06
7.6675511e-06
8.87456932e-06
1.03164412e-05
8.89727666e-06
1.36149583e-05
8.61654702e-06
1.76741279e-05
7.98056589e-06
2.2619375e-05
6.93176155e-06
2.85917676e-05
5.40460353e-06
3.57369054e-05
3.33908707e-06
4.42482596e-05
6.23398593e-07
5.43279735e-05
-2.82283201e-06
6.62032007e-05
-7.08574031e-06
8.01302786e-05
-1.23322739e-05
9.63980343e-05
-1.86779247e-05
0.000115357769
-2.62744949e-05
0.000137331158
-3.52950508e-05
0.000162704397
-4.59299647e-05
0.000191904459
-5.83896964e-05
0.000225393367
-7.29058476e-05
0.000263671131
-8.9730865e-05
0.000307274062
-0.000109139074
0.000356770464
-0.000131424657
0.00041275388
-0.000156898265
0.000475833514
-0.000185886391
0.000546621628
-0.000218723755
0.000625716305
-0.000255745773
0.000713675874
-0.000297278655
0.000810990479
-0.000343626939
0.000918047945
-0.000395058408
0.0010350944
-0.000451786495
0.00116219005
-0.000513950159
0.00129916159
-0.000581592311
0.00144555303
-0.000654637022
0.00160057788
-0.000732867447
0.00176307743
-0.000815906431
0.00193148606
-0.000903196567
0.00210379459
-0.000993966042
0.0022775938
-0.00108724671
0.00245022449
-0.00118200701
0.00261888594
-0.00127714432
0.00278067016
-0.00137148234
0.00293268713
-0.00146377687
0.0030721623
-0.00155271422
0.00319683092
-0.00163744597
0.0033047842
-0.00171725099
0.00339548068
-0.00179175576
0.00347150055
-0.00186277858
0.00353884575
-0.00193243718