/*--------------------------------*- C++ -*----------------------------------*\
  =========                 |
  \\      /  F ield         | OpenFOAM: The Open Source CFD Toolbox
   \\    /   O peration     | Website:  https://openfoam.org
    \\  /    A nd           | Version:  8
     \\/     M anipulation  |
\*---------------------------------------------------------------------------*/
FoamFile
{
    version     2.0;
    format      ascii;
    class       volScalarField;
    location    "0.068";
    object      T;
}
// * * * * * * * * * * * * * * * * * * * * * * * * * * * * * * * * * * * * * //

dimensions      [0 0 0 1 0 0 0];

internalField   nonuniform List<scalar> 
42400
(
472.177939
470.51561
468.809555
467.058743
465.262197
463.419007
461.528359
459.589554
457.602032
455.565407
453.479488
451.344322
449.160224
446.927817
444.648075
442.322369
439.952505
437.54078
435.090022
432.603639
430.085658
427.540768
424.974348
422.392492
419.802021
417.210482
414.626128
412.057891
409.515319
407.008508
404.548002
402.144676
399.809606
397.553916
395.388618
393.324436
391.371638
389.539902
387.838171
386.274528
384.856049
383.588745
382.477505
381.52606
380.737012
380.111875
379.651126
379.354249
379.222945
379.24928
379.431381
379.764148
380.23925
380.845134
381.567836
382.389185
383.283454
384.207726
385.124042
386.012276
386.897359
387.399929
387.446034
387.077528
386.350702
385.352349
384.013147
382.218139
379.885005
377.000178
373.30877
369.026838
364.926015
359.947069
353.457383
347.660244
342.337198
336.63447
328.08471
323.36871
472.214274
470.625409
468.99474
467.321282
465.604103
463.842341
462.03523
460.182121
458.282509
456.336059
454.342639
452.302351
450.215567
448.082971
445.905595
443.684868
441.422658
439.121322
436.783748
434.413408
432.014394
429.591465
427.150074
424.696399
422.237356
419.780602
417.334524
414.908214
412.511417
410.154468
407.848205
405.603862
403.432932
401.347033
399.357754
397.476503
395.714322
394.081685
392.588291
391.242853
390.052896
389.024637
388.162834
387.470648
386.949509
386.598847
386.416043
386.396825
386.532619
386.817144
387.233791
387.766359
388.392187
389.079321
389.793613
390.513733
391.247918
391.718574
391.856301
391.671216
390.937442
389.995459
388.760744
387.163723
385.060257
382.402181
379.192776
375.423961
371.106786
366.349471
360.903372
354.782159
348.983691
343.24701
336.665045
329.766632
323.949383
318.224949
312.730062
307.82977
472.260846
470.76615
469.232132
467.657878
466.042528
464.385302
462.685515
460.942607
459.156165
457.325951
455.451933
453.534315
451.573578
449.570512
447.526258
445.442356
443.320782
441.164002
438.97501
436.757381
434.51531
432.253651
429.977954
427.694489
425.41026
423.133016
420.871235
418.634101
416.431451
414.273719
412.171844
410.137182
408.181368
406.316164
404.553272
402.904123
401.37961
399.989813
398.743745
397.649069
396.711826
395.936145
395.323873
394.874349
394.584519
394.447499
394.453564
394.586141
394.835242
395.168001
395.555265
395.970026
396.400581
396.708959
396.755095
396.535951
395.843069
394.943379
393.785543
392.303426
390.402268
387.98204
385.015949
381.497445
377.453883
372.893017
367.874121
362.451497
356.649539
350.625986
344.371422
337.770076
331.300875
325.412629
319.811087
314.331957
309.496067
305.107526
301.733015
300.235753
472.314253
470.927549
469.504386
468.043943
466.545462
465.008268
463.431797
461.815614
460.159439
458.463178
456.726949
454.951113
453.136313
451.283508
449.394014
447.469544
445.51225
443.524772
441.510277
439.472504
437.415803
435.34517
433.26628
431.185503
429.109918
427.047311
425.006159
422.995599
421.025371
419.105737
417.247371
415.461228
413.75835
412.149654
410.645676
409.256261
407.990262
406.855192
405.856851
404.998903
404.282538
403.70642
403.265499
402.950796
402.749385
402.641995
402.606711
402.623699
402.681238
402.649498
402.476424
402.059124
401.332144
400.360252
399.1781
397.723374
395.92553
393.672358
390.920151
387.646969
383.84824
379.543412
374.775266
369.583304
364.032849
358.15745
352.050747
345.813295
339.516055
333.266877
327.228327
321.444723
316.005736
311.165881
307.118831
303.757412
301.044125
300.153046
299.950578
299.900377
472.370701
471.098152
469.792193
468.452114
467.077285
465.66717
464.221349
462.739547
461.221656
459.667762
458.078173
456.453452
454.794448
453.102334
451.378641
449.6253
447.844676
446.039613
444.213469
442.37015
440.514144
438.650547
436.785082
434.924101
433.074584
431.244113
429.440833
427.673376
425.950767
424.282296
422.677343
421.145169
419.69467
418.334085
417.070665
415.910281
414.85701
413.91271
413.076751
412.344962
411.709797
411.160963
410.68474
410.265978
409.877188
409.431423
408.8833
408.178587
407.250362
406.16423
404.900365
403.404075
401.615682
399.448911
396.846886
393.778664
390.224438
386.182301
381.669267
376.727341
371.419442
365.78949
359.889728
353.783043
347.571937
341.317909
335.126935
329.115291
323.400269
318.069847
313.248072
309.089563
305.649473
302.990989
300.895439
300.087505
299.919537
299.876563
299.866764
299.873479
472.42601
471.265325
470.074246
468.852201
467.598702
466.313369
464.995953
463.646355
462.264651
460.851122
459.406278
457.930885
456.425997
454.892988
453.333583
451.749889
450.144426
448.520158
446.880517
445.229428
443.571314
441.911109
440.254242
438.60662
436.974579
435.364823
433.784325
432.2402
430.739553
429.289282
427.895838
426.564953
425.301332
424.108294
422.987407
421.938256
420.95798
420.041265
419.180859
418.350115
417.523137
416.669869
415.7547
414.73656
413.584306
412.322243
410.909739
409.302971
407.451271
405.284725
402.756705
399.833677
396.489074
392.707351
388.485607
383.835398
378.785721
373.383169
367.698973
361.793253
355.730901
349.575633
343.394995
337.266384
331.303998
325.607183
320.273951
315.40458
311.107735
307.477257
304.575989
302.438096
300.892578
300.096852
299.930413
299.894616
299.878798
299.871974
299.862887
299.856052
472.475488
471.414889
470.326632
469.210288
468.065521
466.892107
465.689956
464.459132
463.199876
461.912626
460.598044
459.257033
457.890768
456.500714
455.08865
453.656687
452.207287
450.743274
449.267834
447.784516
446.297216
444.810142
443.327768
441.854766
440.395909
438.955955
437.539486
436.150731
434.793346
433.470162
432.182881
430.931754
429.715318
428.529974
427.369659
426.221906
425.07039
423.895073
422.67242
421.393658
420.04036
418.586507
417.002215
415.252469
413.293386
411.076731
408.569095
405.738418
402.55663
399.002263
395.062163
390.732967
386.022161
380.949852
375.549891
369.868611
363.983292
357.951703
351.833604
345.703402
339.641203
333.727881
328.04867
322.686441
317.738196
313.306937
309.47282
306.311517
303.845912
302.045324
300.882944
300.156105
299.947288
299.894162
299.884872
299.878707
299.868256
299.846628
299.82487
299.808666
472.514106
471.531643
470.523696
469.489967
468.430249
467.344443
466.232575
465.094811
463.931475
462.743068
461.530275
460.29399
459.035321
457.755603
456.456406
455.139536
453.807027
452.461132
451.1043
449.739136
448.368352
446.994697
445.620867
444.249389
442.88248
441.521881
440.168652
438.822944
437.48375
436.148666
434.813588
433.472353
432.116246
430.73445
429.312824
427.837804
426.29293
424.658363
422.910111
421.018369
418.952231
416.682879
414.181236
411.419345
408.371001
405.013391
401.328607
397.304958
392.938257
388.232892
383.202667
377.871652
372.274695
366.459234
360.492775
354.441546
348.366296
342.336625
336.424859
330.716464
325.304116
320.269378
315.70012
311.667422
308.23566
305.460601
303.334444
301.821194
300.833806
300.271304
299.989988
299.915005
299.893023
299.880439
299.862214
299.839669
299.821493
299.807927
299.797336
299.793665
472.537075
471.601106
470.640986
469.656508
468.647544
467.614051
466.556086
465.473814
464.367515
463.237593
462.084579
460.909137
459.712056
458.494248
457.256734
456.000627
454.727096
453.437333
452.132494
450.813632
449.48161
448.137135
446.780559
445.411711
444.029724
442.632822
441.218064
439.780984
438.315321
436.813782
435.267225
433.664567
431.992886
430.236487
428.377898
426.397739
424.274924
421.98703
419.510818
416.822975
413.90113
410.724354
407.273902
403.534514
399.495437
395.151429
390.503738
385.561019
380.340307
374.867305
369.177172
363.315493
357.340235
351.326418
345.337081
339.439512
333.710212
328.23012
323.081146
318.340503
314.091003
310.398568
307.314383
304.856937
303.003348
301.695296
300.844145
300.340846
300.083192
299.961835
299.918159
299.882556
299.850982
299.82572
299.811865
299.80928
299.806901
299.804654
299.797751
299.79414
472.540777
471.612326
470.659967
469.683509
468.682817
467.657809
466.608469
465.534838
464.437018
463.31517
462.169498
461.000247
459.807677
458.592041
457.353554
456.092363
454.808506
453.50186
452.172063
450.818422
449.439797
448.034304
446.599202
445.13066
443.623435
442.071133
440.467166
438.803879
437.072514
435.262118
433.360126
431.352417
429.223407
426.956218
424.53297
421.935153
419.144124
416.14175
412.910909
409.43579
405.702983
401.702264
397.427403
392.876988
388.055251
382.972922
377.648085
372.106929
366.384624
360.525254
354.583592
348.629413
342.73907
336.979525
331.428747
326.166011
321.269561
316.81008
312.856899
309.460855
306.658591
304.452817
302.801664
301.637689
300.871321
300.40428
300.142004
300.003049
299.928093
299.87691
299.83621
299.819616
299.814178
299.810051
299.808163
299.807454
299.806133
299.804926
299.797441
299.793504
472.52574
471.566914
470.583436
469.575102
468.541729
467.483147
466.399196
465.289716
464.154534
462.993455
461.806245
460.592614
459.352182
458.084328
456.787364
455.459185
454.097943
452.701634
451.267772
449.793308
448.274559
446.70717
445.086075
443.405491
441.659113
439.839673
437.9378
435.942957
433.843465
431.626536
429.278389
426.784426
424.129486
421.298168
418.275271
415.046262
411.597331
407.916264
403.993063
399.82061
395.395374
390.718161
385.794891
380.637425
375.264424
369.702272
363.985858
358.159149
352.275537
346.397866
340.603929
334.973991
329.584206
324.511534
319.833615
315.618803
311.922473
308.783168
306.217435
304.205804
302.699564
301.629309
300.91093
300.456574
300.184134
300.026888
299.935903
299.877825
299.838858
299.82669
299.821531
299.817466
299.81391
299.810231
299.806404
299.803583
299.802025
299.799559
299.796717
299.793963
472.491079
471.462183
470.406807
469.324667
468.21545
467.078799
465.914299
464.721458
463.498887
462.245469
460.959974
459.64092
458.286528
456.894795
455.46422
453.993052
452.478492
450.916979
449.304381
447.635929
445.906127
444.108738
442.236711
440.282102
438.236077
436.088895
433.829916
431.447673
428.929981
426.264099
423.436952
420.435415
417.246701
413.858414
410.259136
406.438952
402.389999
398.10709
393.588389
388.836158
383.857549
378.665448
373.279344
367.726192
362.041253
356.268744
350.461972
344.68317
339.002665
333.498664
328.256129
323.35101
318.855539
314.833597
311.332058
308.380664
305.97975
304.099906
302.688658
301.675368
300.979287
300.521587
300.231938
300.054507
299.947916
299.885453
299.84821
299.833823
299.828245
299.824195
299.820246
299.815396
299.809571
299.803986
299.7989
299.795313
299.793958
299.795018
299.795667
299.794247
472.437464
471.300141
470.133405
468.936784
467.709713
466.451508
465.160837
463.836469
462.477713
461.0832
459.651188
458.179634
456.66615
455.107967
453.50189
451.844243
450.130812
448.356768
446.516656
444.604329
442.612898
440.534728
438.361423
436.083837
433.692111
431.175733
428.523648
425.724391
422.766291
419.637722
416.327283
412.824092
409.118257
405.20133
401.066841
396.710912
392.132936
387.336336
382.329393
377.126104
371.74706
366.220273
360.581885
354.876691
349.158295
343.488633
337.93659
332.576374
327.48453
322.736974
318.403071
314.538798
311.183321
308.355591
306.047977
304.228721
302.846265
301.834675
301.122136
300.638142
300.320204
300.117722
299.99175
299.916298
299.873205
299.849836
299.838967
299.831254
299.823855
299.816538
299.8096
299.803903
299.799199
299.794634
299.791253
299.788113
299.786379
299.787876
299.79055
299.793328
472.369657
471.09521
469.787674
468.446383
467.070521
465.65897
464.210691
462.724255
461.197966
459.629813
458.017438
456.358092
454.648598
452.885306
451.064046
449.180098
447.228145
445.202235
443.095758
440.901436
438.611316
436.216783
433.708605
431.076988
428.311674
425.402078
422.337463
419.107146
415.700665
412.108159
408.320757
404.331022
400.133486
395.725261
391.106728
386.282307
381.261286
376.058683
370.696099
365.20249
359.614779
353.978182
348.346132
342.779703
337.346145
332.116778
327.163088
322.554407
318.352011
314.604389
311.345876
308.589332
306.324163
304.518374
303.122606
302.077447
301.319786
300.788484
300.427035
300.189482
300.037644
299.944125
299.888718
299.857644
299.84045
299.830018
299.822052
299.814919
299.80838
299.802942
299.798895
299.796119
299.795264
299.794211
299.791344
299.787178
299.78399
299.783405
299.786548
299.793359
472.291193
470.858074
469.387638
467.879026
466.331166
464.742745
463.112349
461.438145
459.717958
457.949231
456.128986
454.253784
452.319687
450.322227
448.256358
446.116439
443.896213
441.588788
439.186648
436.68166
434.065118
431.327803
428.460073
425.451992
422.293503
418.974575
415.485472
411.817079
407.961275
403.911385
399.662706
395.213119
390.563773
385.719847
380.691361
375.494008
370.14996
364.688571
359.14689
353.56987
348.010131
342.52715
337.185753
332.053832
327.199011
322.685462
318.567643
314.887783
311.672469
308.931866
306.657499
304.822298
303.383137
302.286657
301.475863
300.895377
300.493912
300.226329
300.055124
299.950356
299.886919
299.853614
299.835324
299.824253
299.81731
299.81188
299.807321
299.803852
299.801251
299.798827
299.796523
299.79448
299.793181
299.7928
299.793277
299.790934
299.786701
299.784658
299.784323
299.798729
472.204078
470.594787
468.943488
467.249109
465.510319
463.72561
461.893152
460.010692
458.075572
456.084686
454.034444
451.920732
449.738887
447.483665
445.149223
442.729111
440.21627
437.603055
434.881263
432.042201
429.076773
425.975603
422.729187
419.328072
415.763115
412.025799
408.108601
404.005434
399.712172
395.22724
390.552293
385.692943
380.659536
375.467941
370.140287
364.705598
359.200219
353.667937
348.159666
342.732583
337.448589
332.372075
327.566992
323.093196
319.002788
315.33492
312.114901
309.352167
307.03973
305.15325
303.655175
302.499361
301.634255
301.007218
300.568607
300.272981
300.082099
299.964913
299.896686
299.858692
299.843396
299.83091
299.822749
299.816574
299.811602
299.807481
299.803635
299.799373
299.794228
299.789955
299.787528
299.786372
299.78543
299.78581
299.78865
299.801038
299.803669
299.801112
299.798096
299.808377
472.109562
470.309127
468.461605
466.565746
464.620018
462.622545
460.571064
458.462887
456.294857
454.063312
451.764054
449.392317
446.942751
444.409411
441.785755
439.064663
436.23847
433.299027
430.237784
427.045911
423.714441
420.234461
416.597366
412.79515
408.820782
404.66863
400.334967
395.818551
391.121266
386.248824
381.211498
376.024854
370.710437
365.296334
359.817546
354.316056
348.840498
343.445317
338.189328
333.133642
328.338983
323.862596
319.754817
316.055593
312.7921
309.975301
307.600537
305.646296
304.078213
302.853324
301.922957
301.237038
300.747754
300.410954
300.187499
300.044482
299.95573
299.902332
299.870917
299.851991
299.838686
299.828495
299.819173
299.81065
299.80423
299.798374
299.793087
299.788562
299.785006
299.782967
299.782094
299.782575
299.783709
299.784228
299.785515
299.797545
299.814981
299.826413
299.829305
299.827117
472.008682
470.004232
467.947266
465.836305
463.669528
461.44472
459.159225
456.809905
454.393103
451.904614
449.339658
446.692874
443.958309
441.12944
438.1992
435.160036
432.003986
428.722798
425.308064
421.751414
418.04475
414.18054
410.152164
405.954338
401.58359
397.03882
392.321907
387.438379
382.398098
377.215956
371.9125
366.514466
361.0551
355.574226
350.117926
344.737775
339.489531
334.431279
329.621006
325.11371
320.958336
317.194847
313.851385
310.941825
308.46523
306.403848
304.72815
303.399089
302.37162
301.598281
301.032208
300.628839
300.348767
300.159644
300.035267
299.954642
299.902616
299.868452
299.846376
299.831785
299.821583
299.814313
299.809931
299.807096
299.802151
299.796631
299.791948
299.789282
299.786402
299.783973
299.783476
299.785618
299.790023
299.793217
299.794257
299.796291
299.815291
299.825198
299.834482
299.839149
471.90229
469.682672
467.404791
465.066925
462.666959
460.202332
457.669994
455.066372
452.38734
449.628198
446.78367
443.847909
440.814523
437.676626
434.426908
431.057742
427.561321
423.929833
420.155686
416.231786
412.15187
407.910901
403.505529
398.934613
394.199804
389.306169
384.262848
379.083697
373.787895
368.400439
362.952466
357.481328
352.030326
346.64803
341.387115
336.302692
331.450133
326.882518
322.647692
318.785293
315.324358
312.281335
309.658749
307.445118
305.616824
304.13937
302.9714
302.069112
301.3891
300.88946
300.531367
300.280955
300.110218
299.99689
299.923727
299.878184
299.849681
299.831306
299.820294
299.813409
299.809477
299.807742
299.807235
299.805706
299.803569
299.800955
299.798617
299.794787
299.792293
299.791
299.790416
299.797371
299.805032
299.813793
299.823148
299.825254
299.820597
299.824721
299.832366
299.841179
471.79143
469.347602
466.839525
464.265229
461.622305
458.907861
456.118484
453.250211
450.298515
447.258306
444.123948
440.889299
437.54777
434.092424
430.516097
426.811567
422.971755
418.989987
414.860301
410.577821
406.139188
401.543044
396.790582
391.886137
386.837795
381.658019
376.364219
370.979247
365.531733
360.056203
354.592892
349.187181
343.888585
338.74927
333.822097
329.158265
324.804705
320.801497
317.179291
313.957216
311.141606
308.726774
306.695846
305.022153
303.671778
302.606824
301.786637
301.170775
300.720767
300.402527
300.184395
300.039709
299.947166
299.890369
299.857136
299.838989
299.829654
299.825047
299.820094
299.812902
299.808106
299.804586
299.802481
299.801893
299.802038
299.802782
299.803846
299.807566
299.810631
299.813713
299.815416
299.814375
299.815764
299.814904
299.821961
299.83398
299.839436
299.837821
299.838159
299.844121
472.604079
471.803533
470.982099
470.139366
469.274913
468.388304
467.479088
466.546798
465.59095
464.611036
463.606526
462.576862
461.521454
460.439676
459.330864
458.194306
457.029242
455.834856
454.610274
453.354556
452.066693
450.745603
449.390126
447.999025
446.570962
445.104505
443.59813
442.050223
440.459083
438.822923
437.139873
435.407987
433.625241
431.789533
429.898711
427.95061
425.943079
423.873959
421.741057
419.542106
417.274683
414.936158
412.523716
410.034171
407.464368
404.811296
402.072222
399.244903
396.327126
393.31711
390.214029
387.018172
383.732153
380.363349
376.927792
373.430951
369.891822
366.335113
362.784729
359.295553
355.91295
352.699483
349.709998
346.990685
344.564589
342.406147
340.489908
338.777202
337.192029
335.646757
334.088317
332.470039
330.782429
329.033713
327.250139
325.481011
323.831575
322.412415
321.245364
320.309084
472.602292
471.798156
470.973087
470.126713
469.258651
468.368513
467.4559
466.5204
465.561589
464.579026
463.572249
462.540773
461.484088
460.401648
459.292873
458.157141
456.99378
455.802067
454.581216
453.330377
452.048625
450.734951
449.388259
448.007357
446.59097
445.137724
443.646135
442.11461
440.541437
438.924791
437.262725
435.553175
433.79396
431.982778
430.117216
428.194737
426.212683
424.168254
422.058477
419.880416
417.630625
415.305523
412.901358
410.414195
407.839981
405.174662
402.414461
399.556612
396.596058
393.53081
390.358944
387.080878
383.699081
380.218639
376.645894
373.003688
369.318944
365.627541
361.976111
358.419547
355.018524
351.833926
348.916915
346.298107
343.980516
341.933042
340.099232
338.395958
336.751109
335.088244
333.361171
331.563102
329.747277
327.951886
326.218808
324.58192
323.163086
321.983484
320.97256
320.047363
472.597247
471.782928
470.947454
470.090482
469.211665
468.310655
467.387098
466.440634
465.470895
464.4775
463.460055
462.418146
461.351337
460.259169
459.141147
457.996742
456.825384
455.626452
454.399274
453.143113
451.857165
450.540548
449.192293
447.811339
446.396517
444.946547
443.460025
441.935412
440.371023
438.76502
437.115396
435.419971
433.676374
431.882039
430.034192
428.12984
426.165769
424.138531
422.044443
419.87944
417.639419
415.319923
412.916148
410.422946
407.834842
405.146061
402.350471
399.441258
396.414359
393.264748
389.990207
386.591068
383.072313
379.444892
375.727786
371.949846
368.148686
364.372105
360.677299
357.127736
353.78737
350.712259
347.940533
345.482484
343.313631
341.375548
339.586253
337.863953
336.140281
334.361963
332.496513
330.576387
328.792945
327.162133
325.685729
324.225355
322.975961
321.903802
321.029903
320.378264
472.588788
471.757383
470.904416
470.029567
469.13252
468.212959
467.270572
466.305041
465.31605
464.303271
463.26637
462.204998
461.118789
460.007357
458.870289
457.707143
456.517438
455.300654
454.05622
452.783509
451.481829
450.150415
448.788416
447.394888
445.968781
444.508922
443.014006
441.48258
439.913023
438.303535
436.652113
434.956533
433.214331
431.422773
429.578836
427.679175
425.720098
423.697541
421.607022
419.443607
417.201889
414.875971
412.459462
409.94549
407.32675
404.595654
401.744595
398.766357
395.654721
392.405308
389.016809
385.492518
381.842167
378.083931
374.246374
370.369968
366.505664
362.711714
359.053294
355.596942
352.402413
349.512635
346.943493
344.67639
342.657324
340.805796
339.033562
337.269455
335.513842
333.732028
331.890548
330.004549
328.355869
326.932648
325.756962
324.84977
323.87051
322.878583
321.975297
321.140694
472.57671
471.720899
470.842925
469.942484
469.019284
468.073038
467.103463
466.110283
465.093221
464.051997
462.986328
461.89592
460.780468
459.639649
458.473121
457.280517
456.061436
454.815443
453.542058
452.240752
450.910933
449.551942
448.163038
446.743388
445.29205
443.807963
442.289924
440.736571
439.146364
437.517557
435.848173
434.135975
432.378433
430.572693
428.715532
426.803311
424.831938
422.796822
420.692821
418.51419
416.254537
413.906806
411.463296
408.915717
406.255314
403.473123
400.560387
397.50919
394.313345
390.969619
387.479289
383.850027
380.097959
376.249668
372.343774
368.431569
364.57607
360.846552
357.310647
354.030595
351.053258
348.400323
346.060775
343.988921
342.109196
340.332874
338.574895
336.766072
335.056258
333.437122
332.008653
330.56833
329.192766
327.901388
326.686598
325.578681
324.65639
323.888555
323.160797
322.433937
472.560805
471.672847
470.761916
469.827719
468.869975
467.888416
466.882787
465.852836
464.79832
463.718995
462.614618
461.484941
460.329705
459.148643
457.941468
456.707875
455.447532
454.160078
452.84511
451.502183
450.130799
448.730392
447.300326
445.839873
444.348205
442.824373
441.267287
439.675695
438.048161
436.383035
434.678416
432.932121
431.141639
429.304092
427.416184
425.474133
423.473613
421.409694
419.27678
417.068548
414.777903
412.39697
409.917127
407.329122
404.623297
401.789973
398.820045
395.705848
392.442339
389.028629
385.469831
381.779149
377.979957
374.107509
370.209745
366.346605
362.587217
359.004593
355.667934
352.629805
349.917365
347.52868
345.429429
343.562838
341.839066
340.19573
338.576722
336.960971
335.363007
333.833269
332.422287
331.158882
330.019868
328.984439
328.064578
327.279204
326.578091
325.913704
325.225312
324.496928
472.540812
471.612434
470.660049
469.683358
468.682087
467.655973
466.604772
465.52825
464.426182
463.29835
462.144536
460.964524
459.758093
458.525013
457.265044
455.977932
454.6634
453.32115
451.950851
450.552136
449.124592
447.667752
446.181082
444.663975
443.115726
441.535526
439.922433
438.27535
436.593005
434.873912
433.116342
431.318273
429.477341
427.59079
425.65541
423.667466
421.622621
419.515867
417.341448
415.092799
412.76251
410.342328
407.823231
405.195606
402.449571
399.5755
396.564813
393.411066
390.111392
386.66828
383.091599
379.400701
375.626263
371.811391
368.011385
364.291548
360.72256
357.373389
354.302331
351.547608
349.119804
346.999175
345.120615
343.425233
341.842752
340.323831
338.844037
337.418502
336.086523
334.879663
333.798531
332.821461
331.939599
331.170759
330.520392
329.971349
329.472058
328.935624
328.274679
327.502259
472.516414
471.538708
470.535712
469.507115
468.452629
467.371987
466.26494
465.131256
463.970716
462.783111
461.568238
460.325898
459.055893
457.758023
456.432083
455.077861
453.695133
452.28366
450.843183
449.373419
447.874053
446.34473
444.785048
443.194545
441.572688
439.918856
438.232321
436.51222
434.757534
432.967049
431.139324
429.27264
427.364947
425.413802
423.416301
421.368998
419.267829
417.108022
414.88402
412.589421
410.216945
407.758466
405.205126
402.547583
399.776444
396.882929
393.859827
390.70279
387.411969
383.993925
380.463689
376.846666
373.180002
369.512842
365.904896
362.422795
359.134009
356.09874
353.360998
350.940639
348.825194
346.98089
345.334477
343.844601
342.458222
341.148717
339.920194
338.794683
337.795554
336.925259
336.166485
335.501833
334.934949
334.471582
334.089757
333.762108
333.408403
332.948263
332.364796
331.759847
472.487335
471.450826
470.387485
469.296971
468.178967
467.033183
465.859354
464.657232
463.426589
462.167212
460.878897
459.561453
458.214698
456.838452
455.432543
453.996803
452.531061
451.035149
449.508896
447.952124
446.364646
444.746256
443.096731
441.415812
439.703202
437.958548
436.181423
434.371307
432.527559
430.64938
428.735779
426.785522
424.797073
422.768531
420.697551
418.581256
416.416155
414.198042
411.921925
409.581962
407.171454
404.682893
402.108134
399.438733
396.66647
393.784145
390.786654
387.67239
384.445044
381.115471
377.703582
374.239861
370.766051
367.33452
364.005731
360.843531
357.908432
355.24949
352.896322
350.851849
349.087512
347.565428
346.227062
345.018498
343.903499
342.872226
341.938491
341.124905
340.446415
339.901562
339.476905
339.157817
338.944818
338.82452
338.768296
338.729583
338.639094
338.481807
338.355111
338.40847
472.453481
471.348507
470.214892
469.052248
467.860216
466.638467
465.3867
464.10464
462.792035
461.448655
460.074288
458.668744
457.231848
455.763446
454.263402
452.731598
451.167936
449.572342
447.944758
446.28515
444.593506
442.869828
441.114139
439.326467
437.506845
435.6553
433.771832
431.856403
429.908907
427.929136
425.91674
423.871179
421.791654
419.677044
417.525811
415.33592
413.104733
410.828914
408.504356
406.126128
403.68849
401.184982
398.608628
395.952373
393.209675
390.375417
387.447044
384.425911
381.319123
378.141434
374.916729
371.679057
368.472651
365.350366
362.370242
359.590116
357.060723
354.818361
352.878571
351.231049
349.845702
348.674323
347.663413
346.767692
345.961872
345.245686
344.638872
344.167386
343.851058
343.698635
343.689124
343.757615
344.005199
344.37201
344.807897
345.298244
345.840856
346.525966
347.49619
348.87871
472.415102
471.232512
470.01922
468.774776
467.498764
466.190802
464.850539
463.477658
462.071873
460.632928
459.160596
457.654683
456.115029
454.541508
452.934033
451.292559
449.617088
447.907671
446.164415
444.387484
442.577107
440.733575
438.857246
436.948543
435.00795
433.036006
431.033292
429.000412
426.937969
424.846533
422.726592
420.578501
418.402413
416.198197
413.965349
411.702889
409.40926
407.082222
404.718789
402.315189
399.866908
397.368813
394.815419
392.201405
389.522291
386.77538
383.960951
381.083773
378.154377
375.1908
372.219482
369.275579
366.402334
363.648959
361.06698
358.705067
356.602901
354.785238
353.257425
352.003905
350.99081
350.172745
349.503063
348.945411
348.483289
348.124215
347.894501
347.82377
347.857413
348.078322
348.529606
349.162103
349.967626
350.938184
352.058133
353.312668
354.661131
356.207684
357.992707
360.036295
472.372914
471.105
469.80411
468.469721
467.101346
465.698538
464.260885
462.788019
461.27961
459.735372
458.155063
456.538489
454.885511
453.196048
451.470084
449.707676
447.908964
446.074176
444.20364
442.297791
440.35718
438.382481
436.374497
434.334166
432.262553
430.160856
428.030387
425.872557
423.688853
421.480794
419.249886
416.997556
414.725081
412.433494
410.123483
407.795279
405.448555
403.082315
400.694855
398.283751
395.845928
393.377829
390.875683
388.336112
385.756819
383.137433
380.480421
377.792795
375.087073
372.382565
369.706018
367.091502
364.579336
362.213666
360.038823
358.094654
356.411381
355.005002
353.874263
353.000331
352.349841
351.881167
351.55292
351.333475
351.207373
351.153151
351.185444
351.381884
351.738575
352.274578
353.003457
353.89342
354.915309
356.053013
357.307795
358.694872
360.190934
361.79063
363.478338
365.254897
472.3282
470.969856
469.57612
468.146387
466.680091
465.176709
463.635764
462.056829
460.439529
458.783547
457.088631
455.354597
453.581341
451.76885
449.917207
448.026611
446.097381
444.12998
442.125022
440.083286
438.005733
435.893518
433.747997
431.570734
429.363506
427.128301
424.867302
422.582872
420.27752
417.953862
415.614556
413.26223
410.899399
408.528372
406.151134
403.769231
401.383655
398.994735
396.602056
394.204444
391.80006
389.386595
386.961528
384.522826
382.069695
379.603448
377.12832
374.652775
372.190576
369.761573
367.392006
365.114051
362.964392
360.981666
359.202906
357.659427
356.372667
355.350993
354.587993
354.062947
353.742542
353.599996
353.5517
353.608083
353.746953
353.960246
354.252797
354.642447
355.137238
355.747632
356.490858
357.361473
358.340525
359.405641
360.540827
361.740784
362.989117
364.259726
365.511313
366.674522
472.282895
470.832922
469.345105
467.818752
466.253213
464.647885
463.002223
461.315739
459.588014
457.818707
456.00756
454.154413
452.259215
450.322041
448.343104
446.322777
444.261608
442.160339
440.019928
437.841568
435.626703
433.377047
431.094595
428.781635
426.440752
424.074824
421.687013
419.28074
416.859649
414.427553
411.988366
409.546011
407.104309
404.666856
402.236877
399.817094
397.409596
395.015761
392.636184
390.270699
387.918498
385.578379
383.249035
380.929691
378.620825
376.325024
374.047903
371.798999
369.592552
367.447923
365.389506
363.445952