/*--------------------------------*- C++ -*----------------------------------*\
  =========                 |
  \\      /  F ield         | OpenFOAM: The Open Source CFD Toolbox
   \\    /   O peration     | Website:  https://openfoam.org
    \\  /    A nd           | Version:  8
     \\/     M anipulation  |
\*---------------------------------------------------------------------------*/
FoamFile
{
    version     2.0;
    format      ascii;
    class       volScalarField;
    location    "0.073";
    object      p;
}
// * * * * * * * * * * * * * * * * * * * * * * * * * * * * * * * * * * * * * //

dimensions      [1 -1 -2 0 0 0 0];

internalField   nonuniform List<scalar> 
42400
(
101578.384
101578.371
101578.356
101578.34
101578.323
101578.306
101578.287
101578.267
101578.246
101578.223
101578.2
101578.175
101578.149
101578.122
101578.094
101578.064
101578.032
101577.999
101577.964
101577.927
101577.888
101577.847
101577.804
101577.758
101577.709
101577.657
101577.603
101577.545
101577.483
101577.418
101577.349
101577.275
101577.198
101577.115
101577.028
101576.936
101576.839
101576.744
101576.651
101576.555
101576.437
101576.294
101576.143
101575.998
101575.861
101575.718
101575.57
101575.418
101575.261
101575.098
101574.929
101574.752
101574.583
101574.418
101574.259
101574.076
101573.874
101573.694
101573.528
101573.366
101573.199
101573.037
101572.886
101572.75
101572.637
101572.559
101572.484
101572.34
101572.28
101572.434
101572.411
101572.601
101573.485
101573.164
101571.351
101569.528
101570.868
101574.765
101581.196
101586.878
101578.414
101578.404
101578.392
101578.379
101578.365
101578.35
101578.333
101578.316
101578.297
101578.278
101578.257
101578.234
101578.211
101578.186
101578.16
101578.132
101578.103
101578.073
101578.04
101578.006
101577.97
101577.932
101577.891
101577.848
101577.803
101577.755
101577.704
101577.65
101577.592
101577.532
101577.467
101577.399
101577.327
101577.25
101577.175
101577.103
101577.028
101576.938
101576.825
101576.702
101576.585
101576.475
101576.361
101576.242
101576.118
101575.99
101575.857
101575.716
101575.584
101575.459
101575.339
101575.195
101575.03
101574.884
101574.751
101574.625
101574.495
101574.368
101574.249
101574.142
101574.054
101573.991
101573.96
101573.969
101574.016
101574.121
101574.285
101574.373
101574.477
101575.038
101575.731
101576.398
101578.073
101578.924
101578.853
101582.154
101586.86
101588.852
101591.881
101594.422
101578.58
101578.573
101578.563
101578.553
101578.541
101578.529
101578.515
101578.5
101578.485
101578.468
101578.45
101578.431
101578.41
101578.389
101578.366
101578.343
101578.317
101578.291
101578.263
101578.233
101578.202
101578.169
101578.134
101578.097
101578.058
101578.017
101577.973
101577.927
101577.878
101577.826
101577.77
101577.714
101577.658
101577.602
101577.538
101577.458
101577.369
101577.279
101577.195
101577.11
101577.022
101576.929
101576.834
101576.733
101576.625
101576.527
101576.444
101576.338
101576.207
101576.087
101575.98
101575.884
101575.785
101575.685
101575.59
101575.503
101575.428
101575.374
101575.343
101575.335
101575.357
101575.417
101575.52
101575.696
101575.964
101576.383
101576.919
101577.424
101577.795
101578.425
101579.439
101580.253
101582.257
101587.621
101592.103
101592.027
101591.565
101594.711
101598.894
101601.87
101578.898
101578.892
101578.884
101578.876
101578.866
101578.856
101578.844
101578.832
101578.819
101578.805
101578.79
101578.774
101578.757
101578.74
101578.721
101578.702
101578.682
101578.66
101578.638
101578.614
101578.59
101578.564
101578.536
101578.508
101578.477
101578.445
101578.411
101578.376
101578.339
101578.302
101578.264
101578.22
101578.167
101578.11
101578.049
101577.99
101577.935
101577.876
101577.813
101577.748
101577.678
101577.601
101577.533
101577.479
101577.403
101577.304
101577.22
101577.15
101577.076
101577.001
101576.927
101576.858
101576.798
101576.752
101576.723
101576.712
101576.722
101576.757
101576.832
101576.956
101577.133
101577.374
101577.686
101578.1
101578.631
101579.42
101580.368
101581.507
101582.392
101583.388
101585.889
101589.722
101592.004
101592.288
101593.33
101595.242
101597.423
101600.078
101603.204
101606.406
101579.351
101579.345
101579.338
101579.331
101579.323
101579.314
101579.304
101579.293
101579.283
101579.271
101579.26
101579.247
101579.235
101579.221
101579.208
101579.194
101579.179
101579.164
101579.149
101579.132
101579.116
101579.099
101579.08
101579.059
101579.038
101579.017
101578.996
101578.974
101578.949
101578.921
101578.891
101578.862
101578.833
101578.802
101578.768
101578.731
101578.693
101578.651
101578.603
101578.563
101578.537
101578.489
101578.422
101578.369
101578.326
101578.278
101578.228
101578.181
101578.138
101578.104
101578.08
101578.068
101578.071
101578.094
101578.143
101578.227
101578.357
101578.539
101578.781
101579.097
101579.507
101579.999
101580.583
101581.261
101582.034
101583.065
101584.033
101585.649
101589.235
101592.386
101593.376
101593.905
101595.792
101597.624
101599.096
101601.016
101603.755
101606.242
101608.817
101611.482
101579.914
101579.908
101579.902
101579.894
101579.887
101579.879
101579.871
101579.862
101579.853
101579.844
101579.835
101579.827
101579.818
101579.809
101579.801
101579.792
101579.784
101579.776
101579.768
101579.759
101579.749
101579.739
101579.732
101579.726
101579.719
101579.711
101579.703
101579.695
101579.686
101579.676
101579.665
101579.653
101579.64
101579.626
101579.609
101579.587
101579.573
101579.571
101579.551
101579.512
101579.487
101579.471
101579.45
101579.427
101579.406
101579.389
101579.377
101579.372
101579.377
101579.393
101579.428
101579.486
101579.574
101579.697
101579.866
101580.09
101580.381
101580.753
101581.223
101581.785
101582.474
101583.258
101584.188
101585.16
101586.14
101587.761
101591.181
101593.107
101593.503
101594.725
101596.727
101598.644
101600.224
101601.917
101604.206
101606.521
101608.815
101611.093
101613.963
101616.174
101580.539
101580.532
101580.525
101580.518
101580.511
101580.504
101580.497
101580.49
101580.484
101580.478
101580.472
101580.468
101580.463
101580.46
101580.457
101580.455
101580.453
101580.451
101580.45
101580.452
101580.456
101580.461
101580.465
101580.469
101580.474
101580.479
101580.484
101580.49
101580.495
101580.501
101580.506
101580.511
101580.511
101580.519
101580.539
101580.543
101580.53
101580.532
101580.542
101580.546
101580.549
101580.555
101580.562
101580.573
101580.59
101580.615
101580.652
101580.704
101580.775
101580.871
101580.997
101581.158
101581.365
101581.627
101581.953
101582.361
101582.863
101583.456
101584.168
101584.952
101585.883
101586.766
101587.915
101590.242
101593.019
101594.697
101595.378
101596.655
101598.545
101600.23
101601.867
101603.416
101605.098
101607.138
101609.426
101611.632
101613.893
101616.101
101618.741
101620.849
101581.173
101581.167
101581.159
101581.152
101581.146
101581.14
101581.135
101581.131
101581.127
101581.125
101581.123
101581.123
101581.124
101581.126
101581.129
101581.134
101581.141
101581.15
101581.16
101581.171
101581.183
101581.197
101581.212
101581.228
101581.245
101581.264
101581.284
101581.305
101581.326
101581.344
101581.369
101581.406
101581.43
101581.441
101581.465
101581.496
101581.524
101581.55
101581.579
101581.611
101581.645
101581.686
101581.734
101581.792
101581.863
101581.951
101582.06
101582.196
101582.363
101582.568
101582.819
101583.125
101583.497
101583.949
101584.488
101585.123
101585.865
101586.691
101587.639
101588.555
101589.917
101592.574
101594.941
101595.828
101596.524
101597.959
101599.374
101601.114
101602.549
101603.962
101605.986
101607.967
101610.044
101612.124
101614.268
101616.411
101618.806
101621.251
101623.738
101625.639
101581.752
101581.746
101581.739
101581.734
101581.729
101581.726
101581.724
101581.723
101581.723
101581.725
101581.728
101581.734
101581.741
101581.751
101581.762
101581.776
101581.791
101581.808
101581.828
101581.849
101581.873
101581.899
101581.927
101581.957
101581.988
101582.021
101582.053
101582.091
101582.141
101582.181
101582.211
101582.253
101582.302
101582.348
101582.395
101582.444
101582.497
101582.553
101582.615
101582.684
101582.761
101582.85
101582.954
101583.077
101583.224
101583.398
101583.606
101583.854
101584.148
101584.498
101584.913
101585.405
101585.982
101586.651
101587.404
101588.235
101589.183
101590.255
101591.804
101594.176
101596.008
101596.702
101597.423
101598.808
101600.667
101602.376
101603.758
101605.409
101606.906
101608.436
101610.336
101612.44
101614.44
101616.557
101618.696
101620.865
101623.195
101625.831
101628.517
101631.238
101582.212
101582.208
101582.203
101582.201
101582.199
101582.2
101582.202
101582.206
101582.213
101582.221
101582.232
101582.245
101582.26
101582.278
101582.298
101582.321
101582.347
101582.376
101582.407
101582.441
101582.478
101582.517
101582.559
101582.601
101582.649
101582.708
101582.76
101582.805
101582.861
101582.924
101582.986
101583.049
101583.115
101583.185
101583.259
101583.339
101583.424
101583.518
101583.623
101583.741
101583.875
101584.03
101584.21
101584.419
101584.664
101584.951
101585.286
101585.677
101586.133
101586.669
101587.296
101588.013
101588.823
101589.729
101590.734
101591.739
101593.172
101595.249
101596.842
101597.679
101598.544
101600.054
101601.923
101603.467
101604.627
101605.816
101607.431
101609.402
101611.228
101613.073
101615.039
101617.091
101619.077
101621.203
101623.427
101625.764
101628.18
101630.273
101632.482
101635.605
101582.494
101582.493
101582.492
101582.493
101582.497
101582.503
101582.511
101582.521
101582.535
101582.551
101582.57
101582.592
101582.617
101582.645
101582.677
101582.712
101582.75
101582.792
101582.837
101582.885
101582.935
101582.991
101583.057
101583.118
101583.175
101583.243
101583.317
101583.391
101583.468
101583.549
101583.633
101583.722
101583.816
101583.916
101584.024
101584.141
101584.27
101584.413
101584.575
101584.757
101584.965
101585.205
101585.48
101585.797
101586.164
101586.585
101587.069
101587.627
101588.269
101589.001
101589.832
101590.752
101591.751
101592.879
101594.324
101595.967
101597.41
101598.326
101599.174
101600.578
101602.351
101603.753
101605.258
101607.009
101608.488
101610.086
101611.838
101613.674
101615.446
101617.273
101619.235
101621.197
101623.295
101625.432
101627.62
101630.022
101632.639
101635.364
101637.574
101639.655
101582.529
101582.531
101582.536
101582.543
101582.553
101582.566
101582.581
101582.6
101582.622
101582.648
101582.678
101582.711
101582.748
101582.789
101582.834
101582.883
101582.936
101582.991
101583.053
101583.123
101583.192
101583.259
101583.336
101583.419
101583.503
101583.591
101583.683
101583.779
101583.881
101583.987
101584.1
101584.22
101584.349
101584.488
101584.641
101584.809
101584.996
101585.205
101585.442
101585.71
101586.015
101586.362
101586.758
101587.208
101587.718
101588.295
101588.945
101589.678
101590.489
101591.374
101592.339
101593.388
101594.561
101596.156
101597.8
101599.321
101600.478
101601.553
101603.229
101605.072
101606.738
101607.966
101608.956
101610.122
101611.846
101613.627
101615.427
101617.215
101619.049
101620.898
101622.818
101624.777
101626.876
101628.893
101631.093
101633.819
101636.489
101639.01
101641.333
101643.641
101582.241
101582.25
101582.262
101582.276
101582.295
101582.316
101582.342
101582.371
101582.404
101582.442
101582.484
101582.53
101582.581
101582.636
101582.696
101582.762
101582.835
101582.909
101582.984
101583.067
101583.156
101583.249
101583.345
101583.447
101583.553
101583.664
101583.781
101583.905
101584.035
101584.175
101584.324
101584.485
101584.661
101584.854
101585.067
101585.305
101585.571
101585.87
101586.209
101586.591
101587.023
101587.511
101588.059
101588.673
101589.358
101590.124
101590.972
101591.903
101592.914
101593.985
101595.143
101596.764
101598.711
101600.077
101601.043
101601.935
101603.185
101605.113
101606.417
101607.28
101608.448
101610.114
101611.701
101613.29
101615.077
101616.869
101618.685
101620.558
101622.475
101624.333
101626.122
101628.403
101631.284
101634.24
101636.556
101638.281
101640.229
101642.316
101644.144
101646.451
101581.555
101581.572
101581.593
101581.617
101581.646
101581.678
101581.715
101581.757
101581.804
101581.855
101581.911
101581.972
101582.041
101582.113
101582.188
101582.27
101582.357
101582.451
101582.549
101582.651
101582.759
101582.873
101582.992
101583.117
101583.248
101583.387
101583.534
101583.69
101583.858
101584.039
101584.236
101584.451
101584.688
101584.951
101585.245
101585.573
101585.943
101586.357
101586.823
101587.346
101587.928
101588.576
101589.289
101590.07
101590.92
101591.842
101592.816
101593.823
101595.057
101596.682
101598.228
101599.442
101600.373
101601.5
101602.89
101604.486
101606.249
101607.4
101608.522
101609.955
101611.45
101613.144
101614.906
101616.706
101618.529
101620.417
101622.328
101624.277
101626.342
101628.352
101630.421
101632.546
101634.536
101636.617
101638.524
101640.626
101642.932
101644.861
101646.836
101649.22
101580.399
101580.425
101580.458
101580.494
101580.535
101580.58
101580.631
101580.686
101580.748
101580.815
101580.887
101580.964
101581.047
101581.136
101581.231
101581.331
101581.437
101581.548
101581.665
101581.789
101581.918
101582.054
101582.197
101582.348
101582.509
101582.679
101582.862
101583.059
101583.273
101583.507
101583.764
101584.049
101584.366
101584.72
101585.116
101585.561
101586.059
101586.617
101587.24
101587.933
101588.701
101589.546
101590.472
101591.482
101592.58
101593.78
101595.052
101596.424
101597.692
101599.004
101600.425
101601.644
101602.832
101604.116
101605.793
101607.278
101608.196
101609.389
101611.049
101612.844
101614.658
101616.419
101618.223
101620.108
101622.025
101623.967
101625.895
101627.777
101629.679
101631.846
101634.032
101635.552
101637.454
101639.563
101641.237
101643.428
101645.722
101647.668
101648.913
101650.486
101578.707
101578.745
101578.792
101578.842
101578.897
101578.958
101579.024
101579.095
101579.172
101579.256
101579.345
101579.44
101579.541
101579.649
101579.762
101579.882
101580.007
101580.14
101580.279
101580.426
101580.58
101580.743
101580.917
101581.101
101581.299
101581.512
101581.743
101581.995
101582.272
101582.577
101582.915
101583.292
101583.711
101584.178
101584.699
101585.279
101585.921
101586.631
101587.411
101588.264
101589.192
101590.196
101591.276
101592.434
101593.668
101594.969
101596.324
101597.68
101599.132
101600.483
101601.805
101603.202
101604.585
101605.982
101607.324
101608.839
101610.595
101612.336
101613.978
101615.503
101616.876
101618.503
101620.784
101623.056
101625.253
101627.442
101629.597
101631.275
101633.02
101635.35
101637.815
101640.136
101641.94
101643.815
101646.293
101647.681
101649.599
101651.906
101653.336
101654.673
101576.449
101576.501
101576.564
101576.63
101576.701
101576.777
101576.86
101576.949
101577.043
101577.144
101577.251
101577.365
101577.485
101577.611
101577.745
101577.885
101578.033
101578.189
101578.354
101578.529
101578.715
101578.913
101579.127
101579.357
101579.606
101579.879
101580.178
101580.508
101580.873
101581.278
101581.728
101582.227
101582.781
101583.394
101584.069
101584.809
101585.615
101586.485
101587.414
101588.393
101589.429
101590.497
101591.542
101592.737
101594.297
101595.921
101597.384
101598.873
101600.406
101601.927
101603.501
101605.109
101606.731
101608.456
101610.253
101612.107
101614.055
101616.214
101618.329
101620.404
101622.674
101624.673
101626.271
101627.985
101629.509
101630.761
101632.471
101635.492
101638.082
101640.054
101641.753
101643.465
101645.27
101646.971
101648.489
101650.346
101652.829
101654.684
101656.954
101657.917
101573.608
101573.676
101573.756
101573.84
101573.928
101574.022
101574.123
101574.229
101574.342
101574.462
101574.589
101574.723
101574.864
101575.013
101575.17
101575.337
101575.514
101575.701
101575.902
101576.118
101576.35
101576.601
101576.875
101577.175
101577.505
101577.869
101578.272
101578.72
101579.217
101579.768
101580.379
101581.054
101581.797
101582.612
101583.5
101584.463
101585.504
101586.619
101587.791
101589.044
101590.482
101592.381
101594.792
101597.099
101598.495
101599.598
101600.771
101602.144
101603.721
101605.205
101606.555
101607.935
101609.596
101611.476
101613.253
101615.082
101617.086
101619.014
101620.888
101622.838
101624.939
101626.836
101628.313
101629.593
101631.6
101634.731
101636.733
101638.233
101639.965
101642.177
101644.557
101646.649
101648.503
101650.338
101652.246
101654.044
101655.703
101657.928
101660.138
101661.198
101570.22
101570.304
101570.403
101570.504
101570.609
101570.721
101570.839
101570.964
101571.096
101571.235
101571.382
101571.537
101571.702
101571.877
101572.062
101572.261
101572.474
101572.704
101572.954
101573.225
101573.523
101573.85
101574.212
101574.613
101575.058
101575.555
101576.108
101576.723
101577.406
101578.162
101578.997
101579.914
101580.915
101582.002
101583.175
101584.432
101585.766
101587.155
101588.558
101590.334
101592.564
101594.143
101595.118
101596.125
101597.437
101598.965
101600.664
101602.619
101604.46
101606.328
101608.339
101610.573
101612.399
101613.909
101615.637
101617.359
101619.027
101620.712
101622.545
101624.589
101626.658
101628.863
101631.16
101633.325
101635.404
101636.908
101638.891
101642.205
101644.283
101645.724
101647.351
101649.218
101651.133
101653.142
101655.168
101657.552
101660.107
101662.159
101663.663
101665.706
101566.341
101566.441
101566.557
101566.675
101566.796
101566.923
101567.056
101567.196
101567.343
101567.498
101567.662
101567.836
101568.021
101568.219
101568.432
101568.663
101568.913
101569.187
101569.489
101569.821
101570.19
101570.6
101571.057
101571.566
101572.135
101572.768
101573.471
101574.249
101575.107
101576.047
101577.072
101578.183
101579.379
101580.659
101582.02
101583.459
101584.971
101586.56
101588.338
101589.878
101591.019
101592.541
101594.694
101597.016
101599.235
101601.613
101603.464
101604.772
101606.231
101607.762
101609.244
101610.668
101612.125
101613.598
101615.606
101618.203
101620.773
101623.308
101625.785
101628.243
101630.771
101633.204
101635.644
101638.59
101640.361
101641.895
101643.825
101644.569
101646.003
101648.771
101650.752
101652.549
101654.759
101656.809
101658.736
101661.594
101663.113
101665.266
101667.552
101668.476
101583.272
101583.278
101583.284
101583.289
101583.292
101583.295
101583.296
101583.296
101583.295
101583.292
101583.288
101583.283
101583.276
101583.268
101583.258
101583.247
101583.234
101583.219
101583.203
101583.184
101583.163
101583.14
101583.115
101583.088
101583.057
101583.025
101582.989
101582.95
101582.908
101582.863
101582.814
101582.762
101582.705
101582.644
101582.579
101582.508
101582.433
101582.353
101582.266
101582.174
101582.076
101581.971
101581.859
101581.74
101581.613
101581.479
101581.336
101581.183
101581.021
101580.839
101580.644
101580.447
101580.236
101580.01
101579.768
101579.509
101579.231
101578.932
101578.612
101578.266
101577.894
101577.493
101577.057
101576.586
101576.078
101575.533
101574.949
101574.313
101573.616
101572.819
101571.888
101570.84
101569.697
101568.438
101567.005
101565.343
101563.451
101561.443
101559.575
101557.593
101582.905
101582.91
101582.915
101582.919
101582.922
101582.925
101582.926
101582.926
101582.925
101582.923
101582.92
101582.916
101582.911
101582.904
101582.897
101582.887
101582.877
101582.865
101582.851
101582.836
101582.819
101582.801
101582.78
101582.757
101582.733
101582.706
101582.676
101582.645
101582.61
101582.573
101582.533
101582.49
101582.443
101582.393
101582.34
101582.282
101582.221
101582.155
101582.084
101582.009
101581.928
101581.842
101581.751
101581.653
101581.548
101581.438
101581.32
101581.195
101581.056
101580.908
101580.755
101580.592
101580.416
101580.228
101580.027
101579.81
101579.576
101579.325
101579.055
101578.764
101578.451
101578.114
101577.752
101577.364
101576.949
101576.502
101576.012
101575.461
101574.827
101574.101
101573.287
101572.391
101571.407
101570.331
101569.16
101567.903
101566.547
101564.985
101563.226
101560.936
101582.665
101582.669
101582.674
101582.677
101582.68
101582.682
101582.684
101582.685
101582.685
101582.684
101582.682
101582.68
101582.676
101582.672
101582.667
101582.661
101582.654
101582.645
101582.636
101582.625
101582.613
101582.6
101582.585
101582.569
101582.552
101582.532
101582.511
101582.488
101582.464
101582.437
101582.408
101582.377
101582.343
101582.307
101582.268
101582.227
101582.182
101582.135
101582.084
101582.03
101581.972
101581.911
101581.845
101581.775
101581.701
101581.623
101581.539
101581.449
101581.353
101581.251
101581.141
101581.024
101580.899
101580.764
101580.62
101580.465
101580.298
101580.118
101579.923
101579.711
101579.481
101579.23
101578.955
101578.652
101578.314
101577.931
101577.491
101576.985
101576.412
101575.78
101575.089
101574.331
101573.489
101572.538
101571.469
101570.246
101568.635
101566.943
101565.051
101563.143
101582.529
101582.532
101582.536
101582.539
101582.542
101582.544
101582.546
101582.547
101582.548
101582.549
101582.549
101582.548
101582.547
101582.545
101582.543
101582.541
101582.537
101582.533
101582.529
101582.523
101582.517
101582.51
101582.502
101582.494
101582.484
101582.474
101582.462
101582.449
101582.436
101582.421
101582.404
101582.387
101582.368
101582.348
101582.326
101582.303
101582.278
101582.252
101582.224
101582.194
101582.162
101582.13
101582.095
101582.058
101582.017
101581.973
101581.929
101581.881
101581.831
101581.777
101581.719
101581.656
101581.589
101581.516
101581.437
101581.351
101581.257
101581.153
101581.038
101580.91
101580.765
101580.601
101580.413
101580.196
101579.943
101579.649
101579.309
101578.923
101578.489
101578.003
101577.452
101576.822
101576.094
101575.26
101574.316
101573.167
101571.825
101570.442
101568.965
101567.204
101582.451
101582.454
101582.457
101582.46
101582.462
101582.464
101582.466
101582.468
101582.47
101582.472
101582.474
101582.475
101582.477
101582.478
101582.479
101582.48
101582.48
101582.481
101582.481
101582.481
101582.481
101582.48
101582.479
101582.478
101582.477
101582.475
101582.473
101582.471
101582.468
101582.465
101582.462
101582.458
101582.454
101582.45
101582.446
101582.441
101582.436
101582.431
101582.427
101582.422
101582.415
101582.408
101582.401
101582.395
101582.389
101582.382
101582.376
101582.369
101582.362
101582.355
101582.347
101582.339
101582.331
101582.321
101582.31
101582.297
101582.281
101582.261
101582.237
101582.206
101582.166
101582.114
101582.046
101581.958
101581.843
101581.696
101581.511
101581.28
101580.993
101580.635
101580.196
101579.671
101579.056
101578.353
101577.442
101576.333
101575.212
101574.001
101572.457
101570.836
101582.402
101582.404
101582.406
101582.408
101582.411
101582.413
101582.415
101582.418
101582.421
101582.424
101582.427
101582.43
101582.433
101582.437
101582.441
101582.445
101582.449
101582.454
101582.458
101582.463
101582.468
101582.474
101582.479
101582.485
101582.491
101582.498
101582.505
101582.512
101582.52
101582.528
101582.536
101582.545
101582.555
101582.566
101582.578
101582.591
101582.604
101582.618
101582.633
101582.649
101582.667
101582.686
101582.707
101582.73
101582.755
101582.782
101582.811
101582.842
101582.876
101582.912
101582.95
101582.991
101583.035
101583.082
101583.131
101583.182
101583.234
101583.289
101583.343
101583.396
101583.447
101583.491
101583.525
101583.544
101583.54
101583.503
101583.423
101583.285
101583.079
101582.798
101582.443
101582.003
101581.368
101580.876
101580.301
101579.345
101578.271
101577.143
101576.133
101574.736
101582.34
101582.34
101582.342
101582.343
101582.345
101582.347
101582.35
101582.353
101582.356
101582.36
101582.364
101582.368
101582.373
101582.379
101582.385
101582.392
101582.399
101582.406
101582.414
101582.423
101582.432
101582.442
101582.453
101582.464
101582.477
101582.489
101582.503
101582.518
101582.534
101582.552
101582.571
101582.59
101582.611
101582.633
101582.656
101582.681
101582.709
101582.738
101582.77
101582.804
101582.841
101582.88
101582.922
101582.968
101583.017
101583.07
101583.126
101583.186
101583.251
101583.32
101583.394
101583.472
101583.555
101583.643
101583.736
101583.834
101583.937
101584.045
101584.157
101584.272
101584.389
101584.506
101584.62
101584.723
101584.809
101584.868
101584.886
101584.852
101584.752
101584.579
101584.318
101583.949
101583.443
101582.807
101582.101
101581.302
101580.47
101579.699
101578.898
101577.471
101582.24
101582.24
101582.241
101582.242
101582.243
101582.245
101582.247
101582.25
101582.253
101582.257
101582.262
101582.267
101582.273
101582.279
101582.286
101582.294
101582.303
101582.313
101582.323
101582.334
101582.346
101582.359
101582.373
101582.389
101582.405
101582.423
101582.441
101582.461
101582.482
101582.504
101582.527
101582.553
101582.581
101582.611
101582.642
101582.676
101582.713
101582.752
101582.794
101582.839
101582.888
101582.94
101582.995
101583.055
101583.119
101583.187
101583.261
101583.339
101583.423
101583.512
101583.607
101583.708
101583.816
101583.93
101584.051
101584.179
101584.315
101584.459
101584.61
101584.769
101584.933
101585.102
101585.271
101585.435
101585.583
101585.705
101585.784
101585.8
101585.733
101585.564
101585.27
101584.828
101584.233
101583.534
101582.783
101581.987
101581.16
101580.319
101579.393
101578.222
101582.078
101582.077
101582.077
101582.077
101582.077
101582.078
101582.08
101582.082
101582.085
101582.089
101582.094
101582.099
101582.105
101582.111
101582.119
101582.127
101582.136
101582.146
101582.157
101582.168
101582.181
101582.195
101582.209
101582.225
101582.242
101582.26
101582.28
101582.301
101582.324
101582.348
101582.374
101582.402
101582.432
101582.464
101582.498
101582.535
101582.574
101582.616
101582.66
101582.708
101582.76
101582.815
101582.873
101582.936
101583.003
101583.075
101583.151
101583.232
101583.319
101583.411
101583.508
101583.611
101583.72
101583.834
101583.954
101584.079
101584.209
101584.346
101584.487
101584.634
101584.783
101584.934
101585.089
101585.239
101585.375
101585.48
101585.538
101585.528
101585.428
101585.215
101584.843
101584.306
101583.657
101582.939
101582.18
101581.395
101580.599
101579.825
101579.056
101578.025
101581.851
101581.849
101581.848
101581.846
101581.846
101581.846
101581.846
101581.847
101581.849
101581.851
101581.854
101581.857
101581.862
101581.867
101581.873
101581.88
101581.888
101581.896
101581.906
101581.916
101581.927
101581.939
101581.953
101581.967
101581.982
101581.999
101582.017
101582.036
101582.057
101582.079
101582.102
101582.127
101582.154
101582.183
101582.213
101582.246
101582.281
101582.318
101582.358
101582.401
101582.446
101582.494
101582.546
101582.6
101582.659
101582.72
101582.786
101582.855
101582.928
101583.004
101583.085
101583.17
101583.259
101583.352
101583.451
101583.558
101583.672
101583.794
101583.923
101584.061
101584.206
101584.351
101584.486
101584.602
101584.687
101584.728
101584.707
101584.601
101584.381
101584.008
101583.498
101582.859
101582.14
101581.384
101580.603
101579.805
101579.004
101578.247
101577.525
101576.537
101581.551
101581.548
101581.545
101581.542
101581.54
101581.538
101581.537
101581.536
101581.536
101581.536
101581.537
101581.539
101581.541
101581.544
101581.548
101581.552
101581.557
101581.562
101581.568
101581.575
101581.583
101581.591
101581.6
101581.61
101581.621
101581.633
101581.645
101581.659
101581.673
101581.689
101581.705
101581.723
101581.741
101581.761
101581.782
101581.805
101581.829
101581.854
101581.88
101581.909
101581.938
101581.97
101582.002
101582.037
101582.073
101582.111
101582.151
101582.194
101582.241
101582.29
101582.343
101582.399
101582.46
101582.521
101582.578
101582.632
101582.685
101582.737
101582.787
101582.834
101582.882
101582.933
101582.979
101583.008
101583.005
101582.954
101582.837
101582.634
101582.313
101581.825
101581.187
101580.434
101579.608
101578.741
101577.849
101576.963
101576.117
101575.367
101574.725
101573.906
101581.196
101581.192
101581.187
101581.182
101581.178
101581.174
101581.171
101581.167
101581.165
101581.162
101581.16
101581.159
101581.157
101581.157
101581.156
101581.156
101581.157
101581.158
101581.159
101581.161
101581.163
101581.166
101581.169
101581.172
101581.176
101581.181
101581.185
101581.19
101581.196
101581.201
101581.207
101581.214
101581.22
101581.227
101581.234
101581.242
101581.249
101581.257
101581.265
101581.273
101581.282
101581.292
101581.303
101581.315
101581.328
101581.34
101581.349
101581.353
101581.354
101581.352
101581.346
101581.336
101581.32
101581.305
101581.291
101581.275
101581.253
101581.221
101581.18
101581.126
101581.057
101580.97
101580.861
101580.724
101580.553
101580.33
101580.037
101579.656
101579.175
101578.596
101577.893
101577.085
101576.217
101575.304
101574.307
101573.332
101572.45
101571.728
101571.165
101570.476
101580.801
101580.795
101580.788
101580.781
101580.774
101580.768
101580.762
101580.755
101580.749
101580.743
101580.738
101580.732
101580.727
101580.721
101580.716
101580.712
101580.707
101580.702
101580.697
101580.693
101580.688
101580.683
101580.679
101580.674
101580.669
101580.664
101580.658
101580.652
101580.646
101580.639
101580.632
101580.624
101580.616
101580.606
101580.597
101580.587
101580.576
101580.565
101580.554
101580.539
101580.52
101580.498
101580.472
101580.443
101580.409
101580.373
101580.339
101580.305
101580.264
101580.217
101580.163
101580.1
101580.028
101579.944
101579.847
101579.739
101579.622
101579.496
101579.359
101579.208
101579.042
101578.859
101578.653
101578.406
101578.108
101577.744
101577.315
101576.774
101576.127
101575.351
101574.487
101573.575
101572.596
101571.423
101570.157
101569.195
101568.417
101567.765
101567.256
101566.743
101580.387
101580.378
101580.369
101580.359
101580.35
101580.34
101580.33
101580.32
101580.311
101580.301
101580.291
101580.281
101580.27
101580.26
101580.25
101580.239
101580.228
101580.217
101580.206
101580.194
101580.181
101580.169
101580.155
101580.141
101580.127
101580.111
101580.095
101580.078
101580.06
101580.042
101580.022
101580
101579.978
101579.953
101579.923
101579.891
101579.856
101579.817
101579.775
101579.731
101579.686
101579.64
101579.588
101579.531
101579.468
101579.399