/*--------------------------------*- C++ -*----------------------------------*\
  =========                 |
  \\      /  F ield         | OpenFOAM: The Open Source CFD Toolbox
   \\    /   O peration     | Website:  https://openfoam.org
    \\  /    A nd           | Version:  8
     \\/     M anipulation  |
\*---------------------------------------------------------------------------*/
FoamFile
{
    version     2.0;
    format      ascii;
    class       volScalarField;
    location    "0.073";
    object      p_rgh;
}
// * * * * * * * * * * * * * * * * * * * * * * * * * * * * * * * * * * * * * //

dimensions      [1 -1 -2 0 0 0 0];

internalField   nonuniform List<scalar> 
42400
(
101579.693
101579.68
101579.665
101579.649
101579.633
101579.615
101579.596
101579.577
101579.556
101579.534
101579.511
101579.487
101579.461
101579.435
101579.407
101579.378
101579.347
101579.314
101579.28
101579.244
101579.207
101579.167
101579.124
101579.08
101579.032
101578.982
101578.929
101578.872
101578.813
101578.749
101578.682
101578.611
101578.535
101578.455
101578.37
101578.28
101578.186
101578.094
101578.004
101577.91
101577.796
101577.656
101577.508
101577.366
101577.232
101577.094
101576.95
101576.801
101576.649
101576.491
101576.327
101576.156
101575.993
101575.835
101575.682
101575.507
101575.312
101575.141
101574.984
101574.832
101574.676
101574.526
101574.389
101574.268
101574.17
101574.107
101574.049
101573.939
101573.942
101574.113
101574.135
101574.442
101575.248
101574.702
101572.996
101572.041
101574.683
101578.937
101583.626
101588.723
101579.751
101579.741
101579.729
101579.716
101579.702
101579.687
101579.67
101579.653
101579.635
101579.615
101579.595
101579.573
101579.55
101579.526
101579.5
101579.473
101579.445
101579.415
101579.383
101579.35
101579.314
101579.277
101579.238
101579.196
101579.152
101579.105
101579.055
101579.002
101578.946
101578.887
101578.824
101578.758
101578.688
101578.612
101578.539
101578.468
101578.396
101578.308
101578.199
101578.078
101577.964
101577.857
101577.745
101577.629
101577.508
101577.384
101577.254
101577.116
101576.988
101576.867
101576.752
101576.613
101576.452
101576.311
101576.184
101576.064
101575.941
101575.821
101575.71
101575.612
101575.534
101575.482
101575.463
101575.486
101575.548
101575.669
101575.839
101575.947
101576.139
101576.766
101577.469
101578.275
101579.973
101580.731
101580.947
101584.412
101589.037
101591.717
101594.624
101596.623
101579.94
101579.932
101579.922
101579.912
101579.901
101579.888
101579.875
101579.86
101579.845
101579.828
101579.81
101579.792
101579.772
101579.751
101579.729
101579.705
101579.681
101579.655
101579.627
101579.598
101579.568
101579.536
101579.502
101579.466
101579.428
101579.387
101579.345
101579.3
101579.252
101579.201
101579.147
101579.092
101579.038
101578.984
101578.921
101578.844
101578.756
101578.668
101578.585
101578.502
101578.416
101578.325
101578.232
101578.134
101578.028
101577.933
101577.853
101577.754
101577.626
101577.504
101577.401
101577.31
101577.214
101577.119
101577.028
101576.946
101576.876
101576.827
101576.802
101576.8
101576.83
101576.898
101577.013
101577.205
101577.492
101577.929
101578.461
101578.96
101579.395
101580.143
101581.241
101582.114
101584.216
101589.447
101593.716
101594.017
101594.041
101596.854
101600.51
101603.4
101580.277
101580.27
101580.263
101580.254
101580.245
101580.234
101580.223
101580.211
101580.198
101580.184
101580.17
101580.154
101580.138
101580.121
101580.102
101580.084
101580.064
101580.043
101580.021
101579.998
101579.974
101579.949
101579.922
101579.894
101579.865
101579.833
101579.8
101579.765
101579.73
101579.694
101579.657
101579.614
101579.563
101579.507
101579.447
101579.39
101579.335
101579.278
101579.217
101579.154
101579.086
101579.01
101578.944
101578.892
101578.818
101578.721
101578.639
101578.571
101578.501
101578.428
101578.356
101578.289
101578.231
101578.188
101578.162
101578.154
101578.166
101578.204
101578.283
101578.409
101578.589
101578.833
101579.151
101579.577
101580.126
101580.928
101581.865
101582.964
101583.828
101584.831
101587.339
101591.219
101593.559
101593.992
101595.065
101597.052
101599.282
101601.761
101604.672
101607.722
101580.746
101580.74
101580.733
101580.726
101580.718
101580.709
101580.699
101580.689
101580.678
101580.667
101580.655
101580.643
101580.631
101580.618
101580.605
101580.591
101580.577
101580.562
101580.547
101580.531
101580.515
101580.499
101580.48
101580.46
101580.44
101580.42
101580.4
101580.378
101580.354
101580.327
101580.298
101580.269
101580.241
101580.211
101580.178
101580.143
101580.106
101580.065
101580.018
101579.979
101579.954
101579.909
101579.842
101579.791
101579.749
101579.703
101579.655
101579.609
101579.568
101579.535
101579.513
101579.503
101579.507
101579.531
101579.582
101579.667
101579.797
101579.979
101580.221
101580.537
101580.945
101581.436
101582.018
101582.697
101583.487
101584.529
101585.495
101587.088
101590.612
101593.753
101594.793
101595.338
101597.152
101599.035
101600.713
101602.7
101605.223
101607.686
101610.244
101612.927
101581.323
101581.318
101581.311
101581.303
101581.296
101581.288
101581.28
101581.271
101581.262
101581.254
101581.245
101581.236
101581.228
101581.219
101581.211
101581.203
101581.195
101581.187
101581.179
101581.171
101581.161
101581.152
101581.145
101581.139
101581.133
101581.126
101581.118
101581.111
101581.102
101581.093
101581.083
101581.072
101581.059
101581.046
101581.03
101581.009
101580.995
101580.995
101580.975
101580.937
101580.913
101580.898
101580.878
101580.856
101580.836
101580.82
101580.809
101580.805
101580.81
101580.828
101580.863
101580.922
101581.01
101581.134
101581.303
101581.527
101581.816
101582.186
101582.653
101583.211
101583.893
101584.667
101585.585
101586.542
101587.52
101589.17
101592.579
101594.54
101594.963
101596.168
101598.143
101600.069
101601.736
101603.542
101605.757
101607.999
101610.337
101612.603
101615.325
101617.503
101581.96
101581.954
101581.946
101581.939
101581.932
101581.925
101581.918
101581.911
101581.905
101581.899
101581.894
101581.889
101581.885
101581.882
101581.879
101581.877
101581.875
101581.873
101581.873
101581.875
101581.88
101581.884
101581.889
101581.894
101581.899
101581.904
101581.91
101581.916
101581.922
101581.928
101581.934
101581.939
101581.94
101581.948
101581.968
101581.973
101581.961
101581.963
101581.973
101581.978
101581.982
101581.988
101581.996
101582.007
101582.024
101582.05
101582.086
101582.138
101582.21
101582.305
101582.431
101582.592
101582.799
101583.06
101583.386
101583.795
101584.297
101584.89
101585.602
101586.387
101587.316
101588.206
101589.355
101591.624
101594.369
101596.066
101596.761
101598.054
101599.904
101601.554
101603.186
101604.742
101606.51
101608.58
101610.785
101612.993
101615.287
101617.495
101620.071
101622.145
101582.605
101582.598
101582.591
101582.584
101582.578
101582.572
101582.567
101582.563
101582.559
101582.557
101582.555
101582.555
101582.556
101582.558
101582.561
101582.566
101582.573
101582.583
101582.593
101582.604
101582.617
101582.63
101582.646
101582.662
101582.68
101582.699
101582.719
101582.74
101582.761
101582.78
101582.805
101582.842
101582.867
101582.878
101582.902
101582.934
101582.961
101582.988
101583.017
101583.048
101583.083
101583.123
101583.171
101583.228
101583.299
101583.386
101583.494
101583.629
101583.794
101583.998
101584.247
101584.55
101584.92
101585.37
101585.907
101586.541
101587.283
101588.113
101589.064
101589.973
101591.306
101593.911
101596.248
101597.251
101598.019
101599.387
101600.793
101602.495
101603.951
101605.428
101607.358
101609.295
101611.373
101613.409
101615.548
101617.689
101620.047
101622.418
101624.897
101626.832
101583.193
101583.187
101583.18
101583.174
101583.17
101583.167
101583.164
101583.164
101583.164
101583.166
101583.169
101583.175
101583.182
101583.192
101583.203
101583.217
101583.232
101583.25
101583.269
101583.291
101583.315
101583.341
101583.369
101583.399
101583.43
101583.463
101583.495
101583.534
101583.584
101583.624
101583.654
101583.696
101583.745
101583.791
101583.838
101583.887
101583.94
101583.996
101584.057
101584.125
101584.202
101584.29
101584.394
101584.515
101584.66
101584.832
101585.038
101585.284
101585.574
101585.92
101586.33
101586.817
101587.388
101588.049
101588.793
101589.622
101590.557
101591.617
101593.191
101595.596
101597.461
101598.166
101598.915
101600.288
101602.032
101603.683
101605.058
101606.647
101608.067
101609.617
101611.566
101613.631
101615.641
101617.734
101619.842
101621.976
101624.261
101626.806
101629.407
101631.92
101583.661
101583.657
101583.652
101583.649
101583.648
101583.648
101583.65
101583.655
101583.661
101583.67
101583.681
101583.693
101583.709
101583.726
101583.747
101583.77
101583.796
101583.824
101583.856
101583.89
101583.926
101583.966
101584.008
101584.05
101584.098
101584.157
101584.209
101584.254
101584.31
101584.373
101584.434
101584.498
101584.564
101584.634
101584.707
101584.786
101584.871
101584.965
101585.069
101585.185
101585.319
101585.472
101585.65
101585.857
101586.1
101586.384
101586.715
101587.102
101587.554
101588.084
101588.703
101589.411
101590.211
101591.106
101592.091
101593.098
101594.584
101596.654
101598.191
101598.994
101599.84
101601.326
101603.142
101604.617
101605.839
101607.159
101608.764
101610.589
101612.325
101614.198
101616.17
101618.186
101620.145
101622.247
101624.415
101626.666
101628.985
101631.091
101633.341
101636.344
101583.949
101583.947
101583.946
101583.948
101583.951
101583.957
101583.965
101583.976
101583.989
101584.005
101584.024
101584.046
101584.071
101584.099
101584.131
101584.166
101584.204
101584.246
101584.291
101584.339
101584.389
101584.445
101584.511
101584.572
101584.629
101584.696
101584.77
101584.845
101584.921
101585.001
101585.086
101585.174
101585.267
101585.367
101585.474
101585.591
101585.719
101585.862
101586.022
101586.203
101586.409
101586.646
101586.92
101587.235
101587.598
101588.016
101588.496
101589.049
101589.686
101590.413
101591.238
101592.148
101593.143
101594.261
101595.664
101597.316
101598.731
101599.641
101600.508
101601.887
101603.66
101605.167
101606.671
101608.272
101609.709
101611.311
101613.06
101614.862
101616.633
101618.461
101620.375
101622.317
101624.381
101626.476
101628.625
101630.987
101633.534
101636.116
101638.355
101640.67
101583.987
101583.99
101583.995
101584.002
101584.011
101584.024
101584.04
101584.059
101584.081
101584.107
101584.136
101584.169
101584.206
101584.247
101584.292
101584.341
101584.394
101584.449
101584.51
101584.581
101584.65
101584.716
101584.793
101584.875
101584.96
101585.047
101585.139
101585.235
101585.336
101585.442
101585.554
101585.673
101585.801
101585.94
101586.091
101586.258
101586.444
101586.652
101586.886
101587.152
101587.454
101587.799
101588.191
101588.638
101589.144
101589.716
101590.362
101591.089
101591.894
101592.776
101593.739
101594.773
101595.935
101597.525
101599.168
101600.621
101601.794
101602.97
101604.615
101606.401
101607.944
101609.103
101610.196
101611.495
101613.204
101614.969
101616.728
101618.484
101620.288
101622.115
101624.017
101625.961
101628.041
101630.036
101632.224
101634.935
101637.545
101640.001
101642.289
101644.577
101583.701
101583.71
101583.722
101583.737
101583.755
101583.776
101583.801
101583.831
101583.864
101583.902
101583.944
101583.99
101584.041
101584.096
101584.155
101584.22
101584.294
101584.368
101584.442
101584.525
101584.614
101584.706
101584.803
101584.904
101585.01
101585.121
101585.237
101585.36
101585.49
101585.629
101585.777
101585.937
101586.112
101586.303
101586.515
101586.75
101587.014
101587.311
101587.646
101588.025
101588.454
101588.937
101589.481
101590.09
101590.769
101591.528
101592.369
101593.29
101594.287
101595.352
101596.534
101598.19
101600.117
101601.452
101602.41
101603.347
101604.647
101606.399
101607.653
101608.669
101609.949
101611.546
101613.044
101614.618
101616.41
101618.186
101619.988
101621.844
101623.723
101625.538
101627.323
101629.569
101632.37
101635.308
101637.609
101639.344
101641.256
101643.232
101645.022
101647.392
101583.015
101583.031
101583.053
101583.077
101583.105
101583.138
101583.175
101583.217
101583.263
101583.314
101583.37
101583.431
101583.5
101583.572
101583.646
101583.728
101583.815
101583.909
101584.006
101584.109
101584.216
101584.329
101584.448
101584.572
101584.703
101584.841
101584.988
101585.144
101585.31
101585.49
101585.686
101585.9
101586.136
101586.397
101586.689
101587.015
101587.382
101587.794
101588.256
101588.775
101589.354
101589.997
101590.706
101591.483
101592.331
101593.251
101594.225
101595.236
101596.453
101598.068
101599.666
101600.87
101601.733
101602.817
101604.266
101605.843
101607.493
101608.73
101609.9
101611.237
101612.712
101614.422
101616.18
101617.972
101619.786
101621.662
101623.564
101625.525
101627.589
101629.596
101631.746
101633.928
101635.854
101637.775
101639.652
101641.784
101644.026
101646.01
101648.051
101650.451
101581.856
101581.882
101581.915
101581.951
101581.992
101582.037
101582.088
101582.143
101582.204
101582.272
101582.343
101582.42
101582.503
101582.592
101582.686
101582.786
101582.891
101583.002
101583.119
101583.242
101583.371
101583.506
101583.649
101583.8
101583.959
101584.129
101584.311
101584.507
101584.72
101584.953
101585.209
101585.492
101585.807
101586.159
101586.553
101586.995
101587.49
101588.044
101588.662
101589.349
101590.109
101590.945
101591.858
101592.853
101593.933
101595.109
101596.35
101597.728
101599.061
101600.303
101601.581
101602.82
101604.175
101605.631
101607.226
101608.6
101609.572
101610.786
101612.422
101614.198
101616.007
101617.753
101619.538
101621.405
101623.307
101625.232
101627.15
101629.032
101630.944
101633.077
101635.172
101636.722
101638.596
101640.644
101642.383
101644.614
101646.842
101648.763
101650.211
101651.878
101580.159
101580.198
101580.244
101580.294
101580.349
101580.41
101580.476
101580.547
101580.624
101580.707
101580.796
101580.891
101580.991
101581.098
101581.211
101581.33
101581.455
101581.587
101581.725
101581.871
101582.025
101582.187
101582.36
101582.543
101582.74
101582.952
101583.182
101583.433
101583.708
101584.013
101584.35
101584.725
101585.143
101585.61
101586.13
101586.709
101587.351
101588.061
101588.841
101589.695
101590.624
101591.626
101592.704
101593.859
101595.088
101596.383
101597.737
101599.094
101600.529
101601.909
101603.227
101604.588
101605.972
101607.362
101608.748
101610.285
101611.947
101613.642
101615.307
101616.87
101618.307
101619.929
101622.094
101624.321
101626.481
101628.644
101630.691
101632.325
101634.121
101636.537
101638.935
101641.057
101642.943
101644.966
101647.271
101648.7
101650.738
101652.891
101654.25
101655.438
101577.896
101577.949
101578.011
101578.077
101578.148
101578.225
101578.307
101578.395
101578.489
101578.59
101578.696
101578.809
101578.928
101579.054
101579.186
101579.326
101579.473
101579.628
101579.791
101579.965
101580.149
101580.346
101580.557
101580.785
101581.032
101581.302
101581.598
101581.925
101582.287
101582.689
101583.135
101583.631
101584.181
101584.791
101585.463
101586.201
101587.006
101587.878
101588.814
101589.808
101590.862
101591.955
101593.043
101594.242
101595.712
101597.275
101598.734
101600.168
101601.664
101603.213
101604.78
101606.375
101608.003
101609.69
101611.402
101613.168
101615.034
101617.123
101619.245
101621.371
101623.616
101625.614
101627.306
101629.014
101630.571
101631.953
101633.811
101636.867
101639.403
101641.243
101642.863
101644.624
101646.466
101648.173
101649.829
101651.733
101654.01
101655.742
101657.818
101658.852
101575.051
101575.119
101575.2
101575.283
101575.371
101575.465
101575.565
101575.671
101575.784
101575.903
101576.029
101576.162
101576.302
101576.45
101576.606
101576.771
101576.946
101577.133
101577.331
101577.544
101577.774
101578.023
101578.294
101578.59
101578.916
101579.275
101579.674
101580.115
101580.606
101581.149
101581.751
101582.416
101583.147
101583.947
101584.819
101585.762
101586.776
101587.857
101588.989
101590.19
101591.592
101593.442
101595.72
101597.921
101599.427
101600.643
101601.936
101603.523
101605.226
101606.741
101608.176
101609.605
101611.17
101612.88
101614.598
101616.451
101618.454
101620.349
101622.169
101624.077
101626.111
101628.023
101629.567
101631.005
101633.107
101635.879
101637.797
101639.421
101641.331
101643.69
101645.998
101647.946
101649.775
101651.655
101653.445
101655.167
101656.954
101659.129
101661.241
101662.279
101571.663
101571.747
101571.846
101571.947
101572.053
101572.164
101572.282
101572.407
101572.538
101572.677
101572.823
101572.978
101573.141
101573.315
101573.5
101573.698
101573.909
101574.138
101574.385
101574.655
101574.95
101575.275
101575.634
101576.031
101576.473
101576.965
101577.513
101578.122
101578.799
101579.548
101580.374
101581.281
101582.271
101583.347
101584.509
101585.756
101587.079
101588.46
101589.876
101591.691
101593.944
101595.602
101596.684
101597.751
101599.033
101600.553
101602.277
101604.164
101605.943
101607.756
101609.688
101611.789
101613.662
101615.366
101617.157
101618.868
101620.532
101622.188
101623.973
101625.918
101627.919
101630.064
101632.252
101634.263
101636.286
101638.215
101640.504
101643.401
101645.355
101646.926
101648.637
101650.578
101652.537
101654.523
101656.546
101658.789
101661.16
101663.254
101664.959
101666.933
101567.786
101567.886
101568.002
101568.12
101568.241
101568.368
101568.501
101568.642
101568.789
101568.944
101569.109
101569.283
101569.469
101569.667
101569.881
101570.112
101570.363
101570.638
101570.94
101571.273
101571.642
101572.053
101572.511
101573.022
101573.592
101574.226
101574.93
101575.71
101576.569
101577.511
101578.538
101579.65
101580.845
101582.123
101583.48
101584.907
101586.398
101587.953
101589.655
101591.164
101592.372
101593.913
101596.041
101598.409
101600.731
101602.985
101604.774
101606.232
101607.77
101609.309
101610.808
101612.282
101613.783
101615.293
101617.192
101619.555
101621.961
101624.423
101626.862
101629.304
101631.845
101634.322
101636.785
101639.632
101641.396
101642.898
101644.676
101645.784
101647.699
101650.258
101652.131
101653.938
101656.059
101658.064
101660.03
101662.675
101664.254
101666.365
101668.553
101669.772
101583.008
101583.014
101583.02
101583.024
101583.027
101583.029
101583.03
101583.03
101583.028
101583.025
101583.021
101583.015
101583.008
101582.999
101582.988
101582.976
101582.962
101582.946
101582.929
101582.909
101582.887
101582.863
101582.836
101582.807
101582.775
101582.741
101582.703
101582.663
101582.619
101582.572
101582.52
101582.465
101582.406
101582.343
101582.274
101582.201
101582.123
101582.039
101581.95
101581.854
101581.752
101581.643
101581.527
101581.404
101581.273
101581.133
101580.986
101580.828
101580.659
101580.471
101580.272
101580.069
101579.852
101579.619
101579.37
101579.104
101578.818
101578.511
101578.182
101577.827
101577.445
101577.033
101576.585
101576.101
101575.576
101575.013
101574.408
101573.753
101573.043
101572.238
101571.302
101570.244
101569.085
101567.815
101566.376
101564.708
101562.787
101560.709
101558.764
101556.737
101582.705
101582.71
101582.715
101582.719
101582.722
101582.724
101582.725
101582.725
101582.724
101582.722
101582.718
101582.713
101582.708
101582.7
101582.692
101582.682
101582.67
101582.657
101582.643
101582.627
101582.609
101582.589
101582.567
101582.543
101582.516
101582.488
101582.457
101582.423
101582.387
101582.348
101582.305
101582.26
101582.211
101582.158
101582.102
101582.042
101581.977
101581.908
101581.834
101581.755
101581.671
101581.581
101581.485
101581.383
101581.275
101581.159
101581.036
101580.905
101580.762
101580.609
101580.451
101580.281
101580.099
101579.905
101579.696
101579.472
101579.231
101578.972
101578.693
101578.393
101578.07
101577.723
101577.349
101576.95
101576.522
101576.064
101575.565
101575.009
101574.373
101573.643
101572.822
101571.915
101570.919
101569.829
101568.642
101567.358
101565.978
101564.428
101562.671
101560.39
101582.539
101582.543
101582.547
101582.551
101582.554
101582.556
101582.557
101582.557
101582.557
101582.556
101582.554
101582.551
101582.547
101582.542
101582.536
101582.529
101582.521
101582.512
101582.502
101582.49
101582.477
101582.462
101582.447
101582.429
101582.41
101582.389
101582.367
101582.342
101582.315
101582.287
101582.256
101582.222
101582.186
101582.148
101582.106
101582.062
101582.015
101581.965
101581.911
101581.853
101581.792
101581.727
101581.657
101581.583
101581.505
101581.422
101581.333
101581.238
101581.137
101581.029
101580.914
101580.791
101580.66
101580.519
101580.368
101580.206
101580.032
101579.844
101579.642
101579.423
101579.185
101578.927
101578.644
101578.334
101577.991
101577.604
101577.161
101576.653
101576.075
101575.436
101574.739
101573.979
101573.141
101572.204
101571.155
101569.969
101568.44
101566.797
101564.907
101562.934
101582.484
101582.487
101582.491
101582.494
101582.496
101582.498
101582.5
101582.501
101582.502
101582.502
101582.501
101582.5
101582.499
101582.497
101582.494
101582.491
101582.487
101582.482
101582.476
101582.47
101582.463
101582.455
101582.446
101582.436
101582.425
101582.413
101582.4
101582.386
101582.371
101582.354
101582.336
101582.317
101582.296
101582.273
101582.249
101582.224
101582.196
101582.167
101582.136
101582.103
101582.068
101582.032
101581.994
101581.953
101581.908
101581.861
101581.812
101581.76
101581.705
101581.646
101581.583
101581.515
101581.442
101581.364
101581.279
101581.187
101581.086
101580.976
101580.854
101580.718
101580.566
101580.395
101580.2
101579.976
101579.716
101579.415
101579.068
101578.673
101578.232
101577.74
101577.187
101576.558
101575.838
101575.016
101574.089
101572.981
101571.66
101570.268
101568.841
101567.138
101582.494
101582.497
101582.5
101582.502
101582.505
101582.507
101582.509
101582.511
101582.512
101582.514
101582.515
101582.516
101582.517
101582.518
101582.518
101582.519
101582.519
101582.518
101582.518
101582.517
101582.516
101582.515
101582.513
101582.511
101582.508
101582.506
101582.502
101582.499
101582.495
101582.49
101582.485
101582.48
101582.475
101582.468
101582.462
101582.455
101582.448
101582.441
101582.434
101582.426
101582.417
101582.407
101582.397
101582.388
101582.378
101582.368
101582.358
101582.347
101582.336
101582.325
101582.313
101582.301
101582.287
101582.272
101582.256
101582.237
101582.215
101582.189
101582.157
101582.119
101582.072
101582.013
101581.938
101581.841
101581.719
101581.565
101581.373
101581.136
101580.845
101580.485
101580.047
101579.522
101578.906
101578.199
101577.305
101576.166
101575.013
101573.939
101572.476
101570.84
101582.539
101582.541
101582.543
101582.545
101582.547
101582.549
101582.552
101582.554
101582.557
101582.559
101582.562
101582.565
101582.568
101582.572
101582.575
101582.579
101582.583
101582.587
101582.591
101582.595
101582.6
101582.604
101582.609
101582.614
101582.62
101582.625
101582.631
101582.638
101582.644
101582.651
101582.658
101582.666
101582.675
101582.684
101582.695
101582.706
101582.718
101582.73
101582.742
101582.756
101582.772
101582.79
101582.808
101582.829
101582.851
101582.875
101582.901
101582.929
101582.959
101582.992
101583.027
101583.064
101583.104
101583.146
101583.191
101583.238
101583.286
101583.335
101583.385
101583.434
101583.479
101583.519
101583.548
101583.562
101583.554
101583.514
101583.431
101583.293
101583.086
101582.805
101582.45
101582.012
101581.405
101580.875
101580.257
101579.32
101578.274
101577.168
101576.13
101574.77
101582.575
101582.576
101582.577
101582.579
101582.58
101582.583
101582.585
101582.588
101582.591
101582.595
101582.599
101582.603
101582.608
101582.613
101582.619
101582.626
101582.632
101582.64
101582.648
101582.656
101582.665
101582.674
101582.685
101582.696
101582.707
101582.72
101582.733
101582.747
101582.762
101582.779
101582.798
101582.817
101582.836
101582.857
101582.879
101582.904
101582.93
101582.959
101582.989
101583.022
101583.057
101583.095
101583.135
101583.179
101583.227
101583.277
101583.332
101583.39
101583.453
101583.519
101583.59
101583.666
101583.746
101583.832
101583.922
101584.017
101584.117
101584.222
101584.331
101584.443
101584.557
101584.672
101584.782
101584.883
101584.968
101585.026
101585.045
101585.012
101584.917
101584.749
101584.499
101584.148
101583.671
101583.064
101582.365
101581.57
101580.742
101579.974
101579.201
101577.833
101582.578
101582.578
101582.578
101582.579
101582.58
101582.582
101582.584
101582.587
101582.59
101582.594
101582.599
101582.604
101582.61
101582.616
101582.624
101582.632
101582.64
101582.65
101582.66
101582.671
101582.683
101582.695
101582.71
101582.725
101582.742
101582.759
101582.777
101582.797
101582.817
101582.839
101582.862
101582.888
101582.915
101582.945
101582.976
101583.01
101583.046
101583.085
101583.126
101583.171
101583.219
101583.27
101583.325
101583.384
101583.447
101583.515
101583.588
101583.665
101583.748
101583.836
101583.931
101584.031
101584.137
101584.25
101584.37
101584.498
101584.633
101584.776
101584.926
101585.085
101585.249
101585.418
101585.588
101585.753
101585.906
101586.034
101586.121
101586.15
101586.1
101585.952
101585.686
101585.279
101584.721
101584.052
101583.327
101582.561
101581.774
101580.992
101580.14
101578.993
101582.519
101582.518
101582.518
101582.518
101582.518
101582.519
101582.521
101582.524
101582.527
101582.531
101582.535
101582.541
101582.547
101582.553
101582.561
101582.569
101582.578
101582.588
101582.599
101582.611
101582.624
101582.638
101582.653
101582.669
101582.686
101582.704
101582.724
101582.746
101582.769
101582.794
101582.82
101582.848
101582.878
101582.911
101582.945
101582.982
101583.021
101583.064
101583.109
101583.157
101583.209
101583.264
101583.323
101583.387
101583.454
101583.526
101583.603
101583.685
101583.773
101583.865
101583.964
101584.068
101584.177
101584.293
101584.414
101584.54
101584.673
101584.811
101584.956
101585.105
101585.259
101585.415
101585.575
101585.733
101585.879
101585.998
101586.073
101586.084
101586.011
101585.831
101585.5
101585.005
101584.387
101583.697
101582.964
101582.206
101581.442
101580.709
101579.983
101578.997
101582.396
101582.394
101582.392
101582.391
101582.39
101582.39
101582.391
101582.392
101582.394
101582.396
101582.399
101582.403
101582.408
101582.413
101582.42
101582.427
101582.435
101582.444
101582.454
101582.464
101582.476
101582.489
101582.503
101582.518
101582.534
101582.551
101582.57
101582.589
101582.611
101582.634
101582.658
101582.684
101582.712
101582.741
101582.773
101582.807
101582.843
101582.882
101582.923
101582.967
101583.013
101583.063
101583.116
101583.173
101583.233
101583.296
101583.364
101583.435
101583.51
101583.589
101583.673
101583.761
101583.853
101583.949
101584.052
101584.162
101584.281
101584.407
101584.542
101584.686
101584.838
101584.993
101585.139
101585.269
101585.371
101585.434
101585.438
101585.362
101585.178
101584.846
101584.374
101583.771
101583.082
101582.351
101581.598
101580.83
101580.064
101579.344
101578.655
101577.702
101582.197
101582.194
101582.191
101582.188
101582.186
101582.185
101582.183
101582.183
101582.183
101582.184
101582.185
101582.187
101582.19
101582.193
101582.197
101582.202
101582.207
101582.213
101582.22
101582.228
101582.236
101582.245
101582.255
101582.266
101582.278
101582.291
101582.304
101582.319
101582.335
101582.351
101582.369
101582.388
101582.409
101582.43
101582.453
101582.477
101582.503
101582.531
101582.559
101582.59
101582.622
101582.656
101582.691
101582.729
101582.768
101582.809
101582.853
101582.9
101582.95
101583.004
101583.061
101583.122
101583.187
101583.254
101583.318
101583.379
101583.439
101583.498
101583.557
101583.613
101583.67
101583.733
101583.793
101583.841
101583.86
101583.835
101583.748
101583.58
101583.302
101582.86
101582.262
101581.545
101580.752
101579.92
101579.065
101578.213
101577.398
101576.676
101576.056
101575.263
101581.94
101581.936
101581.931
101581.926
101581.922
101581.918
101581.915
101581.912
101581.91
101581.908
101581.906
101581.905
101581.904
101581.904
101581.905
101581.905
101581.907
101581.908
101581.911
101581.913
101581.917
101581.92
101581.925
101581.929
101581.935
101581.94
101581.946
101581.953
101581.96
101581.968
101581.976
101581.984
101581.993
101582.002
101582.012
101582.021
101582.032
101582.042
101582.053
101582.065
101582.077
101582.09
101582.105
101582.121
101582.138
101582.155
101582.169
101582.178
101582.185
101582.189
101582.19
101582.187
101582.178
101582.17
101582.164
101582.157
101582.144
101582.123
101582.093
101582.052
101581.997
101581.926
101581.833
101581.716
101581.568
101581.374
101581.114
101580.773
101580.332
101579.792
101579.132
101578.363
101577.529
101576.656
101575.708
101574.768
101573.918
101573.228
101572.7
101572.047
101581.638
101581.632
101581.625
101581.618
101581.611
101581.605
101581.599
101581.593
101581.587
101581.582
101581.577
101581.572
101581.567
101581.563
101581.558
101581.554
101581.55
101581.547
101581.543
101581.54
101581.536
101581.533
101581.53
101581.526
101581.523
101581.519
101581.516
101581.512
101581.508
101581.503
101581.498
101581.493
101581.487
101581.48
101581.474
101581.467
101581.46
101581.452
101581.444
101581.434
101581.419
101581.401
101581.381
101581.356
101581.328
101581.298
101581.269
101581.241
101581.207
101581.167
101581.121
101581.066
101581.003
101580.929
101580.842
101580.744
101580.638
101580.523
101580.398
101580.26
101580.109
101579.942
101579.754
101579.529
101579.255
101578.921
101578.521
101578.019
101577.412
101576.686
101575.864
101574.985
101574.053
101572.959
101571.756
101570.791
101570.033
101569.428
101568.951
101568.445
101581.31
101581.301
101581.292
101581.282
101581.273
101581.263
101581.254
101581.245
101581.235
101581.226
101581.216
101581.207
101581.197
101581.188
101581.178
101581.169
101581.159
101581.149
101581.139
101581.128
101581.117
101581.106
101581.094
101581.082
101581.069
101581.056
101581.042
101581.027
101581.011
101580.995
101580.978
101580.959
101580.94
101580.918
101580.892
101580.863
101580.832
101580.797
101580.759
101580.719
101580.679
101580.637
101580.591
101580.54
101580.483
101580.42
101580.348
101580.268
101580.182