/*--------------------------------*- C++ -*----------------------------------*\
  =========                 |
  \\      /  F ield         | OpenFOAM: The Open Source CFD Toolbox
   \\    /   O peration     | Website:  https://openfoam.org
    \\  /    A nd           | Version:  8
     \\/     M anipulation  |
\*---------------------------------------------------------------------------*/
FoamFile
{
    version     2.0;
    format      ascii;
    class       surfaceScalarField;
    location    "0.073";
    object      phi;
}
// * * * * * * * * * * * * * * * * * * * * * * * * * * * * * * * * * * * * * //

dimensions      [1 0 -1 0 0 0 0];

internalField   nonuniform List<scalar> 
84340
(
-5.87398043e-08
2.69480966e-07
-2.10460893e-07
-2.45757504e-07
8.46239738e-07
-6.58768805e-07
-5.73519654e-07
1.48163455e-06
-1.15331264e-06
-1.05206367e-06
2.17605071e-06
-1.69685469e-06
-1.6898206e-06
2.92705404e-06
-2.28856312e-06
-2.49408256e-06
3.7313255e-06
-2.92625292e-06
-3.47139723e-06
4.58565786e-06
-3.60745711e-06
-4.62785148e-06
5.48736204e-06
-4.32994443e-06
-5.96925281e-06
6.43442579e-06
-5.09197974e-06
-7.50122505e-06
7.42552932e-06
-5.89242548e-06
-9.22923595e-06
8.45996784e-06
-6.73073166e-06
-1.11585734e-05
9.53751888e-06
-7.60685491e-06
-1.32942849e-05
1.06582959e-05
-8.52114791e-06
-1.56410921e-05
1.18226109e-05
-9.47424842e-06
-1.8203275e-05
1.303085e-05
-1.04669828e-05
-2.09845511e-05
1.42833821e-05
-1.15002818e-05
-2.39879216e-05
1.55804766e-05
-1.25751305e-05
-2.72155135e-05
1.69222465e-05
-1.36925154e-05
-3.06683941e-05
1.83086068e-05
-1.48534098e-05
-3.43463707e-05
1.97392379e-05
-1.60587534e-05
-3.82477676e-05
2.12135583e-05
-1.7309446e-05
-4.23691808e-05
2.2730697e-05
-1.86063449e-05
-4.67051976e-05
2.42894576e-05
-1.99502595e-05
-5.12481e-05
2.5888284e-05
-2.1341939e-05
-5.59875148e-05
2.75252019e-05
-2.27820612e-05
-6.09100397e-05
2.91977583e-05
-2.42712023e-05
-6.59988251e-05
3.09029337e-05
-2.5809786e-05
-7.1233113e-05
3.26370468e-05
-2.73980399e-05
-7.65877197e-05
3.43956322e-05
-2.9035919e-05
-8.20324349e-05
3.61732752e-05
-3.07230361e-05
-8.75312906e-05
3.79634009e-05
-3.24585679e-05
-9.3041869e-05
3.97581924e-05
-3.42411474e-05
-9.85159076e-05
4.15497697e-05
-3.60687373e-05
-0.000103898951
4.33288921e-05
-3.79382945e-05
-0.000109123154
4.50782597e-05
-3.98458763e-05
-0.00011409772
4.67711564e-05
-4.17876955e-05
-0.000118724668
4.83973596e-05
-4.37607815e-05
-0.000122905404
4.99494938e-05
-4.57585391e-05
-0.000126540876
5.13941462e-05
-4.77478153e-05
-0.000129475699
5.26614436e-05
-4.97147496e-05
-0.000131476763
5.36664162e-05
-5.16523676e-05
-0.00013230516
5.43797156e-05
-5.35373258e-05
-0.00013172689
5.47359055e-05
-5.52989671e-05
-0.000129518401
5.46498543e-05
-5.68418642e-05
-0.000125373163
5.4013276e-05
-5.81407926e-05
-0.000118942487
5.2698539e-05
-5.91101245e-05
-0.000109843224
5.05799663e-05
-5.965862e-05
-9.76608146e-05
4.75199136e-05
-5.96801578e-05
-8.19285067e-05
4.33145742e-05
-5.90230591e-05
-6.22454752e-05
3.78670375e-05
-5.75245462e-05
-3.80890868e-05
3.08868033e-05
-5.50158763e-05
-9.14580527e-06
2.24030812e-05
-5.13171306e-05
2.55091067e-05
1.15366368e-05
-4.61601138e-05
6.67815755e-05
-1.8398088e-06
-3.93995648e-05
0.000115559897
-1.81506995e-05
-3.05929693e-05
0.000172968375
-3.75112603e-05
-1.98599448e-05
0.000240273591
-6.12458466e-05
-6.01909253e-06
0.000318683908
-8.94786265e-05
1.11110918e-05
0.000409671082
-0.000122792073
3.18503696e-05
0.00051492098
-0.000161892587
5.6691075e-05
0.000635516106
-0.000207555306
8.70119807e-05
0.000773183486
-0.000260500139
0.000122888318
0.000929603352
-0.00032148383
0.000165123345
0.00110645898
-0.000391241917
0.000214449495
0.00130526619
-0.000470477836
0.000271738998
0.00152764927
-0.000559920544
0.000337607361
0.00177310719
-0.000656468952
0.000411079074
0.00203685978
-0.000756251023
0.000492565671
0.00232626724
-0.000881940294
0.000592600088
0.00266174171
-0.00103779464
0.000702388473
0.00301893026
-0.00116592507
0.000808806821
0.0033764615
-0.00135286856
0.000995410145
0.00385788835
-0.00161764134
0.00113629193
0.0044287988
-0.00168504308
0.00111421448
0.00486220579
-0.00175457125
0.00132124774
0.00518970483
-0.00214532032
0.00181790498
0.00562719677
-0.00254929164
0.00211188044
0.00626027906
-0.00270187189
0.00206886653
0.00690151136
-0.00269747636
0.00205632136
-0.00285153195
0.00253777036
0.00721533987
-4.47620021e-08
3.14713502e-07
-1.89751253e-07
9.91901227e-07
-4.4628349e-07
1.73894441e-06
-8.23340688e-07
2.55398255e-06
-1.32815825e-06
3.43283746e-06
-1.96681126e-06
4.37103352e-06
-2.74451953e-06
5.36451149e-06
-3.66591345e-06
6.40999526e-06
-4.73519919e-06
7.50505024e-06
-5.95623976e-06
8.64801474e-06
-7.33256612e-06
9.83785309e-06
-8.86733671e-06
1.10739711e-05
-1.0563255e-05
1.2356028e-05
-1.24224535e-05
1.36837659e-05
-1.44463597e-05
1.50568665e-05
-1.66355244e-05
1.64748226e-05
-1.89894408e-05
1.79368474e-05
-2.15063366e-05
1.9441789e-05
-2.4182939e-05
2.09880632e-05
-2.70142214e-05
2.25735973e-05
-2.99931199e-05
2.41957744e-05
-3.31102164e-05
2.58513702e-05
-3.6353399e-05
2.75364963e-05
-3.97074802e-05
2.92465223e-05
-4.31537822e-05
3.09759862e-05
-4.66696975e-05
3.27185058e-05
-5.02281945e-05
3.44666414e-05
-5.37972867e-05
3.62117573e-05
-5.73394732e-05
3.79438783e-05
-6.08112721e-05
3.96516067e-05
-6.41623994e-05
4.13215803e-05
-6.73318657e-05
4.2935285e-05
-7.02459388e-05
4.44720216e-05
-7.28248698e-05
4.59165348e-05
-7.4985691e-05
4.72484985e-05
-7.66450493e-05
4.84407245e-05
-7.76728424e-05
4.94361149e-05
-7.78790694e-05
5.01675023e-05
-7.70552224e-05
5.05830077e-05
-7.49954733e-05
5.06154531e-05
-7.15010747e-05
5.01869129e-05
-6.63196351e-05
4.92143066e-05
-5.91553529e-05
4.75888637e-05
-4.96872179e-05
4.52002209e-05
-3.75703338e-05
4.1916237e-05
-2.23975725e-05
3.75470073e-05
-3.78199176e-06
3.19870631e-05
1.8456324e-05
2.5305814e-05
4.49978976e-05
1.67989197e-05
7.65292745e-05
6.36292036e-06
0.000113869019
-6.42438479e-06
0.000157915596
-2.16129061e-05
0.000209690382
-4.02053494e-05
0.000270298005
-6.24127257e-05
0.00034086242
-8.86783454e-05
0.000423005107
-0.00011961509
0.000517712834
-0.000155912481
0.000626491154
-0.000198213539
0.000750951737
-0.000247206675
0.000892651985
-0.000303544605
0.00105306074
-0.000367913544
0.00123334853
-0.000440734923
0.0014345681
-0.000522648442
0.00165825885
-0.000614878914
0.00190631976
-0.000718487937
0.00218203305
-0.000835585397
0.00248714995
-0.000961538382
0.00281472517
-0.00108377885
0.0031542602
-0.00122142678
0.00353228764
-0.00141577148
0.00396863334
-0.00160221676
0.00437461153
-0.0017587886
0.00477731307
-0.00202028007
0.00534456614
-0.00225223229
0.00593205383
-0.00234199613
0.00629382937
-0.00250703365
0.00647496748
-0.0027303637
0.00669145039
-0.00291827163
0.00703492798
-0.00304088244
-0.00314902521
0.00733246842
-3.2549428e-08
3.4773197e-07
-1.40305652e-07
1.10032706e-06
-3.33125925e-07
1.93253857e-06
-6.18537588e-07
2.84026426e-06
-1.00232753e-06
3.8175881e-06
-1.48888579e-06
4.8586413e-06
-2.08158399e-06
5.95834953e-06
-2.78321035e-06
7.11285572e-06
-3.59596563e-06
8.3191397e-06
-4.52152901e-06
9.57501947e-06
-5.56105418e-06
1.0878935e-05
-6.7151097e-06
1.22297078e-05
-7.98357642e-06
1.36263104e-05
-9.36550867e-06
1.50676587e-05
-1.0858964e-05
1.65524388e-05
-1.24608116e-05
1.80789555e-05
-1.41665046e-05
1.96450073e-05
-1.59698391e-05
2.12477854e-05
-1.78626764e-05
2.28837726e-05
-1.98346434e-05
2.4548662e-05
-2.1872804e-05
2.62372754e-05
-2.3961306e-05
2.79434729e-05
-2.60809772e-05
2.96600482e-05
-2.82088299e-05
3.13785558e-05
-3.03175433e-05
3.30892031e-05
-3.23748921e-05
3.47807044e-05
-3.43430744e-05
3.64400431e-05
-3.61776104e-05
3.80519121e-05
-3.78252659e-05
3.95975924e-05
-3.92268008e-05
4.10596428e-05
-4.03178285e-05
4.2419549e-05
-4.10324839e-05
4.36574017e-05
-4.12833212e-05
4.47309011e-05
-4.09585666e-05
4.56003805e-05
-3.99156789e-05
4.62148514e-05
-3.79789711e-05
4.65139749e-05
-3.49673366e-05
4.64352066e-05
-3.0690607e-05
4.59023461e-05
-2.49324924e-05
4.48373553e-05
-1.74541074e-05
4.31504519e-05
-7.9904982e-06
4.07376715e-05
3.75654403e-06
3.74826746e-05
1.81349636e-05
3.32269549e-05
3.54856514e-05
2.78672296e-05
5.5993628e-05
2.14272381e-05
8.03157946e-05
1.32448865e-05
0.000109053068
3.27094378e-06
0.000142938938
-8.5572844e-06
0.000182809076
-2.3046716e-05
0.000229627338
-4.04292329e-05
0.000284389805
-6.11590131e-05
0.000348416739
-8.5610241e-05
0.00042261125
-0.000114368414
0.000508254823
-0.000148022976
0.000606794411
-0.000187182575
0.000719713403
-0.000232496677
0.000848505118
-0.000284664948
0.00099466022
-0.000344327829
0.00115960029
-0.00041210419
0.00134448974
-0.000488389646
0.00155033661
-0.000573715506
0.00177786893
-0.000668224532
0.00202774299
-0.00077248264
0.00230124392
-0.000888342432
0.00260051405
-0.00101772228
0.00292835995
-0.00116339648
0.0032862745
-0.00131941792
0.00367549355
-0.00147296183
0.0040720942
-0.00161798903
0.00446558644
-0.00180922208
0.00489889677
-0.00203548173
0.00535158309
-0.0022114276
0.00570576389
-0.00237441392
0.00601660971
-0.00256302551
0.00636910787
-0.00269441844
0.00666495218
-0.00280280169
0.0068473801
-0.00291273512
0.00695688103
-0.00302770451
0.00706786945
-0.00315178518
-0.00326059949
0.00717951617
-2.51896145e-08
3.73487887e-07
-1.0961441e-07
1.18555814e-06
-2.61335284e-07
2.08518938e-06
-4.86070983e-07
3.06604338e-06
-7.87822987e-07
4.12048997e-06
-1.16911478e-06
5.24118683e-06
-1.6313501e-06
6.42194354e-06
-2.1748293e-06
7.65780204e-06
-2.79935576e-06
8.94524746e-06
-3.50402619e-06
1.02813926e-05
-4.28719038e-06
1.16639316e-05
-5.14636897e-06
1.30908576e-05
-6.07812004e-06
1.45601815e-05
-7.07787837e-06
1.60696967e-05
-8.13975859e-06
1.76167697e-05
-9.25632279e-06
1.91981537e-05
-1.0418329e-05
2.08098439e-05
-1.16144397e-05
2.24469367e-05
-1.28309079e-05
2.41035064e-05
-1.4051194e-05
2.57724546e-05
-1.52555291e-05
2.74453751e-05
-1.64204172e-05
2.91124005e-05
-1.75181673e-05
3.07621324e-05
-1.85156402e-05
3.23806782e-05
-1.93749913e-05
3.39535476e-05
-2.00536298e-05
3.54647069e-05
-2.05038787e-05
3.68960208e-05
-2.06745522e-05
3.82287e-05
-2.0496894e-05
3.94264986e-05
-1.98892666e-05
4.04590593e-05
-1.87525127e-05
4.12903459e-05
-1.69617422e-05
4.18747288e-05
-1.43840608e-05
4.21618931e-05
-1.0866613e-05
4.20922203e-05
-6.23493905e-06
4.15931743e-05
-2.89953869e-07
4.05797538e-05
7.17185929e-06
3.89849365e-05
1.63786885e-05
3.67078857e-05
2.75896552e-05
3.36396388e-05
4.11152055e-05
2.96390722e-05
5.72700437e-05
2.45980128e-05
7.62336147e-05
1.85353706e-05
9.86217827e-05
1.08559373e-05
0.000124984546
1.52250386e-06
0.000155971449
-9.54025767e-06
0.000192324499
-2.30872549e-05
0.000234904865
-3.92871082e-05
0.000284870237
-5.8498896e-05
0.000343025468
-8.11766858e-05
0.00041044401
-0.000107820962
0.000488263233
-0.000138949803
0.000577805563
-0.000175122424
0.000680439109
-0.000216970054
0.000797599235
-0.00026514966
0.000930723873
-0.000320272456
0.00108123971
-0.000382976527
0.0012505043
-0.000453892198
0.00143956769
-0.000533352412
0.0016493756
-0.000621873512
0.00188070465
-0.000719682711
0.00213429052
-0.000827268166
0.00241022877
-0.000944132025
0.00270795325
-0.00107017827
0.00302626821
-0.00120662999
0.00336507572
-0.00135650317
0.00372410841
-0.00152240269
0.00409907972
-0.001694362
0.00449823407
-0.00187208751
0.00491280691
-0.00203253136
0.00529153318
-0.00218791668
0.00560808917
-0.00235200381
0.00589644428
-0.0024997431
0.00613734431
-0.00261526285
0.00630580166
-0.00273142847
0.00645792673
-0.00284649102
0.00660742313
-0.00295223299
0.00675052054
-0.00305576687
0.00687455716
-0.00315167561
0.00696929781
-0.00324645373
-0.0033428677
0.00705162314
-2.35011639e-08
3.97546107e-07
-1.01146618e-07
1.26399545e-06
-2.39036499e-07
2.22399165e-06
-4.40846369e-07
3.26887645e-06
-7.08365384e-07
4.38913631e-06
-1.04193455e-06
5.5759854e-06
-1.44065792e-06
6.82200044e-06
-1.90242491e-06
8.12101082e-06
-2.4239116e-06
9.46828997e-06
-3.00113178e-06
1.08602902e-05
-3.62905841e-06
1.2293666e-05
-4.30150655e-06
1.37652534e-05
-5.01097213e-06
1.5271745e-05
-5.74842628e-06
1.680941e-05
-6.50307217e-06
1.83738478e-05
-7.262072e-06
1.99597712e-05
-8.01021073e-06
2.15607988e-05
-8.72949261e-06
2.31692474e-05
-9.39870281e-06
2.4775972e-05
-9.99303201e-06
2.6370283e-05
-1.04837316e-05
2.79398354e-05
-1.08383567e-05
2.94710553e-05
-1.10205638e-05
3.09486558e-05
-1.09851588e-05
3.23499034e-05
-1.0679334e-05
3.36526824e-05
-1.00404593e-05
3.48311383e-05
-8.99352868e-06
3.58547766e-05
-7.44767598e-06
3.66889423e-05
-5.30851388e-06
3.72938577e-05
-2.46345096e-06
3.7620968e-05
1.22191105e-06
3.76124634e-05
5.90522204e-06
3.71994451e-05
1.17538851e-05
3.63218182e-05
1.89570725e-05
3.4898221e-05
2.7722265e-05
3.28378076e-05
3.82744544e-05
3.0038069e-05
5.09001924e-05
2.63704144e-05
6.58941265e-05
2.17259477e-05
8.34430896e-05
1.61035218e-05
0.000104107314
8.98838658e-06
0.000128386103
3.33460046e-07
0.000156863202
-9.92640996e-06
0.000190215888
-2.24802355e-05
0.000229227319
-3.74712856e-05
0.000274935366
-5.52294815e-05
0.000328042283
-7.61741058e-05
0.000389524875
-0.000100748327
0.000460481156
-0.000129432424
0.000542081132
-0.000162752432
0.000635562526
-0.000201276588
0.000742231733
-0.000245591831
0.000863444759
-0.000296307001
0.0010005543
-0.000354049957
0.00115485264
-0.000419417191
0.00132759622
-0.000492983946
0.00151969914
-0.000575045926
0.00173185699
-0.000666016736
0.00196447418
-0.000765938532
0.00221767926
-0.000875049837
0.00249138706
-0.000993363815
0.00278531865
-0.00112117483
0.00309784272
-0.00125663258
0.00342632799
-0.00139864106
0.00376569469
-0.00154597484
0.00411212418
-0.00170291084
0.00446084969
-0.0018711061
0.00480410999
-0.00203760046
0.00512221513
-0.00219017089
0.00540965034
-0.00231994256
0.00565355587
-0.00243179089
0.00583854291
-0.00253695156
0.00598294521
-0.00264410931
0.00611890135
-0.00275117876
0.00623951914
-0.00285198274
0.00634618776
-0.00295309795
0.0064403444
-0.00304634426
0.006525855
-0.00314121979
0.00661362455
-0.00323938233
0.00671757561
-0.00335035835
-0.00345459348
0.00682933995
-2.62652267e-08
4.24457266e-07
-1.09995442e-07
1.34864048e-06
-2.55051462e-07
2.370099e-06
-4.62792083e-07
3.47779361e-06
-7.32553604e-07
4.66019154e-06
-1.06195601e-06
5.9067952e-06
-1.44714316e-06
7.20871011e-06
-1.88307575e-06
8.55858592e-06
-2.36304133e-06
9.9500237e-06
-2.87917902e-06
1.13783286e-05
-3.42218189e-06
1.28387107e-05
-3.98113213e-06
1.43263961e-05
-4.54327605e-06
1.58362424e-05
-5.0937478e-06
1.73624071e-05
-5.6152282e-06
1.88980372e-05
-6.087582e-06
2.04350293e-05
-6.48750432e-06
2.19638353e-05
-6.78816477e-06
2.34732469e-05
-6.95901384e-06
2.49503924e-05
-6.96387898e-06
2.63789653e-05
-6.75977546e-06
2.77398158e-05
-6.29660886e-06
2.90122576e-05
-5.51566567e-06
3.01723834e-05
-4.35371969e-06
3.11929489e-05
-2.73556053e-06
3.20398561e-05
-5.72545645e-07
3.26738191e-05
2.23936609e-06
3.30489655e-05
5.82341777e-06
3.31114253e-05
1.03116896e-05
3.28125659e-05
1.58545777e-05
3.2085538e-05
2.26210414e-05
3.08539665e-05
3.07968335e-05
2.90321602e-05
4.06037301e-05
2.65240037e-05
5.2300105e-05
2.32115314e-05
6.61626064e-05
1.89856527e-05
8.23846624e-05
1.38270808e-05
0.000101468858
7.29788212e-06
0.000123869231
-6.62159864e-07
0.000150107301
-1.01213767e-05
0.000180790435
-2.16805738e-05
0.000216616557
-3.54775402e-05
0.000258517789
-5.18115192e-05
0.000307120949
-7.10662219e-05
0.000363312346
-9.36443972e-05
0.000428086947
-0.000119984632
0.000502493642
-0.000150560093
0.000587659945
-0.000185892616
0.000684779543
-0.000226528762
0.000795085189
-0.000273033686
0.000919831805
-0.000325997702
0.00106026254
-0.000385996023
0.00121753353
-0.000453550392
0.00139263818
-0.000529125841
0.0015861933
-0.000612942205
0.00179849867
-0.000705259346
0.00202957384
-0.000806093003
0.00227909507
-0.000915511837
0.00254642656
-0.00103324563
0.00283025429
-0.00115885474
0.00312810439
-0.00129119235
0.00343755685
-0.00143060675
0.00375436828
-0.00157342419
0.00407557229
-0.00171982568
0.00439395614
-0.00186433943
0.00469590742
-0.00200484418
0.00496102381
-0.00213620556
0.00518194889
-0.00225850531
0.00535523135
-0.00236342761
0.00550127459
-0.00246596036
0.00563371097
-0.00256420017
0.00575803188
-0.00266124089
0.00586734824
-0.00275338552
0.00596589228
-0.00284967817
0.00605458931
-0.00294064434
0.00613714695
-0.003035612
0.00622072071
-0.00312986428
0.00630287118
-0.00322332318
0.00638049375
-0.00331696485
0.00646454784
-0.00343436702
-0.00356658903
0.00657658178
-3.10202446e-08
4.56105446e-07
-1.26389839e-07
1.44490072e-06
-2.87391114e-07
2.53212485e-06
-5.12599847e-07
3.70414994e-06
-7.98352911e-07
4.94720768e-06
-1.13901024e-06
6.24882796e-06
-1.52712587e-06
7.59831461e-06
-1.95352228e-06
8.98659059e-06
-2.40755913e-06
1.0405795e-05
-2.87619535e-06
1.1848832e-05
-3.34461341e-06
1.33091378e-05
-3.79569154e-06
1.4779635e-05
-4.20969607e-06
1.62525698e-05
-4.56392751e-06
1.77191359e-05
-4.83230442e-06
1.91690984e-05
-4.98477587e-06
2.05903785e-05
-4.98664261e-06
2.19687866e-05
-4.79712537e-06
2.32870442e-05
-4.36938159e-06
2.45262014e-05
-3.65148339e-06
2.56648659e-05
-2.58329689e-06
2.6675694e-05
-1.09371027e-06
2.75270284e-05
9.01432634e-07
2.8181911e-05
3.49598304e-06
2.86033936e-05
6.79601995e-06
2.87451586e-05
1.09216162e-05
2.85539299e-05
1.60083593e-05
2.7968319e-05
2.22083868e-05
2.69179068e-05
2.97045614e-05
2.53233365e-05
3.87027844e-05
2.30947238e-05
4.94405595e-05
2.01240843e-05
6.21768096e-05
1.63043323e-05
7.71084452e-05
1.1601365e-05
9.46815368e-05
5.64792405e-06
0.000115304587
-1.62742182e-06
0.000139443793
-1.03014336e-05
0.000167638759
-2.08856071e-05
0.00020050776
-3.35189285e-05
0.00023887313
-4.84737224e-05
0.000283304063
-6.60976391e-05
0.000334595233
-8.67539565e-05
0.000393639377
-0.000110839966
0.000461378643
-0.000138788785
0.000538826675
-0.000171074645
0.000627059515
-0.000208198653
0.000727201322
-0.000250682083
0.000840394707
-0.000299065209
0.000967771553
-0.000353883834
0.001110407
-0.000415646416
0.00126923553
-0.000484802551
0.00144497144
-0.000561707161
0.00163793893
-0.000646491843
0.00184805324
-0.000739213969
0.00207483478
-0.00083969886
0.00231733672
-0.00094773788
0.00257440584
-0.00106314003
0.0028442415
-0.00118532658
0.00312445008
-0.00131343421
0.00341149999
-0.00144588542
0.00370003667
-0.00157971027
0.00398722188
-0.00171777355
0.00426644363
-0.00185262829
0.00452425348
-0.00197761892
0.00475183775
-0.00209190775
0.00494059779
-0.0021935873
0.00509109567
-0.0022866826
0.00521248174
-0.00237987109
0.00531900076
-0.00246992577
0.00541600376
-0.00256293975
0.0055018564
-0.00265002775
0.00558326089
-0.00274261654
0.00566138845
-0.0028314822
0.00573471911
-0.00292297635
0.00580875308
-0.00301464735
0.00588917611
-0.00311599314
0.00598195109
-0.0032225983
0.00608369008
-0.00332503022
0.0061842414
-0.00341748276
0.00626781386
-0.00351790182
-0.00365178213
0.0063530395
-3.48370376e-08
4.91633242e-07
-1.38472691e-07
1.54951262e-06
-3.08915083e-07
2.70368748e-06
-5.41228045e-07
3.93771524e-06
-8.27938754e-07
5.23529449e-06
-1.15925099e-06
6.58163633e-06
-1.52315659e-06
7.96383704e-06
-1.90544793e-06
9.37062472e-06
-2.28965632e-06
1.07918796e-05
-2.65654926e-06
1.22177418e-05
-2.98396532e-06
1.36387201e-05
-3.24659489e-06
1.504459e-05
-3.41544386e-06
1.64239119e-05
-3.45717136e-06
1.77635382e-05
-3.33332048e-06
1.90481176e-05
-3.00031605e-06
2.02604448e-05
-2.40840393e-06
2.13801589e-05
-1.50037096e-06
2.23825316e-05
-2.09442114e-07
2.32390437e-05
1.54060954e-06
2.39188473e-05
3.83556543e-06
2.43850513e-05
6.77240701e-06
2.45947985e-05
1.04604514e-05
2.44987942e-05
1.50284403e-05
2.40406672e-05
2.06234131e-05
2.31558031e-05
2.74124708e-05
2.17708655e-05
3.55844161e-05
1.98027658e-05
4.53559743e-05
1.71531591e-05
5.69675969e-05
1.37189792e-05
7.06144249e-05
9.45565548e-06
8.66900536e-05
4.05664483e-06
0.000105560536
-2.55752281e-06
0.000127642196
-1.0471061e-05
0.000153414255
-2.01142366e-05
0.000183422078
-3.1624705e-05
0.000218385338
-4.52534747e-05
0.000258822108
-6.1310446e-05
0.000305440415
-8.01245469e-05
0.000359036008
-0.000102055837
0.000420449624
-0.000127496925
0.000490587708
-0.000156876808
0.000570413104
-0.000190649239
0.000660927558
-0.000229286277
0.000763151065
-0.000273280339
0.000878094935
-0.000323123881
0.00100672533
-0.000379292996
0.00114990604
-0.00044222564
0.00130833704
-0.000512293732
0.00148246503
-0.000589752394
0.0016723682
-0.000674682615
0.00187764831
-0.000766963844
0.00209745542
-0.000866276391
0.00233045753
-0.000972194773
0.00257491493
-0.00108413602
0.00282834972
-0.0012011534
0.00308787696
-0.00132264871
0.00334991653
-0.0014473482
0.00361106049
-0.00157456047
0.00386596453
-0.00170077194
0.0041083524
-0.00182208162
0.00432474801
-0.00193415417
0.00451004892
-0.00203791386
0.00466078263
-0.00212833342
0.00478401908
-0.00221512516
0.0048902117
-0.00229976203
0.00498897401
-0.0023854234
0.00507898726
-0.00246986284
0.00516094985
-0.00255186288
0.00523753537
-0.00263949988
0.00530678324
-0.00271925465
0.00537050141
-0.00280630936
0.00543541477
-0.00289636866
0.00550416556
-0.00299169901
0.0055756912
-0.00308614356
0.00565275012
-0.00319302242
0.00574483863
-0.00331465275
0.00585464743
-0.00343480594
0.00597150019
-0.00353430831
0.00608137764
-0.00362775208
-0.00373393961
0.00616356022
-3.46828285e-08
5.2700927e-07
-1.34139258e-07
1.6499516e-06
-2.92285144e-07
2.86296301e-06
-4.99747799e-07
4.14644247e-06
-7.44222274e-07
5.48115997e-06
-1.01060853e-06
6.84953661e-06
-1.28101969e-06
8.23588615e-06
-1.5346968e-06
9.62606798e-06
-1.74766302e-06
1.10067473e-05
-1.8925379e-06
1.23646635e-05
-1.93762512e-06
1.3686009e-05
-1.84695294e-06
1.4956283e-05
-1.57940358e-06
1.61589006e-05
-1.08804316e-06
1.72749021e-05
-3.19178267e-07
1.82821768e-05
7.88652283e-07
1.91557497e-05
2.30568196e-06
1.98664893e-05
4.31144391e-06
2.03803685e-05
6.89583415e-06
2.06585078e-05
1.0162883e-05
2.06559241e-05
1.42311236e-05
2.0321223e-05
1.92352844e-05
1.95953539e-05
2.53279581e-05
1.84111582e-05
3.26815675e-05
1.66924367e-05
4.14930743e-05
1.43500319e-05
5.19835568e-05
1.12865059e-05
6.43425718e-05
7.45029239e-06
7.8915973e-05
2.58667427e-06
9.60309256e-05
-3.38867598e-06
0.00011605891
-1.05645208e-05
0.000139424929
-1.93010142e-05
0.000166608698
-2.97323911e-05
0.000198235794
-4.20886877e-05
0.000234777236
-5.66456086e-05
0.00027686222
-7.36989867e-05
0.000325193477
-9.35733634e-05
0.000380516987
-0.000116621881
0.000443635051
-0.000143229773
0.000515398585
-0.000173805786
0.000596692265
-0.000208776292
0.000688417225
-0.000248586731
0.000791469007
-0.000293685249
0.000906708503
-0.000344509282
0.00103491363
-0.000401468248
0.00117672938
-0.000464921706
0.00133260706
-0.000535152044
0.00150273114
-0.000612330324
0.00168694156
-0.000696483824
0.00188456817
-0.0007873581
0.00209450033
-0.000884594278
0.00231514587
-0.000987589916
0.00254443131
-0.00109554326
0.00277978563
-0.00120753132
0.00301803981
-0.00132237301
0.0032553681
-0.00143846491
0.00348740829
-0.00155467224
0.00371064154
-0.00167056502
0.00391735718
-0.0017812605
0.00409880655
-0.00188220716
0.0042534035
-0.00197666349
0.00437884329
-0.0020595745
0.00448318751
-0.00214223841
0.00457867566
-0.00222380561
0.004666324
-0.00230275684
0.00474609645
-0.0023795167
0.00481706808
-0.00245637437
0.0048828198
-0.00253559428
0.00494760746
-0.00261662929
0.00500903755
-0.0027009066
0.00507378035
-0.00278397815
0.00513670789
-0.00286921628
0.00520582461
-0.0029654609
0.00528363794
-0.00306948771
0.00536717093
-0.00316965192
0.00544556638
-0.00327139284
0.00552546817
-0.00339452748
0.00561566707
-0.00352498156
0.00572301905
-0.00364163875
0.0058392202
-0.00374393006
-0.00384027923
0.00594558104
-2.87338693e-08
5.56470359e-07
-1.06085976e-07
1.72833228e-06
-2.20825935e-07
2.97888384e-06
-3.5797205e-07
4.28490907e-06
-4.9908114e-07
5.6237203e-06
-6.22252601e-07
6.97428729e-06
-7.01992294e-07
8.31733432e-06
-7.08995851e-07
9.63491294e-06
-6.09703932e-07
1.09094365e-05
-3.65880008e-07
1.21229706e-05
6.60250892e-08
1.32563949e-05
7.3579609e-07
1.42889722e-05
1.70005369e-06
1.51972843e-05
3.02318875e-06
1.59546018e-05
4.77812436e-06
1.65302807e-05
7.04848981e-06
1.68886418e-05
9.92916745e-06
1.69893041e-05
1.35279723e-05
1.67853065e-05
1.79671462e-05
1.62233411e-05
2.33850648e-05
1.52422937e-05
2.99382082e-05
1.37726658e-05
3.78045994e-05
1.17338625e-05
4.7185826e-05
9.03517e-06
5.82634719e-05
5.62039618e-06
7.13396342e-05
1.27981162e-06
8.6705579e-05
-4.07315047e-06
0.000104691643
-1.05290393e-05
0.000125673368
-1.83878385e-05
0.000150071052
-2.77786744e-05
0.000178425763
-3.89110454e-05
0.000211163
-5.20295401e-05
0.000248838595
-6.73987176e-05
0.00029206897
-8.53092149e-05
0.000341511472
-0.000106077643
0.00039787165
-0.000130048038
0.000461896974
-0.000157586899
0.0005343652
-0.00018907768
0.000616069812
-0.000224921312
0.000707801303
-0.000265523565
0.000810323225
-0.000311283855
0.0009243323
-0.000362580821
0.00105041719
-0.000419754517
0.00118900918
-0.000483085058
0.0013403256
-0.000552767842
0.00150430515
-0.000628883861
0.00168053171
-0.000711360483
0.00186813902
-0.00079991871
0.00206574612
-0.000894071973
0.00227150681
-0.000993100717
0.00248317354
-0.00109624373
0.00269812408
-0.00120252392
0.00291306911
-0.00131047229
0.00312433142
-0.00141877803
0.0033281222
-0.00152614835
0.00352109733
-0.00163142466
0.00369749735
-0.00173105762
0.00384970918
-0.00182276328
0.00397731332
-0.00190885081
0.00408238815
-0.00198726519
0.00417100186
-0.00206525757
0.00425317171
-0.00214172851
0.00432826645
-0.00221731874
0.00439503523
-0.00229055754
0.00446018964
-0.00236788983
0.00452434957
-0.00244365368
0.00458703356
-0.00251904027
0.00464631421
-0.00259485719
0.00470731507
-0.00267760924
0.00476710119
-0.00276066972
0.0048316521
-0.00284850787
0.00490301992
-0.002940565
0.00497597778
-0.00303839701
0.00505209591
-0.0031455845
0.00513935421
-0.00325688898
0.00522479739
-0.00335681581
0.00529561181
-0.00346532182
0.00536216477
-0.00359151111
0.00544360488
-0.00372305745
0.0055402677
-0.00384057525
-0.00394650845
0.00564651245
-1.65360737e-08
5.73768065e-07
-5.19799601e-08
1.76485558e-06
-8.84476842e-08
3.0165926e-06
-1.03730816e-07
4.30158127e-06
-7.14858998e-08
5.59300313e-06
3.88926897e-08
6.86557209e-06
2.62575569e-07
8.09545167e-06
6.3976309e-07
9.25966658e-06
1.21610689e-06
1.03351821e-05
2.04335387e-06
1.12979703e-05
3.18007386e-06
1.21220891e-05
4.69284771e-06
1.27787915e-05
6.6571366e-06
1.32357778e-05
9.15897739e-06
1.34557448e-05
1.22956172e-05
1.33968427e-05
1.61772839e-05
1.30104098e-05
2.09286069e-05
1.22416616e-05
2.66901321e-05
1.10277236e-05
3.36216672e-05
9.29602391e-06
4.19042496e-05
6.96422713e-06
5.17094072e-05
3.97234584e-06
6.32987188e-05
1.49692305e-07
7.69300069e-05
-4.59066307e-06
9.28955782e-05
-1.03393298e-05
0.000111525893
-1.73442401e-05
0.000133188078
-2.57286533e-05
0.000158348088
-3.56819238e-05
0.000187388175
-4.74203314e-05
0.000220796807
-6.117922e-05
0.000259111831
-7.72174623e-05
0.000302908838
-9.58173912e-05
0.00035280501
-0.000117285143
0.000409454185
-0.000141948048
0.000473537605
-0.000170150128
0.000545752023
-0.000202250931
0.00062679422
-0.000238616966
0.000717341405
-0.00027961214
0.000818019304
-0.00032558588
0.000929368071
-0.000376858412
0.00105180175
-0.000433703023
0.00118556159
-0.000496325583
0.00133066422
-0.0005648415
0.00148684591
-0.000639250581
0.00165350459
-0.000719409752
0.00182963521
-0.000804997033
0.00201373761
-0.000895444956
0.00220382232
-0.000989985824
0.00239746526
-0.00108769805
0.0025919456
-0.00118756488
0.00278418082
-0.00128846332
0.00297095384
-0.00138928172
0.00314874366
-0.00148824701
0.00331410026
-0.00158411989
0.00346331772
-0.00167535168
0.00359267318
-0.00176076639
0.00370124405
-0.00183961435
0.0037903301
-0.00191183263
0.00386592969
-0.0019844336
0.00393575592
-0.00205707648
0.00399954662
-0.00212903206
0.00405862784
-0.00220079076
0.00411607005
-0.00227474297
0.00417088948
-0.00234536015
0.00422144869
-0.00241843099
0.00427211807
-0.00249430445
0.00432578768
-0.00257269079
0.00438292116
-0.00265197263
0.0044417056
-0.00273637268
0.00450351622
-0.0028224596
0.00456718899
-0.00291215976
0.00463839075
-0.00301174622
0.00471260525
-0.00311259119
0.0047813721
-0.00321433169
0.00485350868
-0.00332900631
0.0049358491
-0.0034391379
0.00501475221
-0.00354420735
0.00508302029
-0.00365976285
0.00514284794
-0.00378286419
0.00520629576
-0.00390400112
-0.00401391145
0.00527371561
2.54489521e-09
5.72000836e-07
3.08032945e-08
1.73769887e-06
1.10997457e-07
2.93766488e-06
2.74390021e-07
4.13960649e-06
5.57199502e-07
5.31175363e-06
1.00086148e-06
6.42360881e-06
1.65243669e-06
7.44571521e-06
2.56526569e-06
8.34882143e-06
3.79970657e-06
9.10287796e-06
5.42401539e-06
9.67596071e-06
7.51526677e-06
1.00333087e-05
1.01610259e-05
1.01356866e-05
1.34599653e-05
9.93969139e-06
1.75235257e-05
9.39525085e-06
2.24776693e-05
8.44599168e-06
2.8464306e-05
7.02730575e-06
3.56441775e-05
5.06558187e-06
4.41768364e-05
2.49913673e-06
5.42864718e-05
-8.09267629e-07
6.62003343e-05
-4.9450076e-06
8.01748876e-05
-9.99723917e-06
9.64987148e-05
-1.61688016e-05
0.000115490688
-2.35769331e-05
0.000137549232
-3.2391777e-05
0.000163015811
-4.28043073e-05
0.000192317295
-5.50231872e-05
0.000225920751
-6.92779678e-05
0.000264327525
-8.5819204e-05
0.000308074936
-0.000104918209
0.000357732556
-0.000126866122
0.000413894976
-0.000151970315
0.000477172286
-0.000180552414
0.000548177517
-0.000212942694
0.000627510575
-0.000249472043
0.000715733765
-0.000290462426
0.000813343936
-0.000336214885
0.000920739603
-0.000386995011
0.00103818306
-0.000443015995
0.00116575768
-0.000504419182
0.00130332219
-0.000571253153
0.00145046288
-0.000643451429
0.00160644742
-0.000720810713
0.00177018332
-0.000802970642
0.00194018292
-0.00088939287
0.0021145075
-0.000979304889
0.00229080508
-0.0010717262
0.00246640452
-0.00116556954
0.00263842851
-0.00125970683
0.00280392328
-0.00135304488
0.00295978989
-0.00144431537
0.0031033956
-0.00153287292
0.00323258137
-0.00161741865
0.00334482322
-0.00169634846
0.00343988529
-0.00177040088
0.00351938108
-0.00184025054
0.00358833961
-0.00190855855