/*--------------------------------*- C++ -*----------------------------------*\
  =========                 |
  \\      /  F ield         | OpenFOAM: The Open Source CFD Toolbox
   \\    /   O peration     | Website:  https://openfoam.org
    \\  /    A nd           | Version:  8
     \\/     M anipulation  |
\*---------------------------------------------------------------------------*/
FoamFile
{
    version     2.0;
    format      ascii;
    class       volScalarField;
    location    "0.073";
    object      T;
}
// * * * * * * * * * * * * * * * * * * * * * * * * * * * * * * * * * * * * * //

dimensions      [0 0 0 1 0 0 0];

internalField   nonuniform List<scalar> 
42400
(
472.213317
470.622527
468.989893
467.314435
465.595223
463.831395
462.02217
460.166875
458.264959
456.31602
454.319831
452.276366
450.185835
448.048713
445.865779
443.638154
441.36734
439.055261
436.704304
434.317359
431.897863
429.449829
426.977882
424.487283
421.983948
419.474454
416.966036
414.466568
411.98453
409.528954
407.109356
404.735648
402.418023
400.166838
397.992477
395.905214
393.915059
392.031621
390.26401
388.620737
387.109598
385.737508
384.510449
383.433391
382.510236
381.743811
381.135777
380.686586
380.395479
380.264674
380.284204
380.452715
380.764173
381.20919
381.775523
382.447327
383.206476
384.025037
384.86426
385.701269
386.557283
387.178367
387.443196
387.344293
386.681225
385.807502
384.641948
383.12117
381.042821
378.350644
375.092415
370.95255
366.453191
362.176578
356.442018
349.132706
341.947353
337.272886
329.844141
324.785213
472.246606
470.723127
469.159578
467.555028
465.908597
464.219479
462.48695
460.710395
458.889326
457.023407
455.112477
453.156579
451.155994
449.111271
447.023264
444.893171
442.722572
440.513474
438.268349
435.990177
433.682486
431.34939
428.995621
426.626554
424.248231
421.867366
419.491348
417.128222
414.786659
412.475916
410.205767
407.986424
405.828441
403.742591
401.739743
399.83074
398.02626
396.336654
394.771772
393.340764
392.05187
390.912197
389.927615
389.102582
388.439998
387.941039
387.604807
387.428207
387.406286
387.530255
387.791991
388.174691
388.660961
389.225751
389.833709
390.455034
391.074285
391.637296
391.897613
391.824938
391.314073
390.507808
389.437809
388.032139
386.193128
383.801946
380.864899
377.393417
373.260653
368.408683
363.125026
357.207583
350.743166
344.698994
338.627264
331.442727
324.457537
318.124152
312.730285
308.117002
472.289805
470.853677
469.379794
467.867298
466.315391
464.723348
463.090536
461.416435
459.700658
457.94297
456.14332
454.301865
452.419
450.495394
448.53202
446.530201
444.49164
442.418471
440.313289
438.1792
436.019858
433.839499
431.642978
429.435791
427.224099
425.014738
422.815214
420.633692
418.478968
416.360416
414.287932
412.271849
410.322858
408.451881
406.669931
404.98794
403.416547
401.965848
400.645122
399.462569
398.425051
397.537809
396.804176
396.225172
395.799318
395.5229
395.388379
395.384306
395.491597
395.698162
395.970825
396.282201
396.612545
396.936507
397.043427
396.916995
396.431557
395.581215
394.517562
393.170659
391.470926
389.293505
386.583085
383.305186
379.451118
375.02142
370.096325
364.786768
359.032609
352.683196
346.084323
339.490107
332.713129
326.223287
320.356464
314.889225
309.908288
305.458211
301.854151
300.424494
472.3396
471.004168
469.633661
468.227315
466.784435
465.304406
463.786716
462.230972
460.636923
459.004479
457.33374
455.625021
453.878884
452.096166
450.278018
448.425939
446.541816
444.62796
442.687148
440.722661
438.73832
436.738519
434.728258
432.713161
430.699492
428.694158
426.704704
424.739291
422.806668
420.916104
419.07731
417.300335
415.595425
413.972843
412.442649
411.014449
409.697081
408.498328
407.424574
406.48043
405.668331
404.988204
404.437467
404.009615
403.693946
403.476105
403.338106
403.261
403.230399
403.163654
402.967944
402.589127
401.960958
401.026979
399.913746
398.558092
396.893494
394.826194
392.280122
389.22407
385.640908
381.536167
376.937855
371.854845
366.303259
360.326852
354.071979
347.697363
341.293162
334.783223
328.32382
322.248888
316.656821
311.648102
307.391572
303.955134
301.288504
300.142801
299.915637
299.855893
472.392253
471.163302
469.902124
468.60807
467.280566
465.919132
464.523397
463.093125
461.628226
460.128789
458.595095
457.027654
455.427225
453.794854
452.1319
450.440073
448.721467
446.978595
445.214424
443.432408
441.636513
439.831248
438.021679
436.213444
434.412751
432.626364
430.861575
429.126152
427.428264
425.776377
424.179114
422.64509
421.182682
419.799785
418.503524
417.299914
416.193482
415.186862
414.280378
413.471836
412.755731
412.123475
411.564416
411.065461
410.599918
410.099667
409.522367
408.818005
407.926848
406.865624
405.644024
404.210833
402.510591
400.468212
398.011728
395.106236
391.725322
387.856638
383.505615
378.695756
373.477043
367.899213
362.010572
355.85704
349.480436
342.968903
336.492075
330.224067
324.296221
318.789057
313.781668
309.436278
305.860725
303.173925
301.085515
300.151896
299.949734
299.89919
299.876461
299.875259
472.443615
471.318546
470.164055
468.979617
467.764796
466.519257
465.242787
463.935311
462.596916
461.227867
459.828635
458.399918
456.942666
455.458112
453.947798
452.4136
450.857761
449.282914
447.692106
446.088817
444.476977
442.860969
441.245625
439.636211
438.038392
436.458183
434.901869
433.375904
431.886771
430.440821
429.044069
427.701947
426.419023
425.198696
424.042845
422.951494
421.922629
420.951716
420.031789
419.145052
418.268673
417.375029
416.431887
415.401782
414.257647
413.009492
411.620187
410.049278
408.249927
406.158673
403.724471
400.91236
397.692808
394.045228
389.960471
385.442111
380.509149
375.196168
369.563671
363.663163
357.551642
351.310883
345.020306
338.759726
332.601716
326.661234
321.06786
315.975669
311.49916
307.744432
304.766816
302.572467
301.025173
300.127435
299.940139
299.890231
299.879117
299.872292
299.860431
299.854892
472.489078
471.455973
470.395958
469.308637
468.19371
467.050981
465.880379
464.681976
463.456
462.202859
460.923157
459.617713
458.287586
456.934089
455.558813
454.163641
452.750768
451.322703
449.882284
448.432666
446.977314
445.51998
444.064657
442.615524
441.176868
439.752977
438.348008
436.965823
435.609794
434.282579
432.985856
431.720021
430.483873
429.274355
428.086103
426.910656
425.733852
424.53815
423.303153
422.015909
420.656948
419.202465
417.624768
415.891079
413.96021
411.786641
409.336675
406.578074
403.481512
400.023272
396.187155
391.965901
387.362289
382.390603
377.077455
371.460576
365.602524
359.558966
353.39253
347.1773
340.988062
334.926152
329.096239
323.588479
318.489721
313.904734
309.922951
306.635886
304.071153
302.201457
300.979065
300.223953
299.972835
299.907939
299.889116
299.881929
299.875056
299.861316
299.838656
299.820964
472.523779
471.560881
470.573022
469.55992
468.521384
467.457321
466.367756
465.252841
464.11287
462.948293
461.759728
460.547972
459.314015
458.059046
456.784461
455.491863
454.18306
452.860051
451.52501
450.18025
448.828182
447.471252
446.111858
444.752254
443.394423
442.039927
440.689729
439.343985
438.001818
436.661076
435.318111
433.967482
432.601659
431.210787
429.782292
428.301169
426.75227
425.117033
423.372732
421.49077
419.443639
417.203257
414.740962
412.028621
409.039893
405.751146
402.14311
398.202159
393.9216
389.302814
384.356195
379.102002
373.570723
367.804241
361.860451
355.797812
349.676931
343.568435
337.55819
331.736575
326.195083
321.025704
316.326681
312.180486
308.658346
305.798247
303.600823
302.021505
300.975826
300.363958
300.049203
299.943938
299.91044
299.891713
299.87341
299.856107
299.838105
299.825328
299.811512
299.801666
472.543165
471.619509
470.672015
469.700472
468.704745
467.684777
466.640601
465.572346
464.480247
463.364641
462.225983
461.064836
459.881874
458.677873
457.453702
456.210315
454.948734
453.67001
452.375178
451.065203
449.740909
448.402893
447.051411
445.686246
444.306543
442.910623
441.49575
440.057816
438.590885
437.087513
435.539211
433.935635
432.264451
430.511213
428.659381
426.690474
424.584291
422.319187
419.872538
417.221374
414.343237
411.21708
407.823726
404.14714
400.175431
395.901857
391.325797
386.453658
381.299826
375.887114
370.247604
364.423398
358.467321
352.447099
346.425209
340.467864
334.653144
329.069647
323.813372
318.965733
314.61284
310.824691
307.657971
305.128228
303.21481
301.852252
300.953399
300.413632
300.126604
299.990263
299.937956
299.900907
299.870426
299.845323
299.823531
299.808135
299.804105
299.804979
299.806481
299.802511
472.543949
471.621901
470.676087
469.7063
468.712382
467.694231
466.651801
465.585099
464.494189
463.379182
462.240234
461.077528
459.891262
458.681621
457.448766
456.192794
454.913685
453.611257
452.285092
450.934438
449.5581
448.154288
446.720439
445.252986
443.746752
442.195011
440.591371
438.928489
437.19817
435.390723
433.494179
431.495026
429.378294
427.12769
424.72583
422.15458
419.395483
416.430319
413.241787
409.813847
406.132653
402.187336
397.970815
393.480622
388.719732
383.697394
378.429925
372.941386
367.264358
361.440047
355.519627
349.567185
343.65295
337.848042
332.230205
326.88242
321.88727
317.325847
313.277038
309.794449
306.9173
304.645841
302.94073
301.731535
300.928687
300.433824
300.151956
300.003741
299.923993
299.878081
299.843932
299.82832
299.8201
299.81571
299.811503
299.805707
299.803168
299.8006
299.800263
299.799227
472.526854
471.570277
470.589097
469.583102
468.552097
467.495903
466.414347
465.307258
464.174456
463.015748
461.83091
460.619678
459.381545
458.114989
456.818106
455.489505
454.127587
452.730354
451.295341
449.819543
448.299344
446.730452
445.1079
443.426047
441.678929
439.860169
437.960918
435.970996
433.879115
431.672902
429.338962
426.863034
424.230208
421.425224
418.432841
415.238316
411.827759
408.188737
404.310903
400.186669
395.811917
391.186751
386.316287
381.211478
375.889971
370.376964
364.705838
358.9186
353.066111
347.208008
341.415197
335.764939
330.333904
325.202424
320.45026
316.154218
312.372783
309.147568
306.500507
304.417033
302.850784
301.732074
300.975485
300.493108
300.202677
300.034781
299.939633
299.882851
299.853364
299.83967
299.831283
299.825716
299.819404
299.814216
299.809597
299.802764
299.795415
299.79016
299.788397
299.78575
472.490427
471.460213
470.403475
469.319913
468.209198
467.070955
465.904749
464.709885
463.484908
462.228744
460.940104
459.617442
458.259081
456.863911
455.430664
453.956922
452.439722
450.875618
449.260611
447.590105
445.858834
444.060769
442.189126
440.236292
438.193748
436.052092
433.801024
431.429395
428.925299
426.276217
423.469214
420.491195
417.32923
413.970895
410.404677
406.62048
402.610185
398.368261
393.892455
389.184532
384.251078
379.10435
373.763141
368.253668
362.610415
356.876717
351.104726
345.355035
339.695688
334.201621
328.951379
324.023429
319.491877
315.419616
311.857393
308.839591
306.369326
304.418576
302.939172
301.86463
301.118301
300.62249
300.305645
300.108998
299.990076
299.919057
299.87837
299.85763
299.846512
299.83669
299.8274
299.818888
299.809654
299.801108
299.79532
299.791939
299.789131
299.7867
299.786507
299.786401
472.43575
471.294964
470.124669
468.924383
467.693524
466.43139
465.136554
463.807924
462.444824
461.045789
459.609104
458.132764
456.614446
455.051466
453.440723
451.778649
450.061157
448.283586
446.440639
444.526369
442.534132
440.456518
438.28538
436.011825
433.626238
431.118335
428.47725
425.691658
422.749953
419.640469
416.351763
412.872923
409.193962
405.306274
401.203166
396.880463
392.337191
387.576335
382.60566
377.438578
372.095017
366.602259
360.995653
355.319177
349.625708
343.976493
338.439863
333.088868
327.99824
323.242565
318.888194
314.990991
311.593598
308.715189
306.351942
304.478159
303.045307
301.98618
301.231559
300.712936
300.368543
300.147243
300.010224
299.925463
299.876817
299.853307
299.841786
299.833963
299.826817
299.819041
299.809414
299.801193
299.796089
299.791873
299.788553
299.787099
299.785485
299.781629
299.780955
299.785125
472.36739
471.088368
469.776146
468.430055
467.04927
465.63263
464.17912
462.687314
461.155526
459.581773
457.963738
456.298731
454.583657
452.814963
450.988599
449.099981
447.143951
445.114745
443.00594
440.810457
438.520552
436.127817
433.623216
430.997131
428.239448
425.339677
422.287106
419.071019
415.680961
412.107032
408.340264
404.373067
400.199755
395.817154
391.225288
386.42814
381.434479
376.258719
370.921761
365.451774
359.884807
354.26513
348.6452
343.085154
337.651653
332.415758
327.450122
322.824286
318.599882
314.825519
311.534953
308.740112
306.436078
304.595004
303.166883
302.094055
301.316328
300.771317
300.40217
300.161408
300.010291
299.919457
299.869047
299.847554
299.839455
299.831747
299.824543
299.817724
299.811446
299.806279
299.801044
299.795134
299.79066
299.788234
299.787182
299.786726
299.784957
299.780017
299.776446
299.777775
472.288559
470.85013
469.374269
467.86012
466.306613
464.712426
463.076153
461.395974
459.669739
457.894933
456.068634
454.187481
452.247633
450.244736
448.17388
446.029572
443.805714
441.495589
439.091855
436.586556
433.971152
431.236571
428.37329
425.37145
422.221009
418.911963
415.434588
411.779736
407.939205
403.906191
399.675804
395.245678
390.61665
385.793516
380.785835
375.608754
370.283806
364.839613
359.312403
353.746236
348.192791
342.710596
337.363594
332.218985
327.344391
322.80447
318.657567
314.949907
311.711108
308.952043
306.664719
304.821424
303.377433
302.279535
301.470324
300.893304
300.495721
300.232146
300.064391
299.962372
299.902322
299.870521
299.854339
299.844201
299.836892
299.829759
299.821709
299.814761
299.809099
299.804775
299.80052
299.795233
299.790538
299.787948
299.787358
299.789469
299.79017
299.785141
299.779865
299.777779
472.201198
470.58611
468.928905
467.228527
465.483641
463.692738
461.854025
459.965274
458.023863
456.026739
453.970384
451.85077
449.66334
447.40297
445.063952
442.639979
440.124145
437.508953
434.786347
431.947766
428.98422
425.886406
422.644866
419.250206
415.693316
411.965681
408.059743
403.969346
399.690254
395.220742
390.562268
385.7202
380.704587
375.530943
370.22098
364.803238
359.313522
353.795032
348.298084
342.879306
337.600112
332.524471
327.716034
323.23441
319.131794
315.449519
312.216004
309.442603
307.123363
305.233386
303.734522
302.579563
301.715295
301.087888
300.646695
300.347025
300.150773
300.026476
299.949587
299.903801
299.876623
299.858533
299.844179
299.830728
299.821567
299.815034
299.809113
299.803701
299.799493
299.796521
299.794808
299.793777
299.790533
299.78843
299.788126
299.792566
299.801393
299.80473
299.800041
299.791241
472.10654
470.300032
468.44633
466.544199
464.59212
462.588266
460.530402
458.415878
456.241585
454.003925
451.698777
449.321472
446.866767
444.328835
441.701263
438.977061
436.148696
433.208138
430.146947
426.956375
423.627538
420.151612
416.520058
412.724923
408.759205
404.61728
400.295408
395.792311
391.10981
386.25353
381.23363
376.065529
370.770595
365.376707
359.91862
354.438046
348.983329
343.608611
338.372429
333.335697
328.558763
324.098485
320.004239
316.31437
313.054051
310.233063
307.846676
305.874551
304.284435
303.034718
302.07879
301.368332
300.855738
300.496641
300.252381
300.090417
299.985392
299.91762
299.876357
299.85163
299.836609
299.825118
299.816208
299.81209
299.806034
299.799661
299.79582
299.79298
299.790018
299.787608
299.78768
299.787753
299.788624
299.790239
299.795021
299.798404
299.801426
299.809468
299.821854
299.820961
472.005586
469.994928
467.931675
465.81439
463.641286
461.410182
459.118458
456.763025
454.340283
451.846097
449.275772
446.624041
443.885057
441.052409
438.119143
435.077819
431.920579
428.639257
425.225547
421.671177
417.968132
414.10895
410.087068
405.897234
401.535991
397.002227
392.297785
387.42813
382.403031
377.237257
371.951208
366.571439
361.130993
355.669453
350.23262
344.871722
339.642092
334.601259
329.806511
325.312096
321.165754
317.40546
314.057653
311.134653
308.63555
306.545999
304.838707
303.477048
302.41777
301.615361
301.024708
300.60282
300.31116
300.116699
299.991842
299.914297
299.868457
299.846391
299.836115
299.829929
299.824787
299.821335
299.817512
299.813486
299.807394
299.800163
299.794394
299.790255
299.788283
299.786973
299.7854
299.785544
299.786656
299.788271
299.79442
299.803471
299.804228
299.804378
299.819265
299.83103
471.899269
469.673601
467.389619
465.045653
462.639632
460.16904
457.630873
455.021611
452.337186
449.572972
446.723769
443.783816
440.746814
437.605964
434.354043
430.983497
427.486603
423.855624
420.083026
416.161756
412.085564
407.849399
403.449861
398.88572
394.158493
389.273066
384.238353
379.067937
373.780684
368.401241
362.960372
357.495029
352.048091
346.667668
341.405924
336.317387
331.456797
326.876586
322.624041
318.738748
315.249777
312.174939
309.521222
307.279565
305.429236
303.938675
302.767892
301.873504
301.21023
300.733408
300.401739
300.179111
300.035552
299.946723
299.894485
299.867165
299.854116
299.844941
299.836694
299.829303
299.822882
299.817443
299.813098
299.809578
299.807526
299.802496
299.79646
299.790071
299.78695
299.785928
299.785758
299.785763
299.785738
299.788695
299.791861
299.800361
299.808626
299.808917
299.815921
299.826888
471.78859
469.339084
466.825295
464.245313
461.596779
458.876849
456.082154
453.208782
450.252258
447.207551
444.069085
440.830776
437.486091
434.028137
430.449794
426.743868
422.903288
418.921358
414.792061
410.510425
406.072943
401.478062
396.726725
391.822955
386.774481
381.593355
376.296543
370.906432
365.451184
359.964881
354.48737
349.063727
343.743291
338.578215
333.621603
328.925288
324.537439
320.500178
316.846902
313.600208
310.771251
308.356744
306.340685
304.695247
303.384364
302.366228
301.596688
301.030644
300.62646
300.346971
300.159903
300.038354
299.961278
299.912922
299.882813
299.862085
299.846364
299.833671
299.82322
299.814619
299.80807
299.803748
299.801878
299.801004
299.800441
299.801681
299.801748
299.79997
299.792595
299.788847
299.788056
299.788532
299.789562
299.791078
299.794148
299.798179
299.817292
299.830466
299.829771
299.826868
472.616645
471.841476
471.046024
470.229847
469.392493
468.533496
467.652375
466.748635
465.821762
464.871224
463.896464
462.896899
461.871916
460.820864
459.743052
458.637739
457.504134
456.34138
455.148553
453.924651
452.668582
451.379158
450.055078
448.694925
447.29716
445.860126
444.382038
442.860995
441.294984
439.6815
438.016926
436.297035
434.518475
432.677536
430.770054
428.791353
426.736106
424.601911
422.387569
420.088247
417.698849
415.214676
412.631527
409.945872
407.155073
404.257248
401.251172
398.136706
394.915106
391.58925
388.163803
384.645342
381.042401
377.365403
373.626405
369.849524
366.064682
362.30766
358.619951
355.047969
351.641474
348.451081
345.524617
342.901839
340.607209
338.642208
336.981219
335.574913
334.359845
333.267981
332.236336
331.216455
330.179754
329.11639
328.031838
326.946267
325.889883
324.890865
323.95998
323.091745
472.61941
471.849844
471.060163
470.249952
469.418786
468.56623
467.691839
466.795158
465.875717
464.93303
463.966593
462.97588
461.960337
460.919379
459.852389
458.758705
457.637622
456.48838
455.310161
454.10208
452.863165
451.59236
450.288507
448.950338
447.576467
446.16537
444.715378
443.22466
441.691208
440.11282
438.487091
436.811432
435.083107
433.299248
431.456894
429.553058
427.584864
425.54589
423.42798
421.226346
418.936193
416.552142
414.068328
411.478646
408.784904
405.990173
403.089052
400.078477
396.957377
393.726616
390.389068
386.949668
383.415444
379.795473
376.100931
372.349456
368.566427
364.783065
361.036836
357.371461
353.836287
350.484502
347.369534
344.539321
342.028791
339.852639
338.000912
336.439214
335.111196
333.944262
332.860932
331.794294
330.701861
329.572547
328.424597
327.293313
326.211496
325.192403
324.230418
323.323447
472.618522
471.847175
471.055699
470.243704
469.410796
468.556574
467.680633
466.78256
465.861934
464.918322
463.951276
462.960333
461.945006
460.904788
459.839138
458.747484
457.629213
456.483665
455.310126
454.107821
452.875913
451.613486
450.319538
448.992964
447.632551
446.23696
444.804714
443.334185
441.823581
440.270933
438.674082
437.030677
435.338166
433.593793
431.794606
429.937562
428.019035
426.035177
423.982015
421.855626
419.652198
417.36813
415.000136
412.545187
409.992121
407.329031
404.554271
401.665456
398.660445
395.538136
392.29927
388.945553
385.482634
381.920182
378.272554
374.555152
370.784609
366.986437
363.19404
359.449017
355.801006
352.306018
349.02282
346.00889
343.314449
340.975915
338.999576
337.357702
335.98629
334.793372
333.67964
332.564381
331.405368
330.204017
328.993528
327.815146
326.696827
325.648696
324.678687
323.7993
472.613806
471.832934
471.031717
470.209784
469.366768
468.502301
467.616014
466.707535
465.776489
464.822495
463.84516
462.844083
461.818849
460.769024
459.694155
458.593763
457.467343
456.314353
455.134215
453.926301
452.689933
451.424369
450.128795
448.802311
447.443925
446.052531
444.626897
443.165649
441.66725
440.12998
438.551917
436.930912
435.264566
433.55021
431.784881
429.965182
428.08781
426.149172
424.145414
422.072449
419.925996
417.701612
415.394729
413.000666
410.515273
407.933218
405.250032
402.461899
399.565585
396.5584
393.438122
390.204804
386.858481
383.399998
379.831271
376.160581
372.410781
368.608988
364.788762
360.993422
357.276437
353.69893
350.323281
347.212113
344.414413
342.015436
340.009416
338.355267
336.972602
335.755375
334.59795
333.422637
332.197652
330.937505
329.684905
328.484683
327.365914
326.33944
325.407866
324.565424
472.605047
471.806479
470.987134
470.146665
469.284727
468.400982
467.495095
466.566733
465.615565
464.641255
463.643466
462.621854
461.576066
460.505741
459.410501
458.289956
457.143694
455.97128
454.772252
453.546113
452.292328
451.010312
449.699427
448.358967
446.988145
445.586088
444.151814
442.684218
441.182055
439.643919
438.068219
436.453163
434.796725
433.096629
431.350317
429.554935
427.707304
425.803902
423.840842
421.813863
419.718323
417.54921
415.30118
412.968667
410.544782
408.024624
405.403071
402.675039
399.835729
396.8809
393.807189
390.612376
387.296248
383.860197
380.312773
376.663088
372.928038
369.133369
365.315391
361.520185
357.804262
354.235504
350.893243
347.853514
345.179354
342.823808
340.860577
339.244123
337.887816
336.682577
335.522661
334.332767
333.086691
331.808171
330.551578
329.372567
328.300423
327.332466
326.450662
325.620539
472.591956
471.766932
470.920478
470.052261
469.161961
468.249266
467.313872
466.355485
465.373811
464.368561
463.339446
462.286175
461.208456
460.105989
458.97847
457.825584
456.647006
455.442394
454.211391
452.953613
451.668653
450.356065
449.015365
447.646015
446.247418
444.818904
443.359716
441.868992
440.345755
438.788883
437.197097
435.568932
433.90271
432.196514
430.448159
428.655156
426.814689
424.92357
422.978212
420.974602
418.908281
416.774333
414.567384
412.281628
409.910865
407.448589
404.888071
402.222497
399.445171
396.549823
393.53117
390.386023
387.112762
383.716434
380.194569
376.562015
372.83889
369.053787
365.246043
361.46696
357.779765
354.258592
350.98452
348.037618
345.477941
343.325503
341.543074
340.088669
338.872841
337.779767
336.697596
335.551022
334.324822
333.063895
331.845287
330.73185
329.73657
328.830285
327.968226
327.115631
472.574314
471.713634
470.830628
469.924976
468.996373
468.044532
467.069175
466.070036
465.046859
463.999392
462.927389
461.830606
460.708803
459.561738
458.389169
457.19085
455.966532
454.715959
453.438863
452.134967
450.803972
449.445562
448.059387
446.645066
445.202169
443.730213
442.228648
440.696842
439.134064
437.53947
435.912075
434.250734
432.554114
430.820662
429.048568
427.235727
425.379705
423.47769
421.526449
419.522288
417.461014
415.337892
413.14762
410.884314
408.541513
406.112226
403.589012
400.964142
398.229836
395.378632
392.40391
389.300609
386.066157
382.701719
379.213687
375.615598
371.930121
368.191248
364.446372
360.757137
357.191313
353.825052
350.738041
348.000558
345.672733
343.791504
342.28331
341.079884
340.071594
339.131935
338.151046
337.070577
335.904838
334.728089
333.623659
332.626993
331.713966
330.839482
329.985263
329.176965
472.551924
471.645982
470.716561
469.763345
468.786037
467.784361
466.758058
465.706883
464.630602
463.528996
462.40185
461.24896
460.070127
458.86516
457.633869
456.37607
455.091583
453.780227
452.441824
451.076189
449.683136
448.262467
446.813971
445.337416
443.832546
442.299067
440.736642
439.144874
437.523295
435.871344
434.18835
432.473502
430.725828
428.944156
427.127084
425.27293
423.379696
421.445011
419.46608
417.439621
415.361806
413.228203
411.03372
408.772566
406.438236
404.023535
401.520651
398.921324
396.217122
393.399876
390.462319
387.398977
384.20736
380.889473
377.453643
373.916601
370.305658
366.66068
363.035439
359.497663
356.12698
353.009852
350.224799
347.83374
345.871993
344.337708
343.169619
342.268226
341.506573
340.757103
339.926553
338.988021
337.98815
337.007327
336.095635
335.246991
334.42737
333.637253
332.911665
332.274197
472.524605
471.563432
470.577358
469.566053
468.529219
467.466578
466.377873
465.262868
464.121343
462.953092
461.757926
460.535666
459.286148
458.009218
456.704736
455.372574
454.012618
452.624763
451.208918
449.765003
448.292948
446.79269
445.264171
443.707334
442.122116
440.508443
438.866221
437.195324
435.495581
433.766763
432.008557
430.220546
428.402181
426.552748
424.671329
422.756755
420.807551
418.821884
416.797483
414.731577
412.620809
410.461162
408.247886
405.975438
403.63745
401.226751
398.735452
396.155143
393.477236
390.693504
387.79687
384.782504
381.649258
378.401455
375.050984
371.619543
368.140747
364.661672
361.243332
357.959412
354.892517
352.127262
349.73989
347.784383
346.276897
345.189302
344.439713
343.909058
343.463196
342.984539
342.404158
341.723141
340.997362
340.280691
339.586596
338.900162
338.214581
337.589928
337.046614
336.572123
472.49232
471.465868
470.412813
469.332803
468.225515
467.090655
465.927955
464.73717
463.518077
462.270474
460.994181
459.689037
458.354902
456.991657
455.599209
454.177485
452.726443
451.246062
449.736355
448.197361
446.629151
445.031826
443.405516
441.750378
440.066594
438.354365
436.613907
434.845437
433.049169
431.225293
429.373958
427.495249
425.589157
423.655542
421.694089
419.704258
417.685219
415.635784
413.554324
411.438683
409.286081
407.093022
404.855207
402.567462
400.223707
397.816986
395.33959
392.783316
390.139914
387.401763
384.562833
381.61998
378.574604
375.434613
372.21664
368.948354
365.670247
362.436396
359.313891
356.380235
353.718046
351.406758
349.511494
348.062945
347.068364
346.479269
346.196291
346.086591
346.010697
345.866494
345.615871
345.27778
344.894595
344.489086
344.06448
343.612607
343.166625
342.79835
342.506388
342.252359
472.455333
471.35409
470.224278
469.065502
467.877401
466.659647
465.41194
464.134012
462.825622
461.486557
460.116635
458.715703
457.283641
455.820362
454.32582
452.800007
451.242962
449.65477
448.035569
446.385555
444.704977
442.994152
441.253456
439.483331
437.684284
435.856883
434.001756
432.119579
430.21107
428.276975
426.318041
424.334998
422.328523
420.299196
418.247453
416.17352
414.077344
411.958505
409.816123
407.648752
405.454271
403.22978
400.971506
398.674735
396.333796
393.942123
391.492438
388.977132
386.388896
383.721531
380.971082
378.137339
375.225645
372.248877
369.229336
366.200413
363.207528
360.30815
357.570065
355.067499
352.874844
351.058211
349.663547
348.71571
348.194188
348.096013
348.277424
348.601242
348.923256
349.157764
349.275427
349.335482
349.389166
349.413705
349.477296
349.503666
349.427976
349.388407
349.476787
349.588942
472.414347
471.230218
470.015326
468.769216
467.49147
466.181707
464.839582
463.464786
462.057045
460.616124
459.14183
457.634012
456.092567
454.517444
452.908654
451.266267
449.590427
447.881354
446.139353
444.364819
442.558247
440.720235
438.851488
436.952827
435.025188
433.069624
431.0873
429.079489
427.047561
424.992966
422.917212
420.821832
418.708348
416.578216
414.432768
412.273136
410.100163
407.914304
405.715511
403.503113
401.275692
399.030999
396.765859
394.476117
392.156648
389.801483
387.404056
384.957657
382.456115
379.894818
377.272024
374.590473
371.859187
369.09531
366.32579
363.588515
360.932547
358.417082
356.108487
354.075454
352.38251
351.08238
350.207772
349.766532
349.766313
350.139676
350.743999
351.471088
352.216222
352.909661
353.531242
354.096808
354.627114
355.130932
355.604558
356.053071
356.478899
356.861166
357.213962
357.5488
472.370608
471.098023
469.792318
468.452965
467.079474
465.671395
464.228322
462.749893
461.235791
459.68575
458.099559
456.47707
454.818202
453.122949
451.391392
449.623706
447.820168
445.981175
444.107245
442.199036
440.257352
438.283154
436.277569
434.241899
432.177622
430.086397
427.970063
425.830629
423.670264
421.491278
419.296089
417.087188
414.86709
412.638264
410.403067
408.163658
405.921889
403.679181
401.436386
399.193647
396.950253
394.704527
392.453733
390.19407
387.920756
385.628232
383.310538
380.961923
378.577585
376.154842
373.694522
371.202566
368.691735
366.18324
363.70809
361.307379
359.031581
356.938211
355.087965
353.53942
352.343477
351.530183
351.12499
351.144362
351.556648
352.255616
353.163565
354.192842
355.260682
356.305256
357.293884
358.227322
359.116293
359.965035
360.757645
361.501135
362.209221
362.868321
363.471782
364.018464
472.325987
470.963157
469.564793
468.130278
466.65904
465.150551
463.604334
462.019963
460.397072
458.73536
457.034601
455.294649
453.515452
451.697064
449.839657
447.943532
446.009137
444.03708
442.028146
439.983311
437.903755
435.790879
433.646316
431.471941
429.269878
427.042504
424.79245
422.522587
420.236015
417.936031
415.626096
413.309782
410.990706
408.672453
406.358462
404.051931
401.755678
399.472012
397.202593
394.948284
392.709031
390.483749
388.270248
386.065266
383.864607
381.663439
379.456795
377.240251
375.010829
372.768121
370.515635
368.262226
366.023489