/*--------------------------------*- C++ -*----------------------------------*\
  =========                 |
  \\      /  F ield         | OpenFOAM: The Open Source CFD Toolbox
   \\    /   O peration     | Website:  https://openfoam.org
    \\  /    A nd           | Version:  8
     \\/     M anipulation  |
\*---------------------------------------------------------------------------*/
FoamFile
{
    version     2.0;
    format      ascii;
    class       volScalarField;
    location    "0.071";
    object      p;
}
// * * * * * * * * * * * * * * * * * * * * * * * * * * * * * * * * * * * * * //

dimensions      [1 -1 -2 0 0 0 0];

internalField   nonuniform List<scalar> 
42400
(
101640.261
101640.247
101640.232
101640.218
101640.205
101640.192
101640.18
101640.169
101640.158
101640.149
101640.14
101640.132
101640.124
101640.118
101640.112
101640.108
101640.104
101640.1
101640.098
101640.096
101640.094
101640.093
101640.093
101640.093
101640.093
101640.093
101640.094
101640.094
101640.095
101640.095
101640.095
101640.094
101640.093
101640.091
101640.088
101640.085
101640.08
101640.075
101640.079
101640.093
101640.111
101640.132
101640.128
101640.093
101640.054
101640.029
101640.024
101640.022
101640.021
101640.021
101640.024
101640.027
101640.022
101640.015
101640.036
101640.096
101640.146
101640.157
101640.161
101640.198
101640.271
101640.351
101640.422
101640.502
101640.606
101640.739
101640.909
101641.191
101641.391
101641.482
101642.301
101642.628
101641.774
101643.238
101646.515
101646.464
101644.73
101644.437
101645.518
101645.321
101640.416
101640.405
101640.392
101640.381
101640.37
101640.36
101640.35
101640.341
101640.332
101640.325
101640.318
101640.311
101640.306
101640.301
101640.297
101640.294
101640.291
101640.289
101640.288
101640.288
101640.288
101640.288
101640.289
101640.29
101640.292
101640.294
101640.296
101640.298
101640.3
101640.302
101640.304
101640.305
101640.306
101640.306
101640.306
101640.312
101640.327
101640.345
101640.357
101640.346
101640.32
101640.291
101640.276
101640.275
101640.275
101640.274
101640.273
101640.27
101640.264
101640.249
101640.259
101640.308
101640.355
101640.35
101640.326
101640.335
101640.374
101640.419
101640.46
101640.504
101640.558
101640.629
101640.72
101640.828
101640.961
101641.137
101641.352
101641.805
101642.32
101642.475
101643.157
101644.333
101644.319
101644.95
101647.036
101648.586
101650.02
101652.378
101655.404
101657.837
101640.478
101640.469
101640.459
101640.45
101640.442
101640.434
101640.426
101640.42
101640.414
101640.408
101640.403
101640.399
101640.396
101640.393
101640.392
101640.391
101640.391
101640.391
101640.393
101640.395
101640.398
101640.401
101640.405
101640.41
101640.415
101640.421
101640.427
101640.433
101640.44
101640.447
101640.453
101640.459
101640.469
101640.485
101640.504
101640.518
101640.518
101640.507
101640.494
101640.492
101640.501
101640.509
101640.516
101640.523
101640.526
101640.522
101640.533
101640.565
101640.616
101640.635
101640.611
101640.61
101640.64
101640.678
101640.706
101640.734
101640.766
101640.811
101640.87
101640.941
101641.023
101641.119
101641.246
101641.413
101641.624
101641.911
101642.216
101642.806
101643.664
101644.395
101645.13
101645.965
101646.831
101648.418
101650.958
101653.285
101655.267
101657.257
101660.229
101664.162
101640.468
101640.46
101640.453
101640.445
101640.439
101640.433
101640.427
101640.423
101640.419
101640.416
101640.414
101640.412
101640.412
101640.413
101640.414
101640.417
101640.42
101640.425
101640.431
101640.437
101640.445
101640.454
101640.464
101640.475
101640.486
101640.499
101640.512
101640.527
101640.543
101640.561
101640.582
101640.605
101640.623
101640.634
101640.642
101640.65
101640.665
101640.687
101640.708
101640.728
101640.748
101640.766
101640.775
101640.802
101640.86
101640.898
101640.889
101640.887
101640.91
101640.95
101640.982
101641.01
101641.039
101641.074
101641.117
101641.168
101641.227
101641.297
101641.383
101641.493
101641.642
101641.832
101642.072
101642.363
101642.681
101643.108
101643.474
101644.081
101644.665
101645.613
101647.838
101650.867
101652.939
101654.03
101654.771
101655.825
101658.453
101660.981
101663.079
101664.753
101640.393
101640.387
101640.38
101640.374
101640.368
101640.364
101640.36
101640.357
101640.355
101640.354
101640.354
101640.356
101640.359
101640.363
101640.368
101640.375
101640.383
101640.393
101640.404
101640.417
101640.431
101640.447
101640.464
101640.482
101640.502
101640.523
101640.547
101640.573
101640.598
101640.624
101640.65
101640.676
101640.706
101640.739
101640.773
101640.807
101640.841
101640.875
101640.907
101640.933
101640.974
101641.041
101641.083
101641.091
101641.117
101641.161
101641.204
101641.24
101641.275
101641.313
101641.354
101641.397
101641.445
101641.498
101641.56
101641.637
101641.732
101641.852
101642.015
101642.229
101642.504
101642.837
101643.245
101643.734
101644.226
101644.897
101645.462
101646.282
101649.041
101651.308
101651.874
101652.01
101653.115
101654.927
101656.684
101659.139
101660.657
101662.224
101664.17
101665.611
101640.229
101640.223
101640.216
101640.21
101640.205
101640.202
101640.199
101640.198
101640.198
101640.199
101640.202
101640.207
101640.213
101640.221
101640.231
101640.243
101640.257
101640.273
101640.291
101640.309
101640.329
101640.352
101640.377
101640.407
101640.439
101640.473
101640.508
101640.546
101640.585
101640.627
101640.669
101640.713
101640.758
101640.804
101640.852
101640.899
101640.94
101640.994
101641.072
101641.126
101641.152
101641.196
101641.255
101641.31
101641.361
101641.411
101641.461
101641.512
101641.564
101641.617
101641.676
101641.742
101641.818
101641.908
101642.015
101642.147
101642.32
101642.537
101642.816
101643.161
101643.606
101644.13
101644.799
101645.523
101646.19
101647.233
101649.681
101651.522
101651.767
101652.28
101653.116
101654.093
101656.16
101658.187
101659.467
101660.613
101661.811
101663.001
101664.693
101666.34
101639.949
101639.942
101639.935
101639.929
101639.925
101639.923
101639.921
101639.922
101639.923
101639.928
101639.934
101639.942
101639.952
101639.964
101639.979
101639.996
101640.015
101640.036
101640.061
101640.09
101640.123
101640.158
101640.195
101640.235
101640.277
101640.321
101640.368
101640.417
101640.469
101640.523
101640.579
101640.637
101640.696
101640.751
101640.816
101640.904
101640.97
101641.014
101641.076
101641.151
101641.22
101641.287
101641.353
101641.419
101641.485
101641.552
101641.621
101641.694
101641.773
101641.858
101641.954
101642.062
101642.187
101642.335
101642.52
101642.746
101643.026
101643.357
101643.773
101644.232
101644.774
101645.2
101645.88
101647.609
101649.722
101651.046
101651.394
101651.796
101652.492
101653.711
101655.485
101657.071
101658.427
101659.6
101660.748
101662.058
101663.56
101665.012
101666.641
101667.849
101639.497
101639.49
101639.483
101639.478
101639.475
101639.474
101639.475
101639.478
101639.482
101639.489
101639.499
101639.511
101639.526
101639.544
101639.564
101639.588
101639.616
101639.647
101639.681
101639.717
101639.757
101639.801
101639.847
101639.897
101639.95
101640.006
101640.065
101640.127
101640.192
101640.259
101640.324
101640.398
101640.492
101640.569
101640.627
101640.704
101640.792
101640.874
101640.955
101641.037
101641.119
101641.202
101641.287
101641.375
101641.466
101641.561
101641.664
101641.775
101641.898
101642.035
101642.189
101642.366
101642.575
101642.823
101643.111
101643.452
101643.852
101644.32
101644.841
101645.396
101646.399
101648.421
101650.008
101650.235
101650.451
101651.142
101652.052
101653.514
101655.316
101656.962
101657.697
101658.491
101659.557
101660.691
101662.194
101663.68
101665.28
101666.857
101668.801
101670.287
101638.829
101638.823
101638.818
101638.814
101638.813
101638.814
101638.818
101638.824
101638.832
101638.844
101638.859
101638.876
101638.897
101638.921
101638.949
101638.98
101639.015
101639.053
101639.096
101639.142
101639.191
101639.245
101639.302
101639.363
101639.428
101639.496
101639.564
101639.635
101639.715
101639.811
101639.895
101639.965
101640.051
101640.148
101640.24
101640.333
101640.427
101640.523
101640.621
101640.721
101640.824
101640.931
101641.044
101641.163
101641.29
101641.429
101641.582
101641.753
101641.944
101642.162
101642.414
101642.708
101643.044
101643.433
101643.868
101644.357
101644.873
101645.517
101646.786
101648.521
101649.632
101649.964
101650.27
101650.881
101652.034
101653.335
101654.739
101655.886
101656.624
101657.365
101658.575
101659.926
101661.262
101662.765
101664.24
101665.726
101667.275
101668.755
101670.469
101672.058
101637.882
101637.878
101637.875
101637.874
101637.876
101637.881
101637.889
101637.9
101637.915
101637.932
101637.953
101637.977
101638.005
101638.037
101638.073
101638.113
101638.157
101638.205
101638.257
101638.314
101638.375
101638.44
101638.508
101638.577
101638.654
101638.744
101638.836
101638.914
101638.996
101639.089
101639.191
101639.29
101639.391
101639.494
101639.6
101639.708
101639.82
101639.934
101640.053
101640.177
101640.308
101640.448
101640.598
101640.762
101640.943
101641.143
101641.368
101641.62
101641.908
101642.24
101642.619
101643.05
101643.538
101644.089
101644.711
101645.387
101646.478
101647.972
101648.576
101648.78
101649.353
101650.315
101651.518
101652.555
101653.683
101654.902
101656.003
101657.138
101658.257
101659.465
101660.75
101662.115
101663.531
101664.954
101666.378
101667.813
101669.32
101670.795
101672.274
101673.645
101636.621
101636.62
101636.621
101636.625
101636.632
101636.642
101636.655
101636.672
101636.692
101636.716
101636.745
101636.777
101636.814
101636.855
101636.9
101636.95
101637.004
101637.063
101637.127
101637.194
101637.264
101637.342
101637.431
101637.517
101637.598
101637.69
101637.791
101637.893
101637.996
101638.103
101638.212
101638.325
101638.44
101638.559
101638.682
101638.81
101638.943
101639.083
101639.231
101639.389
101639.561
101639.748
101639.954
101640.184
101640.441
101640.73
101641.057
101641.427
101641.846
101642.321
101642.854
101643.453
101644.098
101644.807
101645.614
101646.879
101648.059
101648.539
101648.976
101649.806
101650.868
101652.013
101653.247
101654.458
101655.67
101656.935
101658.427
101659.554
101660.569
101661.881
101663.166
101664.458
101665.75
101667.135
101668.599
101670.016
101671.613
101673.372
101675.032
101676.806
101634.984
101634.987
101634.994
101635.004
101635.017
101635.034
101635.054
101635.079
101635.108
101635.141
101635.179
101635.222
101635.269
101635.321
101635.378
101635.439
101635.506
101635.576
101635.653
101635.74
101635.826
101635.91
101636.004
101636.105
101636.209
101636.316
101636.427
101636.541
101636.66
101636.781
101636.907
101637.037
101637.172
101637.312
101637.459
101637.614
101637.779
101637.956
101638.148
101638.358
101638.589
101638.846
101639.132
101639.453
101639.813
101640.216
101640.67
101641.176
101641.737
101642.362
101643.063
101643.823
101644.528
101645.578
101647.018
101647.887
101648.384
101649.177
101650.265
101651.481
101652.863
101654.333
101655.382
101656.245
101657.299
101658.345
101659.394
101660.623
101662.089
101663.493
101664.903
101666.35
101667.75
101669.134
101670.512
101671.823
101673.752
101676.187
101678.442
101680.576
101632.925
101632.935
101632.949
101632.966
101632.987
101633.013
101633.043
101633.077
101633.116
101633.161
101633.21
101633.264
101633.323
101633.388
101633.457
101633.532
101633.617
101633.702
101633.788
101633.884
101633.986
101634.091
101634.201
101634.315
101634.433
101634.556
101634.683
101634.814
101634.951
101635.092
101635.24
101635.395
101635.558
101635.731
101635.916
101636.115
101636.332
101636.569
101636.83
101637.119
101637.44
101637.796
101638.191
101638.628
101639.11
101639.634
101640.204
101640.812
101641.422
101642.048
101643.058
101644.467
101645.845
101646.894
101647.429
101648.206
101649.472
101650.829
101652.004
101652.92
101653.65
101654.293
101654.939
101655.915
101657.048
101658.456
101659.99
101661.449
101663.132
101664.927
101666.683
101668.536
101670.424
101672.122
101673.975
101675.931
101677.645
101678.831
101679.746
101681.062
101630.384
101630.402
101630.426
101630.453
101630.484
101630.52
101630.561
101630.608
101630.659
101630.715
101630.777
101630.845
101630.918
101631
101631.084
101631.171
101631.266
101631.368
101631.474
101631.585
101631.701
101631.822
101631.948
101632.079
101632.215
101632.356
101632.503
101632.657
101632.819
101632.989
101633.169
101633.362
101633.569
101633.794
101634.039
101634.31
101634.609
101634.94
101635.31
101635.722
101636.18
101636.69
101637.256
101637.882
101638.571
101639.332
101640.171
101641.112
101642.042
101643.392
101644.481
101645.064
101645.727
101646.589
101647.679
101648.895
101650.002
101650.82
101651.856
101653.146
101654.378
101655.677
101657.083
101658.816
101660.767
101662.08
101663.276
101664.647
101665.822
101667.056
101668.414
101669.797
101671.493
101673.461
101675.481
101677.45
101678.732
101680.833
101683.096
101684.76
101627.316
101627.344
101627.379
101627.418
101627.461
101627.51
101627.564
101627.623
101627.688
101627.76
101627.836
101627.918
101628.006
101628.1
101628.2
101628.306
101628.417
101628.533
101628.655
101628.783
101628.916
101629.055
101629.199
101629.351
101629.509
101629.675
101629.85
101630.035
101630.232
101630.444
101630.673
101630.921
101631.194
101631.494
101631.825
101632.193
101632.601
101633.054
101633.555
101634.11
101634.719
101635.386
101636.109
101636.888
101637.697
101638.551
101639.436
101640.648
101642.237
101643.16
101644.13
101645.34
101646.362
101647.466
101648.457
101649.463
101650.818
101652.158
101653.149
101654.363
101655.988
101657.499
101659.003
101660.401
101661.841
101663.579
101665.097
101666.382
101667.665
101669.056
101670.477
101671.763
101673.108
101674.937
101677.471
101679.473
101680.983
101682.738
101684.765
101686.36
101623.681
101623.721
101623.77
101623.822
101623.88
101623.942
101624.011
101624.085
101624.165
101624.251
101624.343
101624.441
101624.544
101624.654
101624.769
101624.891
101625.018
101625.151
101625.291
101625.436
101625.589
101625.749
101625.916
101626.093
101626.28
101626.479
101626.691
101626.92
101627.169
101627.439
101627.735
101628.061
101628.421
101628.818
101629.258
101629.744
101630.281
101630.87
101631.515
101632.22
101632.982
101633.812
101634.698
101635.647
101636.641
101637.954
101639.719
101640.896
101641.611
101642.658
101643.862
101644.882
101646.183
101647.674
101649.304
101650.97
101652.08
101653.099
101654.364
101655.659
101656.998
101658.51
101660.147
101661.501
101662.732
101664.077
101665.614
101667.379
101669.07
101670.777
101672.568
101674.128
101675.794
101678.247
101680.159
101681.603
101683.211
101684.663
101686.877
101688.701
101619.463
101619.517
101619.582
101619.65
101619.723
101619.801
101619.885
101619.976
101620.071
101620.173
101620.281
101620.396
101620.516
101620.643
101620.776
101620.915
101621.062
101621.216
101621.378
101621.548
101621.728
101621.919
101622.123
101622.341
101622.576
101622.831
101623.11
101623.414
101623.75
101624.121
101624.531
101624.986
101625.489
101626.044
101626.656
101627.325
101628.055
101628.845
101629.693
101630.595
101631.528
101632.506
101633.626
101635.093
101636.859
101638.282
101639.414
101640.783
101642.132
101643.17
101644.053
101645.353
101646.884
101647.984
101648.949
101649.944
101651.15
101652.812
101654.478
101656.043
101657.482
101658.768
101660.337
101662.399
101664.258
101666.138
101668.333
101670.078
101671.511
101673.017
101674.854
101677.049
101678.648
101679.789
101681.874
101684.113
101685.551
101687.133
101688.949
101691.898
101614.687
101614.756
101614.838
101614.923
101615.012
101615.107
101615.208
101615.315
101615.427
101615.546
101615.672
101615.803
101615.942
101616.088
101616.241
101616.403
101616.574
101616.754
101616.946
101617.151
101617.371
101617.607
101617.864
101618.143
101618.449
101618.786
101619.157
101619.568
101620.023
101620.527
101621.083
101621.697
101622.37
101623.106
101623.906
101624.77
101625.696
101626.682
101627.724
101628.81
101629.903
101631.36
101633.175
101634.568
101635.612
101636.725
101637.947
101638.981
101640.149
101641.978
101643.8
101645.188
101646.463
101647.756
101649.267
101650.99
101652.751
101654.468
101656.197
101658.12
101660.166
101662.42
101664.322
101665.569
101666.923
101668.224
101668.942
101670.301
101672.855
101675.227
101677.34
101679.36
101681.764
101683.888
101685.076
101686.314
101688.725
101690.342
101691.34
101693.158
101609.384
101609.47
101609.57
101609.672
101609.777
101609.888
101610.005
101610.127
101610.256
101610.392
101610.534
101610.683
101610.841
101611.007
101611.184
101611.371
101611.572
101611.787
101612.019
101612.27
101612.545
101612.847
101613.179
101613.547
101613.955
101614.409
101614.914
101615.476
101616.101
101616.792
101617.555
101618.393
101619.31
101620.307
101621.385
101622.545
101623.786
101625.104
101626.497
101627.954
101629.545
101630.938
101632.128
101633.256
101634.295
101635.314
101636.642
101638.46
101640.345
101641.881
101643.406
101645.335
101647.548
101650.265
101652.18
101653.487
101654.84
101656.371
101657.853
101659.301
101660.796
101662.316
101664.277
101666.735
101668.808
101670.453
101672.319
101674.769
101676.547
101678.172
101680.131
101681.931
101683.593
101685.252
101686.952
101689.033
101690.686
101692.394
101694.979
101696.238
101603.694
101603.795
101603.913
101604.031
101604.151
101604.277
101604.408
101604.545
101604.689
101604.839
101604.998
101605.165
101605.343
101605.532
101605.734
101605.953
101606.189
101606.447
101606.73
101607.042
101607.387
101607.77
101608.196
101608.672
101609.202
101609.792
101610.447
101611.172
101611.971
101612.847
101613.803
101614.839
101615.955
101617.147
101618.402
101619.744
101621.155
101622.583
101624.034
101625.449
101626.802
101628.727
101630.8
101632.538
101634.362
101636.187
101637.726
101639.13
101640.61
101642.087
101643.522
101644.896
101646.684
101648.981
101651.143
101653.237
101655.455
101657.174
101658.582
101660.208
101661.915
101663.577
101665.615
101668.249
101670.521
101672.174
101673.604
101675.531
101678.389
101680.364
101681.953
101683.867
101685.991
101688.188
101689.814
101691.899
101694.55
101696.884
101698.38
101698.512
101601.33
101601.331
101601.332
101601.332
101601.331
101601.329
101601.327
101601.324
101601.321
101601.316
101601.311
101601.305
101601.298
101601.29
101601.282
101601.272
101601.261
101601.249
101601.236
101601.221
101601.206
101601.189
101601.17
101601.15
101601.129
101601.106
101601.081
101601.055
101601.027
101600.997
101600.965
101600.931
101600.895
101600.858
101600.818
101600.776
101600.732
101600.685
101600.635
101600.584
101600.531
101600.476
101600.419
101600.36
101600.299
101600.236
101600.172
101600.105
101600.037
101599.967
101599.895
101599.82
101599.742
101599.66
101599.572
101599.474
101599.361
101599.229
101599.068
101598.871
101598.625
101598.317
101597.93
101597.45
101596.861
101596.155
101595.325
101594.376
101593.317
101592.167
101590.948
101589.664
101588.293
101586.792
101585.071
101583.087
101580.882
101578.485
101575.788
101572.886
101604.397
101604.397
101604.398
101604.398
101604.398
101604.398
101604.397
101604.397
101604.396
101604.394
101604.393
101604.391
101604.388
101604.385
101604.382
101604.379
101604.374
101604.37
101604.365
101604.359
101604.353
101604.346
101604.338
101604.33
101604.322
101604.312
101604.302
101604.291
101604.279
101604.267
101604.254
101604.24
101604.225
101604.209
101604.193
101604.177
101604.16
101604.142
101604.123
101604.103
101604.084
101604.065
101604.047
101604.028
101604.011
101603.994
101603.978
101603.964
101603.951
101603.94
101603.931
101603.924
101603.918
101603.915
101603.912
101603.909
101603.903
101603.891
101603.867
101603.825
101603.755
101603.646
101603.483
101603.25
101602.933
101602.517
101601.995
101601.36
101600.619
101599.783
101598.868
101597.879
101596.798
101595.589
101594.221
101592.69
101590.976
101589.041
101586.978
101585.291
101607.516
101607.517
101607.517
101607.518
101607.519
101607.52
101607.521
101607.522
101607.523
101607.525
101607.527
101607.529
101607.531
101607.533
101607.535
101607.537
101607.54
101607.542
101607.545
101607.547
101607.55
101607.553
101607.556
101607.559
101607.562
101607.565
101607.569
101607.572
101607.576
101607.58
101607.584
101607.589
101607.594
101607.599
101607.605
101607.612
101607.619
101607.628
101607.638
101607.648
101607.659
101607.674
101607.69
101607.709
101607.73
101607.754
101607.782
101607.814
101607.85
101607.891
101607.937
101607.988
101608.046
101608.109
101608.178
101608.252
101608.331
101608.413
101608.496
101608.576
101608.647
101608.699
101608.722
101608.702
101608.624
101608.468
101608.216
101607.861
101607.407
101606.867
101606.258
101605.592
101604.863
101604.046
101603.135
101602.096
101600.923
101599.636
101598.386
101597.54
101610.636
101610.636
101610.637
101610.638
101610.64
101610.642
101610.644
101610.648
101610.651
101610.656
101610.66
101610.666
101610.672
101610.678
101610.686
101610.693
101610.702
101610.711
101610.72
101610.73
101610.741
101610.753
101610.765
101610.778
101610.792
101610.807
101610.822
101610.839
101610.856
101610.875
101610.894
101610.915
101610.938
101610.962
101610.987
101611.014
101611.044
101611.075
101611.109
101611.146
101611.184
101611.225
101611.271
101611.321
101611.374
101611.433
101611.497
101611.566
101611.642
101611.725
101611.815
101611.913
101612.019
101612.133
101612.257
101612.389
101612.529
101612.677
101612.836
101613.003
101613.172
101613.338
101613.496
101613.639
101613.752
101613.821
101613.834
101613.778
101613.645
101613.423
101613.12
101612.76
101612.355
101611.884
101611.344
101610.766
101610.175
101609.42
101608.509
101608.397
101613.704
101613.705
101613.705
101613.707
101613.709
101613.712
101613.716
101613.721
101613.727
101613.734
101613.741
101613.75
101613.759
101613.77
101613.781
101613.793
101613.807
101613.821
101613.837
101613.853
101613.871
101613.89
101613.91
101613.932
101613.955
101613.979
101614.005
101614.032
101614.062
101614.092
101614.125
101614.16
101614.197
101614.236
101614.278
101614.322
101614.369
101614.419
101614.472
101614.529
101614.59
101614.656
101614.726
101614.801
101614.881
101614.968
101615.06
101615.16
101615.267
101615.381
101615.504
101615.636
101615.778
101615.93
101616.093
101616.268
101616.453
101616.648
101616.862
101617.092
101617.327
101617.568
101617.812
101618.056
101618.293
101618.517
101618.725
101618.908
101619.047
101619.125
101619.142
101619.102
101619.006
101618.851
101618.638
101618.389
101618.137
101617.912
101617.739
101617.72
101616.68
101616.681
101616.681
101616.683
101616.686
101616.69
101616.695
101616.701
101616.709
101616.717
101616.727
101616.738
101616.75
101616.764
101616.779
101616.795
101616.812
101616.831
101616.852
101616.873
101616.897
101616.922
101616.948
101616.977
101617.007
101617.039
101617.073
101617.109
101617.147
101617.188
101617.231
101617.276
101617.324
101617.375
101617.429
101617.487
101617.547
101617.611
101617.68
101617.753
101617.833
101617.917
101618.006
101618.1
101618.2
101618.307
101618.421
101618.542
101618.671
101618.81
101618.957
101619.115
101619.283
101619.463
101619.654
101619.858
101620.075
101620.305
101620.544
101620.802
101621.074
101621.352
101621.641
101621.945
101622.26
101622.586
101622.918
101623.244
101623.554
101623.85
101624.134
101624.384
101624.584
101624.707
101624.8
101624.888
101625.014
101625.109
101625.178
101625.109
101619.528
101619.528
101619.529
101619.531
101619.535
101619.539
101619.545
101619.552
101619.561
101619.571
101619.582
101619.595
101619.609
101619.625
101619.643
101619.661
101619.682
101619.704
101619.728
101619.754
101619.781
101619.81
101619.842
101619.875
101619.911
101619.948
101619.988
101620.031
101620.076
101620.123
101620.173
101620.227
101620.283
101620.342
101620.406
101620.472
101620.543
101620.619
101620.7
101620.786
101620.876
101620.971
101621.071
101621.177
101621.289
101621.409
101621.536
101621.672
101621.816
101621.969
101622.132
101622.305
101622.49
101622.687
101622.896
101623.119
101623.357
101623.611
101623.883
101624.171
101624.471
101624.787
101625.121
101625.469
101625.828
101626.195
101626.566
101626.948
101627.353
101627.781
101628.232
101628.71
101629.112
101629.433
101629.738
101630.05
101630.389
101630.938
101631.69
101632.17
101622.222
101622.222
101622.223
101622.225
101622.228
101622.233
101622.24
101622.247
101622.257
101622.267
101622.28
101622.294
101622.309
101622.327
101622.345
101622.366
101622.389
101622.413
101622.439
101622.467
101622.497
101622.529
101622.564
101622.6
101622.639
101622.68
101622.724
101622.77
101622.82
101622.872
101622.927
101622.985
101623.047
101623.112
101623.181
101623.255
101623.332
101623.415
101623.501
101623.592
101623.688
101623.788
101623.894
101624.007
101624.126
101624.253
101624.387
101624.529
101624.68
101624.841
101625.011
101625.192
101625.384
101625.589
101625.807
101626.039
101626.285
101626.549
101626.831
101627.127
101627.441
101627.777
101628.136
101628.518
101628.926
101629.362
101629.821
101630.295
101630.772
101631.24
101631.678
101632.1
101632.575
101633.135
101633.79
101634.348
101634.814
101635.433
101636.177
101636.83
101624.743
101624.743
101624.743
101624.745
101624.749
101624.754
101624.76
101624.768
101624.777
101624.788
101624.801
101624.815
101624.831
101624.849
101624.869
101624.89
101624.913
101624.938
101624.965
101624.995
101625.026
101625.059
101625.095
101625.133
101625.173
101625.216
101625.262
101625.31
101625.362
101625.416
101625.473
101625.533
101625.597
101625.665
101625.737
101625.813
101625.892
101625.976
101626.063
101626.154
101626.251
101626.353
101626.461
101626.575
101626.696
101626.824
101626.96
101627.104
101627.257
101627.419
101627.591
101627.773
101627.965
101628.17
101628.387
101628.62
101628.87
101629.137
101629.417
101629.713
101630.029
101630.368
101630.727
101631.111
101631.519
101631.956
101632.418
101632.91
101633.438
101634.012
101634.641
101635.283
101635.88
101636.448
101636.971
101637.557
101638.435
101639.571
101640.503
101641.081
101627.08
101627.079
101627.079
101627.08
101627.083
101627.087
101627.093
101627.101
101627.11
101627.12
101627.132
101627.146
101627.162
101627.18
101627.199
101627.22
101627.243
101627.268
101627.295
101627.325
101627.356
101627.389
101627.425
101627.463
101627.503
101627.546
101627.591
101627.639
101627.69
101627.744
101627.801
101627.861
101627.924
101627.99
101628.06
101628.133
101628.21
101628.291
101628.376
101628.466
101628.561
101628.662
101628.768
101628.88
101629
101629.126
101629.259
101629.398
101629.544
101629.699
101629.867
101630.047
101630.238
101630.442
101630.657
101630.885
101631.128
101631.384
101631.654
101631.942
101632.25
101632.578
101632.93
101633.307
101633.72
101634.153
101634.614
101635.141
101635.729
101636.361
101637.022
101637.689
101638.404
101639.213
101640.134
101641.078
101641.946
101642.733
101643.757
101644.89
101629.23
101629.228
101629.227
101629.227
101629.229
101629.232
101629.237
101629.243
101629.251
101629.261
101629.272
101629.285
101629.299
101629.315
101629.333
101629.353
101629.375
101629.398
101629.424
101629.451
101629.481
101629.513
101629.546
101629.582
101629.621
101629.661
101629.704
101629.75
101629.798
101629.849
101629.902
101629.958
101630.018
101630.08
101630.146
101630.216
101630.289
101630.366
101630.447
101630.533
101630.625
101630.721
101630.821
101630.925
101631.033
101631.148
101631.275
101631.412
101631.559
101631.713
101631.873
101632.04
101632.219
101632.413
101632.618
101632.833
101633.061
101633.305
101633.565
101633.842
101634.139
101634.456
101634.795
101635.163
101635.564
101636.016
101636.525
101637.043
101637.568
101638.141
101638.76
101639.507
101640.39
101641.333
101642.278
101643.204
101644.183
101645.336
101646.719
101647.846
101631.185
101631.182
101631.18
101631.178
101631.179
101631.18
101631.183
101631.188
101631.194
101631.202
101631.211
101631.222
101631.234
101631.248
101631.264
101631.282
101631.301
101631.322
101631.345
101631.37
101631.397
101631.426
101631.456
101631.489
101631.524
101631.561
101631.601
101631.642
101631.687
101631.733
101631.782
101631.834
101631.889
101631.946
101632.007
101632.071
101632.139
101632.211
101632.285
101632.36
101632.439
101632.522
101632.616
101632.719
101632.826
101632.939
101633.054
101633.175
101633.307
101633.448
101633.594
101633.75
101633.917
101634.094
101634.283
101634.485
101634.7
101634.931
101635.177
101635.441
101635.725
101636.029
101636.355
101636.707
101637.085
101637.497
101637.947
101638.461
101639.062
101639.727
101640.437
101641.152
101641.878
101642.652
101643.591
101644.723
101645.943
101647.23
101648.558
101649.684
101632.953
101632.948
101632.943
101632.939
101632.938
101632.937
101632.938
101632.94
101632.944
101632.949
101632.956
101632.964
101632.974
101632.985
101632.998
101633.013
101633.029
101633.047
101633.067
101633.088
101633.112
101633.137
101633.164
101633.193
101633.223
101633.256
101633.291
101633.328
101633.367
101633.409
101633.452
101633.5
101633.55
101633.601
101633.653
101633.707
101633.764
101633.823
101633.89
101633.964
101634.04
101634.119
101634.202
101634.289
101634.38
101634.476
101634.579
101634.689
101634.804
101634.928
101635.06
101635.201
101635.352
101635.514
101635.688
101635.873
101636.073
101636.286
101636.515
101636.761
101637.025
101637.309
101637.614
101637.944
101638.299
101638.685
101639.104
101639.562
101640.057
101640.598
101641.261
101642.082
101643.017
101644.019
101644.977
101645.906
101646.926
101647.996
101649.237
101650.483
101634.531
101634.524
101634.516
101634.51
101634.506
101634.502
101634.5
101634.5
101634.501
101634.503
101634.506
101634.511
101634.518
101634.526
101634.536
101634.547
101634.559
101634.574
101634.59
101634.607
101634.627
101634.648
101634.671
101634.696
101634.722
101634.751
101634.782
101634.814
101634.847
101634.882
101634.918
101634.956
101634.995
101635.037
101635.084
101635.135
101635.187
101635.242
101635.297
101635.354
101635.415
101635.481
101635.549
101635.622
101635.699
101635.782
101635.87
101635.964
101636.064
101636.172
101636.287
101636.411