/*--------------------------------*- C++ -*----------------------------------*\
  =========                 |
  \\      /  F ield         | OpenFOAM: The Open Source CFD Toolbox
   \\    /   O peration     | Website:  https://openfoam.org
    \\  /    A nd           | Version:  8
     \\/     M anipulation  |
\*---------------------------------------------------------------------------*/
FoamFile
{
    version     2.0;
    format      ascii;
    class       volScalarField;
    location    "0.071";
    object      p_rgh;
}
// * * * * * * * * * * * * * * * * * * * * * * * * * * * * * * * * * * * * * //

dimensions      [1 -1 -2 0 0 0 0];

internalField   nonuniform List<scalar> 
42400
(
101640.112
101640.098
101640.082
101640.068
101640.055
101640.042
101640.03
101640.019
101640.009
101639.999
101639.991
101639.983
101639.976
101639.97
101639.964
101639.96
101639.956
101639.953
101639.951
101639.949
101639.948
101639.947
101639.947
101639.948
101639.948
101639.949
101639.95
101639.951
101639.952
101639.952
101639.953
101639.953
101639.952
101639.951
101639.949
101639.946
101639.941
101639.937
101639.941
101639.955
101639.974
101639.995
101639.992
101639.957
101639.918
101639.893
101639.887
101639.886
101639.884
101639.884
101639.886
101639.888
101639.882
101639.877
101639.9
101639.96
101640.009
101640.019
101640.02
101640.056
101640.127
101640.206
101640.276
101640.355
101640.459
101640.592
101640.767
101641.037
101641.215
101641.373
101642.173
101642.339
101641.798
101643.592
101646.419
101646.094
101644.72
101645.072
101646.978
101648.012
101640.229
101640.218
101640.205
101640.194
101640.183
101640.173
101640.163
101640.154
101640.146
101640.138
101640.131
101640.125
101640.12
101640.115
101640.112
101640.109
101640.107
101640.105
101640.104
101640.104
101640.104
101640.105
101640.107
101640.108
101640.11
101640.113
101640.115
101640.118
101640.121
101640.123
101640.126
101640.128
101640.129
101640.13
101640.131
101640.138
101640.153
101640.172
101640.184
101640.174
101640.148
101640.12
101640.105
101640.106
101640.106
101640.106
101640.106
101640.103
101640.097
101640.083
101640.093
101640.143
101640.19
101640.182
101640.156
101640.164
101640.205
101640.25
101640.29
101640.334
101640.387
101640.457
101640.548
101640.655
101640.788
101640.964
101641.191
101641.643
101642.098
101642.281
101643.037
101644.041
101644.033
101644.894
101646.824
101648.239
101650.088
101652.83
101655.806
101657.893
101640.253
101640.244
101640.234
101640.225
101640.217
101640.209
101640.202
101640.195
101640.189
101640.184
101640.18
101640.176
101640.173
101640.171
101640.169
101640.169
101640.169
101640.17
101640.172
101640.174
101640.178
101640.182
101640.186
101640.192
101640.197
101640.204
101640.21
101640.217
101640.225
101640.232
101640.239
101640.246
101640.257
101640.273
101640.293
101640.308
101640.309
101640.299
101640.286
101640.285
101640.295
101640.304
101640.312
101640.32
101640.324
101640.321
101640.333
101640.366
101640.418
101640.437
101640.414
101640.414
101640.444
101640.482
101640.511
101640.538
101640.571
101640.615
101640.673
101640.743
101640.824
101640.919
101641.044
101641.208
101641.418
101641.7
101642.014
101642.618
101643.419
101644.1
101644.857
101645.62
101646.384
101648.215
101650.936
101653.138
101654.903
101656.705
101659.734
101663.408
101640.205
101640.198
101640.19
101640.183
101640.177
101640.171
101640.166
101640.161
101640.157
101640.155
101640.153
101640.152
101640.151
101640.152
101640.154
101640.157
101640.161
101640.166
101640.172
101640.18
101640.188
101640.197
101640.208
101640.219
101640.232
101640.245
101640.259
101640.274
101640.291
101640.31
101640.332
101640.356
101640.375
101640.386
101640.396
101640.405
101640.421
101640.444
101640.466
101640.487
101640.508
101640.527
101640.537
101640.565
101640.625
101640.664
101640.656
101640.655
101640.679
101640.719
101640.753
101640.781
101640.811
101640.848
101640.892
101640.942
101641.002
101641.072
101641.158
101641.267
101641.415
101641.603
101641.841
101642.128
101642.449
101642.876
101643.261
101643.909
101644.499
101645.385
101647.605
101650.719
101652.801
101653.613
101654.2
101655.466
101658.146
101660.569
101662.618
101664.262
101640.093
101640.086
101640.079
101640.073
101640.068
101640.064
101640.06
101640.057
101640.055
101640.055
101640.055
101640.057
101640.06
101640.065
101640.07
101640.078
101640.086
101640.097
101640.108
101640.122
101640.137
101640.153
101640.171
101640.19
101640.21
101640.232
101640.257
101640.283
101640.31
101640.337
101640.363
101640.39
101640.421
101640.456
101640.491
101640.526
101640.56
101640.596
101640.629
101640.656
101640.698
101640.767
101640.81
101640.82
101640.846
101640.891
101640.936
101640.973
101641.01
101641.049
101641.091
101641.136
101641.184
101641.238
101641.301
101641.379
101641.474
101641.594
101641.757
101641.969
101642.24
101642.566
101642.966
101643.439
101643.927
101644.592
101645.12
101645.982
101648.794
101651.052
101651.54
101651.706
101652.85
101654.571
101656.431
101658.671
101660.189
101661.794
101663.637
101665.056
101639.89
101639.883
101639.877
101639.871
101639.867
101639.863
101639.861
101639.86
101639.86
101639.862
101639.865
101639.87
101639.877
101639.885
101639.895
101639.908
101639.922
101639.938
101639.957
101639.976
101639.997
101640.02
101640.046
101640.076
101640.109
101640.144
101640.18
101640.218
101640.259
101640.301
101640.345
101640.39
101640.436
101640.483
101640.532
101640.58
101640.623
101640.678
101640.757
101640.813
101640.84
101640.885
101640.946
101641.001
101641.053
101641.105
101641.157
101641.209
101641.261
101641.316
101641.376
101641.443
101641.52
101641.611
101641.718
101641.851
101642.024
101642.241
101642.521
101642.865
101643.306
101643.827
101644.483
101645.188
101645.83
101646.922
101649.408
101651.176
101651.391
101651.886
101652.733
101653.797
101655.756
101657.695
101658.913
101660.054
101661.363
101662.632
101664.269
101665.853
101639.57
101639.563
101639.556
101639.551
101639.547
101639.544
101639.543
101639.543
101639.546
101639.55
101639.556
101639.565
101639.575
101639.588
101639.604
101639.621
101639.64
101639.662
101639.688
101639.717
101639.751
101639.787
101639.825
101639.865
101639.908
101639.953
101640.001
101640.051
101640.103
101640.158
101640.215
101640.275
101640.335
101640.391
101640.458
101640.546
101640.614
101640.659
101640.722
101640.799
101640.87
101640.937
101641.005
101641.072
101641.139
101641.207
101641.277
101641.351
101641.431
101641.517
101641.613
101641.722
101641.847
101641.996
101642.18
101642.407
101642.686
101643.016
101643.433
101643.898
101644.459
101644.916
101645.615
101647.271
101649.333
101650.633
101650.998
101651.419
101652.127
101653.409
101655.102
101656.574
101657.934
101659.137
101660.314
101661.622
101663.054
101664.423
101666.006
101667.259
101639.077
101639.07
101639.064
101639.059
101639.056
101639.055
101639.056
101639.059
101639.063
101639.071
101639.081
101639.093
101639.109
101639.127
101639.148
101639.173
101639.201
101639.233
101639.267
101639.304
101639.345
101639.389
101639.436
101639.486
101639.54
101639.597
101639.657
101639.721
101639.787
101639.855
101639.92
101639.996
101640.091
101640.169
101640.229
101640.307
101640.396
101640.48
101640.562
101640.645
101640.728
101640.813
101640.899
101640.987
101641.079
101641.176
101641.279
101641.391
101641.514
101641.651
101641.805
101641.982
101642.19
101642.437
101642.724
101643.064
101643.463
101643.922
101644.428
101644.932
101645.896
101647.911
101649.475
101649.866
101650.16
101650.766
101651.637
101653.049
101654.742
101656.244
101657.08
101658.048
101659.137
101660.264
101661.704
101663.153
101664.741
101666.297
101668.172
101669.579
101638.367
101638.361
101638.356
101638.352
101638.351
101638.353
101638.356
101638.363
101638.372
101638.384
101638.398
101638.416
101638.438
101638.462
101638.49
101638.522
101638.557
101638.597
101638.64
101638.686
101638.737
101638.791
101638.849
101638.911
101638.977
101639.046
101639.115
101639.187
101639.268
101639.365
101639.45
101639.521
101639.609
101639.706
101639.8
101639.894
101639.99
101640.088
101640.187
101640.288
101640.393
101640.501
101640.614
101640.734
101640.863
101641.003
101641.156
101641.327
101641.519
101641.736
101641.987
101642.279
101642.612
101642.998
101643.429
101643.92
101644.44
101645.105
101646.35
101648.077
101649.193
101649.491
101649.804
101650.4
101651.486
101652.797
101654.179
101655.328
101656.213
101657.073
101658.231
101659.461
101660.723
101662.213
101663.688
101665.173
101666.725
101668.214
101669.95
101671.545
101637.377
101637.373
101637.369
101637.369
101637.371
101637.376
101637.384
101637.396
101637.411
101637.429
101637.45
101637.474
101637.503
101637.535
101637.571
101637.612
101637.656
101637.705
101637.758
101637.815
101637.876
101637.942
101638.011
101638.081
101638.159
101638.25
101638.343
101638.422
101638.505
101638.6
101638.702
101638.803
101638.905
101639.01
101639.117
101639.227
101639.339
101639.455
101639.576
101639.702
101639.834
101639.975
101640.127
101640.293
101640.474
101640.676
101640.902
101641.156
101641.445
101641.776
101642.154
101642.583
101643.066
101643.607
101644.208
101644.876
101646.006
101647.492
101648.162
101648.393
101648.923
101649.871
101651.011
101652.034
101653.222
101654.464
101655.559
101656.67
101657.713
101658.844
101660.148
101661.527
101662.953
101664.375
101665.796
101667.243
101668.755
101670.243
101671.78
101673.229
101636.071
101636.07
101636.071
101636.075
101636.082
101636.092
101636.106
101636.123
101636.143
101636.168
101636.197
101636.229
101636.266
101636.308
101636.354
101636.404
101636.459
101636.518
101636.582
101636.651
101636.721
101636.8
101636.89
101636.976
101637.058
101637.151
101637.252
101637.356
101637.46
101637.568
101637.678
101637.792
101637.909
101638.029
101638.153
101638.282
101638.417
101638.558
101638.707
101638.867
101639.04
101639.228
101639.436
101639.668
101639.926
101640.217
101640.546
101640.919
101641.342
101641.821
101642.359
101642.964
101643.62
101644.336
101645.167
101646.432
101647.503
101647.958
101648.42
101649.253
101650.348
101651.48
101652.706
101653.906
101655.117
101656.398
101657.798
101658.885
101659.939
101661.264
101662.548
101663.836
101665.129
101666.512
101667.956
101669.366
101670.969
101672.662
101674.223
101675.944
101634.388
101634.392
101634.398
101634.408
101634.421
101634.438
101634.459
101634.484
101634.513
101634.547
101634.585
101634.628
101634.676
101634.728
101634.785
101634.848
101634.914
101634.985
101635.062
101635.15
101635.237
101635.321
101635.416
101635.519
101635.623
101635.731
101635.842
101635.958
101636.077
101636.2
101636.326
101636.457
101636.593
101636.734
101636.882
101637.038
101637.204
101637.382
101637.575
101637.786
101638.019
101638.276
101638.563
101638.885
101639.246
101639.65
101640.106
101640.613
101641.179
101641.81
101642.516
101643.282
101643.991
101645.048
101646.479
101647.337
101647.852
101648.645
101649.69
101650.887
101652.257
101653.703
101654.791
101655.689
101656.722
101657.736
101658.789
101660.031
101661.47
101662.877
101664.295
101665.736
101667.125
101668.5
101669.841
101671.153
101673.092
101675.512
101677.833
101679.966
101632.283
101632.293
101632.306
101632.324
101632.345
101632.371
101632.401
101632.436
101632.475
101632.52
101632.569
101632.624
101632.683
101632.748
101632.817
101632.893
101632.978
101633.064
101633.151
101633.247
101633.35
101633.456
101633.566
101633.68
101633.799
101633.923
101634.051
101634.183
101634.32
101634.462
101634.611
101634.766
101634.93
101635.104
101635.29
101635.49
101635.707
101635.945
101636.207
101636.496
101636.818
101637.174
101637.57
101638.008
101638.49
101639.015
101639.584
101640.186
101640.795
101641.44
101642.457
101643.865
101645.271
101646.268
101646.742
101647.489
101648.722
101650.027
101651.258
101652.283
101653.083
101653.773
101654.442
101655.466
101656.646
101657.991
101659.389
101660.767
101662.442
101664.226
101666.008
101667.882
101669.743
101671.462
101673.353
101675.311
101677.009
101678.152
101679.112
101680.612
101629.695
101629.713
101629.736
101629.763
101629.795
101629.831
101629.872
101629.919
101629.97
101630.027
101630.089
101630.157
101630.231
101630.314
101630.398
101630.485
101630.58
101630.683
101630.789
101630.901
101631.017
101631.139
101631.265
101631.397
101631.533
101631.676
101631.824
101631.978
101632.14
101632.311
101632.492
101632.685
101632.893
101633.119
101633.365
101633.635
101633.934
101634.266
101634.635
101635.046
101635.503
101636.012
101636.574
101637.196
101637.879
101638.632
101639.461
101640.377
101641.303
101642.632
101643.728
101644.301
101644.904
101645.771
101646.94
101648.198
101649.364
101650.337
101651.376
101652.502
101653.635
101654.847
101656.203
101657.891
101659.793
101661.314
101662.753
101664.169
101665.353
101666.575
101667.878
101669.231
101670.912
101672.858
101674.869
101676.756
101678.137
101680.196
101682.236
101683.845
101626.578
101626.606
101626.641
101626.68
101626.723
101626.772
101626.826
101626.886
101626.951
101627.023
101627.1
101627.181
101627.27
101627.364
101627.465
101627.571
101627.682
101627.799
101627.922
101628.05
101628.184
101628.324
101628.469
101628.621
101628.78
101628.947
101629.123
101629.309
101629.507
101629.72
101629.95
101630.201
101630.475
101630.776
101631.11
101631.48
101631.89
101632.346
101632.851
101633.409
101634.024
101634.697
101635.428
101636.218
101637.044
101637.924
101638.838
101640.012
101641.46
101642.428
101643.397
101644.526
101645.569
101646.708
101647.75
101648.856
101650.192
101651.4
101652.378
101653.653
101655.306
101656.827
101658.348
101659.751
101661.17
101662.834
101664.369
101665.737
101667.056
101668.43
101669.794
101671.091
101672.507
101674.346
101676.781
101678.828
101680.388
101682.201
101684.067
101685.683
101622.894
101622.934
101622.983
101623.036
101623.093
101623.156
101623.225
101623.3
101623.379
101623.465
101623.558
101623.656
101623.76
101623.87
101623.986
101624.107
101624.235
101624.369
101624.509
101624.655
101624.808
101624.969
101625.137
101625.315
101625.503
101625.703
101625.917
101626.147
101626.396
101626.668
101626.966
101627.294
101627.655
101628.055
101628.497
101628.985
101629.524
101630.115
101630.761
101631.465
101632.226
101633.049
101633.924
101634.858
101635.825
101637.096
101638.798
101640.055
101640.974
101642.04
101643.206
101644.272
101645.549
101647.029
101648.577
101650.132
101651.281
101652.354
101653.627
101654.961
101656.334
101657.858
101659.435
101660.747
101662.045
101663.46
101665.001
101666.739
101668.407
101670.114
101671.866
101673.433
101675.242
101677.569
101679.391
101680.839
101682.404
101683.924
101686.081
101687.9
101618.626
101618.68
101618.745
101618.813
101618.886
101618.964
101619.049
101619.139
101619.235
101619.337
101619.445
101619.56
101619.68
101619.807
101619.941
101620.081
101620.228
101620.382
101620.544
101620.715
101620.895
101621.086
101621.29
101621.509
101621.745
101622
101622.279
101622.584
101622.92
101623.291
101623.702
101624.157
101624.661
101625.218
101625.832
101626.505
101627.239
101628.035
101628.893
101629.808
101630.762
101631.772
101632.897
101634.349
101636.154
101637.577
101638.63
101639.857
101641.109
101642.154
101643.15
101644.53
101646
101647.095
101648.192
101649.284
101650.511
101652.148
101653.788
101655.359
101656.843
101658.226
101659.781
101661.643
101663.406
101665.318
101667.447
101669.177
101670.689
101672.291
101674.171
101676.247
101677.747
101679.112
101681.227
101683.232
101684.691
101686.187
101688.125
101690.977
101613.799
101613.869
101613.951
101614.036
101614.125
101614.22
101614.321
101614.428
101614.54
101614.659
101614.785
101614.916
101615.055
101615.201
101615.355
101615.516
101615.687
101615.868
101616.06
101616.265
101616.485
101616.722
101616.979
101617.259
101617.566
101617.903
101618.276
101618.687
101619.143
101619.648
101620.206
101620.821
101621.495
101622.233
101623.033
101623.896
101624.821
101625.804
101626.841
101627.914
101628.994
101630.421
101632.229
101633.642
101634.654
101635.744
101637.069
101638.327
101639.656
101641.465
101643.192
101644.529
101645.808
101647.063
101648.433
101650.041
101651.728
101653.399
101655.13
101657.011
101658.999
101661.151
101663.105
101664.692
101666.161
101667.35
101668.273
101669.907
101672.335
101674.518
101676.577
101678.702
101681.048
101682.962
101684.188
101685.604
101687.704
101689.205
101690.387
101692.344
101608.45
101608.535
101608.635
101608.737
101608.843
101608.953
101609.07
101609.193
101609.322
101609.457
101609.599
101609.748
101609.906
101610.072
101610.249
101610.436
101610.636
101610.851
101611.083
101611.335
101611.609
101611.91
101612.242
101612.61
101613.018
101613.472
101613.976
101614.538
101615.162
101615.853
101616.615
101617.453
101618.37
101619.366
101620.443
101621.602
101622.841
101624.156
101625.543
101626.989
101628.569
101630.047
101631.262
101632.349
101633.425
101634.616
101636.075
101637.807
101639.558
101641.038
101642.497
101644.319
101646.483
101649.068
101651.056
101652.482
101653.968
101655.595
101657.135
101658.68
101660.193
101661.678
101663.549
101665.8
101667.871
101669.76
101671.629
101673.787
101675.538
101677.441
101679.525
101681.221
101682.824
101684.493
101686.193
101688.005
101689.742
101691.632
101693.865
101695.143
101602.717
101602.819
101602.936
101603.054
101603.174
101603.3
101603.431
101603.568
101603.712
101603.862
101604.02
101604.188
101604.365
101604.554
101604.756
101604.974
101605.211
101605.468
101605.751
101606.063
101606.407
101606.79
101607.217
101607.692
101608.222
101608.812
101609.467
101610.192
101610.992
101611.87
101612.828
101613.867
101614.987
101616.186
101617.454
101618.809
101620.234
101621.682
101623.15
101624.591
101625.966
101627.869
101629.917
101631.647
101633.411
101635.122
101636.607
101638.03
101639.527
101641.072
101642.686
101644.284
101646.187
101648.464
101650.539
101652.503
101654.544
101656.228
101657.709
101659.394
101661.132
101662.844
101664.937
101667.493
101669.709
101671.373
101672.908
101674.994
101677.756
101679.636
101681.231
101683.104
101685.164
101687.311
101688.952
101690.995
101693.552
101695.697
101697.101
101697.359
101601.552
101601.553
101601.554
101601.554
101601.554
101601.553
101601.551
101601.548
101601.545
101601.542
101601.537
101601.532
101601.526
101601.52
101601.512
101601.504
101601.495
101601.484
101601.473
101601.46
101601.447
101601.432
101601.416
101601.399
101601.38
101601.36
101601.339
101601.316
101601.291
101601.265
101601.238
101601.208
101601.177
101601.144
101601.109
101601.073
101601.034
101600.994
101600.95
101600.906
101600.861
101600.814
101600.765
101600.715
101600.663
101600.61
101600.556
101600.5
101600.443
101600.385
101600.326
101600.265
101600.201
101600.134
101600.062
101599.982
101599.888
101599.776
101599.637
101599.463
101599.241
101598.959
101598.599
101598.147
101597.586
101596.907
101596.103
101595.178
101594.14
101593.007
101591.802
101590.535
101589.191
101587.734
101586.087
101584.194
101582.078
101579.761
101577.172
101574.411
101604.665
101604.666
101604.667
101604.667
101604.667
101604.667
101604.667
101604.667
101604.667
101604.666
101604.665
101604.664
101604.663
101604.661
101604.659
101604.657
101604.655
101604.652
101604.649
101604.645
101604.641
101604.636
101604.631
101604.626
101604.62
101604.613
101604.606
101604.599
101604.591
101604.582
101604.573
101604.564
101604.554
101604.543
101604.532
101604.521
101604.51
101604.498
101604.485
101604.473
101604.461
101604.45
101604.44
101604.43
101604.421
101604.414
101604.409
101604.405
101604.403
101604.404
101604.407
101604.414
101604.422
101604.433
101604.446
101604.459
101604.47
101604.476
101604.471
101604.45
101604.403
101604.318
101604.179
101603.973
101603.682
101603.292
101602.795
101602.184
101601.465
101600.651
101599.758
101598.796
101597.752
101596.593
101595.284
101593.815
101592.164
101590.286
101588.288
101586.724
101607.82
101607.82
101607.821
101607.822
101607.823
101607.824
101607.826
101607.827
101607.829
101607.832
101607.834
101607.837
101607.84
101607.844
101607.847
101607.851
101607.855
101607.859
101607.864
101607.868
101607.873
101607.878
101607.883
101607.889
101607.895
101607.901
101607.908
101607.915
101607.922
101607.93
101607.938
101607.947
101607.956
101607.966
101607.977
101607.99
101608.003
101608.017
101608.033
101608.05
101608.069
101608.09
101608.114
101608.141
101608.171
101608.204
101608.241
101608.283
101608.33
101608.382
101608.44
101608.504
101608.574
101608.651
101608.734
101608.823
101608.918
101609.016
101609.117
101609.215
101609.306
101609.379
101609.425
101609.43
101609.377
101609.248
101609.024
101608.695
101608.264
101607.744
101607.152
101606.505
101605.798
101605.009
101604.128
101603.127
101601.978
101600.697
101599.466
101598.614
101610.963
101610.963
101610.964
101610.965
101610.967
101610.97
101610.973
101610.976
101610.981
101610.986
101610.992
101610.998
101611.005
101611.013
101611.021
101611.03
101611.04
101611.051
101611.062
101611.074
101611.087
101611.101
101611.115
101611.131
101611.147
101611.165
101611.183
101611.203
101611.224
101611.246
101611.27
101611.295
101611.321
101611.35
101611.38
101611.412
101611.447
101611.484
101611.524
101611.566
101611.611
101611.659
101611.712
101611.769
101611.831
101611.898
101611.971
101612.049
101612.135
101612.228
101612.328
101612.437
101612.554
101612.681
101612.816
101612.962
101613.116
101613.278
101613.453
101613.635
101613.82
101614.002
101614.178
101614.338
101614.472
101614.564
101614.599
101614.566
101614.455
101614.258
101613.978
101613.638
101613.254
101612.804
101612.281
101611.71
101611.104
101610.326
101609.417
101609.175
101614.044
101614.044
101614.045
101614.047
101614.05
101614.053
101614.057
101614.063
101614.069
101614.077
101614.085
101614.094
101614.105
101614.116
101614.129
101614.143
101614.157
101614.173
101614.191
101614.209
101614.229
101614.25
101614.272
101614.296
101614.321
101614.348
101614.377
101614.407
101614.44
101614.474
101614.51
101614.549
101614.589
101614.633
101614.679
101614.727
101614.779
101614.835
101614.893
101614.956
101615.023
101615.094
101615.171
101615.253
101615.341
101615.434
101615.535
101615.642
101615.758
101615.881
101616.014
101616.155
101616.307
101616.47
101616.643
101616.828
101617.025
101617.232
101617.458
101617.699
101617.945
101618.198
101618.456
101618.713
101618.965
101619.206
101619.43
101619.631
101619.792
101619.896
101619.939
101619.924
101619.853
101619.73
101619.55
101619.324
101619.084
101618.846
101618.603
101618.528
101617.023
101617.023
101617.024
101617.026
101617.029
101617.033
101617.039
101617.046
101617.054
101617.063
101617.073
101617.085
101617.098
101617.113
101617.129
101617.146
101617.165
101617.185
101617.207
101617.231
101617.256
101617.282
101617.311
101617.342
101617.374
101617.408
101617.445
101617.484
101617.525
101617.568
101617.614
101617.663
101617.715
101617.77
101617.828
101617.889
101617.954
101618.023
101618.096
101618.175
101618.259
101618.349
101618.444
101618.544
101618.65
101618.763
101618.884
101619.012
101619.149
101619.295
101619.451
101619.617
101619.794
101619.983
101620.184
101620.398
101620.625
101620.865
101621.116
101621.385
101621.666
101621.955
101622.256
101622.57
101622.897
101623.233
101623.578
101623.922
101624.251
101624.563
101624.861
101625.129
101625.351
101625.507
101625.624
101625.734
101625.887
101626.056
101626.169
101626.103
101619.864
101619.864
101619.865
101619.868
101619.871
101619.876
101619.882
101619.89
101619.899
101619.91
101619.922
101619.935
101619.951
101619.967
101619.986
101620.006
101620.027
101620.051
101620.076
101620.103
101620.132
101620.163
101620.196
101620.231
101620.269
101620.309
101620.351
101620.396
101620.443
101620.493
101620.546
101620.602
101620.662
101620.725
101620.791
101620.861
101620.936
101621.016
101621.101
101621.191
101621.286
101621.385
101621.49
101621.602
101621.72
101621.845
101621.978
101622.12
101622.27
101622.43
101622.6
101622.781
101622.973
101623.178
101623.395
101623.627
101623.874
101624.137
101624.419
101624.716
101625.028
101625.357
101625.705
101626.069
101626.443
101626.824
101627.208
101627.593
101627.994
101628.419
101628.864
101629.34
101629.776
101630.14
101630.467
101630.789
101631.135
101631.65
101632.364
101632.85
101622.544
101622.544
101622.544
101622.547
101622.55
101622.556
101622.562
101622.57
101622.58
101622.591
101622.604
101622.619
101622.635
101622.653
101622.673
101622.695
101622.718
101622.744
101622.771
101622.8
101622.832
101622.865
101622.901
101622.939
101622.98
101623.023
101623.069
101623.117
101623.168
101623.223
101623.28
101623.341
101623.406
101623.474
101623.546
101623.622
101623.703
101623.789
101623.879
101623.973
101624.073
101624.178
101624.288
101624.405
101624.529
101624.661
101624.8
101624.948
101625.104
101625.27
101625.446
101625.634
101625.833
101626.044
101626.269
101626.508
101626.762
101627.034
101627.323
101627.627
101627.949
101628.293
101628.658
101629.047
101629.461
101629.905
101630.377
101630.868
101631.364
101631.851
101632.314
101632.756
101633.213
101633.742
101634.385
101634.992
101635.517
101636.125
101636.852
101637.515
101625.043
101625.043
101625.044
101625.046
101625.049
101625.054
101625.061
101625.069
101625.079
101625.091
101625.104
101625.119
101625.135
101625.154
101625.174
101625.196
101625.22
101625.246
101625.275
101625.305
101625.337
101625.372
101625.409
101625.448
101625.49
101625.535
101625.582
101625.632
101625.685
101625.741
101625.8
101625.863
101625.929
101625.999
101626.073
101626.152
101626.234
101626.32
101626.411
101626.506
101626.606
101626.711
101626.823
101626.941
101627.066
101627.198
101627.338
101627.486
101627.644
101627.811
101627.988
101628.175
101628.373
101628.583
101628.807
101629.047
101629.303
101629.575
101629.861
101630.165
101630.488
101630.834
101631.201
101631.593
101632.013
101632.462
101632.938
101633.439
101633.974
101634.554
101635.188
101635.843
101636.476
101637.09
101637.66
101638.236
101639.018
101640.062
101641.118
101641.812
101627.353
101627.352
101627.352
101627.353
101627.356
101627.361
101627.367
101627.375
101627.384
101627.395
101627.408
101627.422
101627.438
101627.456
101627.476
101627.498
101627.522
101627.548
101627.576
101627.606
101627.638
101627.672
101627.709
101627.748
101627.79
101627.834
101627.88
101627.93
101627.983
101628.038
101628.097
101628.159
101628.224
101628.292
101628.364
101628.439
101628.518
101628.602
101628.689
101628.782
101628.88
101628.983
101629.092
101629.208
101629.33
101629.46
101629.596
101629.738
101629.889
101630.049
101630.221
101630.406
101630.602
101630.81
101631.03
101631.263
101631.512
101631.774
101632.051
101632.346
101632.661
101632.998
101633.359
101633.748
101634.168
101634.609
101635.079
101635.609
101636.2
101636.839
101637.514
101638.198
101638.923
101639.731
101640.639
101641.588
101642.495
101643.351
101644.391
101645.467
101629.471
101629.469
101629.468
101629.468
101629.47
101629.474
101629.479
101629.485
101629.493
101629.503
101629.515
101629.528
101629.543
101629.56
101629.578
101629.599
101629.621
101629.645
101629.671
101629.7
101629.73
101629.762
101629.797
101629.834
101629.874
101629.915
101629.959
101630.006
101630.055
101630.107
101630.162
101630.22
101630.281
101630.345
101630.413
101630.484
101630.559
101630.638
101630.721
101630.809
101630.903
101631.001
101631.104
101631.209
101631.321
101631.439
101631.569
101631.71
101631.859
101632.017
101632.18
101632.352
101632.535
101632.733
101632.942
101633.162
101633.395
101633.645
101633.911
101634.195
101634.498
101634.823
101635.171
101635.549
101635.963
101636.425
101636.935
101637.455
101637.992
101638.579
101639.217
101639.969
101640.844
101641.785
101642.747
101643.691
101644.666
101645.79
101647.136
101648.262
101631.391
101631.388
101631.386
101631.384
101631.385
101631.387
101631.39
101631.395
101631.401
101631.409
101631.418
101631.43
101631.443
101631.457
101631.473
101631.491
101631.511
101631.533
101631.556
101631.582
101631.609
101631.639
101631.67
101631.704
101631.739
101631.777
101631.818
101631.86
101631.905
101631.953
101632.003
101632.056
101632.112
101632.171
101632.233
101632.299
101632.369
101632.441
101632.516
101632.593
101632.673
101632.76
101632.856
101632.961
101633.07
101633.184
101633.302
101633.425
101633.56
101633.703
101633.853
101634.013
101634.183
101634.363
101634.556
101634.762
101634.982
101635.218
101635.47
101635.74
101636.029
101636.34
101636.673
101637.033
101637.421
101637.844
101638.313
101638.848
101639.46
101640.132
101640.838
101641.555
101642.303
101643.103
101644.045
101645.162
101646.376
101647.65
101648.979
101650.118
101633.121
101633.116
101633.111
101633.108
101633.106
101633.105
101633.106
101633.109
101633.113
101633.118
101633.125
101633.134
101633.144
101633.155
101633.169
101633.184
101633.2
101633.219
101633.239
101633.261
101633.285
101633.31
101633.338
101633.367
101633.399
101633.432
101633.468
101633.505
101633.545
101633.588
101633.632
101633.68
101633.731
101633.783
101633.836
101633.891
101633.949
101634.01
101634.079
101634.154
101634.231
101634.311
101634.395
101634.484
101634.576
101634.674
101634.779
101634.891
101635.009
101635.135
101635.269
101635.413
101635.567
101635.732
101635.909
101636.098
101636.301
101636.519
101636.753
101637.004
101637.273
101637.563
101637.875
101638.212
101638.576
101638.97
101639.399
101639.869
101640.377
101640.938
101641.619
101642.458
101643.403
101644.411
101645.383
101646.334
101647.382
101648.491
101649.731
101650.956
101634.66
101634.652
101634.645
101634.639
101634.635
101634.631
101634.63
101634.629
101634.63
101634.632
101634.636
101634.641
101634.648
101634.656
101634.666
101634.678
101634.691
101634.705
101634.722
101634.74
101634.76
101634.781
101634.805
101634.83
101634.857
101634.886
101634.917
101634.95
101634.984
101635.019
101635.056
101635.094
101635.134
101635.177
101635.225
101635.276
101635.33
101635.385
101635.441
101635.499
101635.561
101635.627
101635.697
101635.771
101635.85
101635.933
101636.023
101636.118
101636.22
101636.329
101636.447