/*--------------------------------*- C++ -*----------------------------------*\
  =========                 |
  \\      /  F ield         | OpenFOAM: The Open Source CFD Toolbox
   \\    /   O peration     | Website:  https://openfoam.org
    \\  /    A nd           | Version:  8
     \\/     M anipulation  |
\*---------------------------------------------------------------------------*/
FoamFile
{
    version     2.0;
    format      ascii;
    class       volScalarField;
    location    "0.021";
    object      p;
}
// * * * * * * * * * * * * * * * * * * * * * * * * * * * * * * * * * * * * * //

dimensions      [1 -1 -2 0 0 0 0];

internalField   nonuniform List<scalar> 
42400
(
101338.867
101338.855
101338.842
101338.831
101338.821
101338.813
101338.805
101338.799
101338.793
101338.789
101338.786
101338.785
101338.785
101338.786
101338.788
101338.792
101338.798
101338.804
101338.812
101338.822
101338.833
101338.845
101338.858
101338.873
101338.889
101338.907
101338.926
101338.946
101338.967
101338.99
101339.014
101339.04
101339.067
101339.095
101339.125
101339.156
101339.189
101339.23
101339.283
101339.342
101339.395
101339.434
101339.467
101339.502
101339.543
101339.599
101339.67
101339.747
101339.828
101339.914
101340.002
101340.112
101340.24
101340.388
101340.532
101340.672
101340.845
101341.051
101341.283
101341.534
101341.81
101342.115
101342.456
101342.836
101343.243
101343.671
101344.148
101344.596
101344.991
101345.827
101346.299
101345.958
101347.484
101349.803
101350.318
101349.641
101348.965
101353.265
101359.702
101358.764
101338.411
101338.401
101338.391
101338.382
101338.374
101338.368
101338.362
101338.357
101338.353
101338.35
101338.349
101338.348
101338.349
101338.351
101338.354
101338.358
101338.363
101338.37
101338.378
101338.387
101338.397
101338.409
101338.421
101338.435
101338.45
101338.466
101338.483
101338.501
101338.52
101338.541
101338.562
101338.584
101338.606
101338.63
101338.66
101338.698
101338.74
101338.773
101338.793
101338.809
101338.83
101338.862
101338.904
101338.949
101338.996
101339.045
101339.096
101339.157
101339.237
101339.332
101339.415
101339.484
101339.577
101339.699
101339.841
101339.995
101340.165
101340.359
101340.582
101340.841
101341.139
101341.473
101341.84
101342.25
101342.709
101343.205
101343.792
101344.431
101344.878
101345.687
101346.836
101346.972
101347.764
101349.868
101350.305
101351.155
101356.169
101359.392
101358.461
101360.702
101337.821
101337.814
101337.806
101337.8
101337.794
101337.789
101337.785
101337.782
101337.779
101337.778
101337.778
101337.779
101337.781
101337.784
101337.788
101337.793
101337.8
101337.807
101337.816
101337.826
101337.837
101337.849
101337.863
101337.877
101337.893
101337.91
101337.927
101337.946
101337.965
101337.985
101338.008
101338.035
101338.066
101338.099
101338.125
101338.14
101338.155
101338.176
101338.206
101338.24
101338.274
101338.311
101338.347
101338.38
101338.426
101338.485
101338.56
101338.609
101338.641
101338.71
101338.8
101338.894
101338.995
101339.11
101339.242
101339.399
101339.584
101339.798
101340.045
101340.33
101340.659
101341.044
101341.487
101341.996
101342.576
101343.205
101343.935
101344.82
101345.571
101346.488
101347.65
101348.405
101349.059
101351.912
101354.202
101356.077
101358.33
101360.009
101363.102
101364.788
101337.129
101337.124
101337.118
101337.113
101337.109
101337.105
101337.103
101337.101
101337.1
101337.101
101337.102
101337.105
101337.108
101337.113
101337.119
101337.127
101337.135
101337.145
101337.156
101337.169
101337.183
101337.198
101337.214
101337.232
101337.25
101337.27
101337.291
101337.315
101337.341
101337.369
101337.395
101337.418
101337.44
101337.462
101337.49
101337.522
101337.556
101337.59
101337.625
101337.66
101337.691
101337.734
101337.798
101337.846
101337.873
101337.915
101337.972
101338.042
101338.109
101338.182
101338.264
101338.361
101338.474
101338.605
101338.757
101338.933
101339.141
101339.389
101339.681
101340.028
101340.436
101340.917
101341.47
101342.114
101342.848
101343.678
101344.592
101345.737
101346.74
101347.775
101350.359
101353.492
101354.584
101354.309
101355.329
101359.11
101360.82
101361.956
101363.461
101365.606
101336.348
101336.343
101336.338
101336.334
101336.331
101336.328
101336.327
101336.326
101336.327
101336.328
101336.332
101336.336
101336.342
101336.349
101336.357
101336.367
101336.379
101336.392
101336.406
101336.423
101336.44
101336.458
101336.477
101336.499
101336.523
101336.55
101336.577
101336.605
101336.634
101336.664
101336.696
101336.732
101336.769
101336.807
101336.845
101336.885
101336.924
101336.959
101337.006
101337.07
101337.119
101337.148
101337.192
101337.251
101337.31
101337.369
101337.433
101337.505
101337.585
101337.675
101337.777
101337.893
101338.029
101338.19
101338.382
101338.61
101338.881
101339.201
101339.578
101340.021
101340.539
101341.15
101341.837
101342.633
101343.481
101344.439
101345.291
101346.589
101349.124
101351.481
101352.339
101353.103
101355.199
101356.508
101358.17
101360.126
101361.758
101363.351
101365.096
101366.934
101335.466
101335.461
101335.456
101335.453
101335.45
101335.448
101335.448
101335.448
101335.45
101335.453
101335.458
101335.464
101335.472
101335.482
101335.494
101335.507
101335.522
101335.538
101335.556
101335.576
101335.599
101335.626
101335.654
101335.685
101335.717
101335.751
101335.786
101335.824
101335.863
101335.904
101335.946
101335.99
101336.035
101336.081
101336.124
101336.176
101336.245
101336.298
101336.335
101336.388
101336.452
101336.514
101336.577
101336.644
101336.715
101336.792
101336.876
101336.968
101337.072
101337.191
101337.33
101337.492
101337.685
101337.913
101338.183
101338.503
101338.879
101339.319
101339.834
101340.433
101341.125
101341.923
101342.815
101343.81
101344.912
101346.3
101348.854
101350.473
101351.096
101352.097
101353.561
101355.455
101357.445
101359.667
101361.178
101362.379
101364.407
101366.608
101368.444
101370.088
101334.472
101334.467
101334.462
101334.459
101334.456
101334.455
101334.456
101334.458
101334.461
101334.466
101334.472
101334.481
101334.492
101334.504
101334.518
101334.535
101334.555
101334.577
101334.603
101334.631
101334.661
101334.693
101334.727
101334.764
101334.803
101334.844
101334.888
101334.934
101334.983
101335.033
101335.085
101335.135
101335.194
101335.267
101335.328
101335.375
101335.437
101335.509
101335.579
101335.649
101335.722
101335.799
101335.88
101335.967
101336.061
101336.165
101336.281
101336.412
101336.563
101336.739
101336.945
101337.188
101337.474
101337.81
101338.204
101338.665
101339.203
101339.829
101340.557
101341.387
101342.346
101343.425
101344.674
101345.972
101347.577
101348.93
101349.839
101351.33
101353.143
101354.928
101356.596
101358.294
101359.953
101361.576
101363.229
101365.059
101366.817
101368.497
101370.134
101371.467
101333.323
101333.318
101333.314
101333.311
101333.31
101333.31
101333.312
101333.316
101333.321
101333.329
101333.339
101333.351
101333.366
101333.383
101333.404
101333.426
101333.451
101333.478
101333.509
101333.542
101333.578
101333.618
101333.66
101333.705
101333.752
101333.803
101333.857
101333.912
101333.967
101334.03
101334.106
101334.172
101334.228
101334.297
101334.376
101334.453
101334.531
101334.612
101334.696
101334.785
101334.879
101334.98
101335.089
101335.208
101335.34
101335.489
101335.658
101335.853
101336.079
101336.343
101336.65
101337.007
101337.421
101337.898
101338.447
101339.081
101339.804
101340.617
101341.572
101342.589
101343.584
101344.788
101346.065
101347.742
101349.504
101350.948
101352.695
101354.022
101355.165
101356.378
101357.598
101359.521
101361.487
101362.999
101364.578
101365.998
101367.392
101369.259
101371.245
101373.202
101331.993
101331.989
101331.985
101331.984
101331.984
101331.987
101331.991
101331.998
101332.007
101332.019
101332.033
101332.05
101332.069
101332.091
101332.116
101332.144
101332.176
101332.21
101332.248
101332.288
101332.332
101332.38
101332.431
101332.485
101332.541
101332.598
101332.663
101332.739
101332.809
101332.871
101332.945
101333.028
101333.11
101333.195
101333.283
101333.374
101333.471
101333.572
101333.68
101333.795
101333.92
101334.056
101334.207
101334.377
101334.569
101334.788
101335.04
101335.331
101335.667
101336.053
101336.495
101336.996
101337.56
101338.186
101338.868
101339.615
101340.403
101341.136
101342.132
101343.877
101345.765
101347.404
101349.061
101350.265
101350.866
101352.154
101353.826
101355.216
101356.639
101358.184
101359.908
101360.919
101362.018
101364.423
101366.498
101367.946
101369.477
101371.099
101372.728
101374.374
101330.443
101330.441
101330.44
101330.442
101330.445
101330.451
101330.46
101330.471
101330.484
101330.5
101330.52
101330.542
101330.567
101330.596
101330.628
101330.663
101330.702
101330.744
101330.79
101330.84
101330.893
101330.95
101331.008
101331.072
101331.148
101331.219
101331.285
101331.363
101331.448
101331.533
101331.622
101331.714
101331.811
101331.913
101332.02
101332.133
101332.253
101332.383
101332.523
101332.677
101332.848
101333.039
101333.255
101333.501
101333.783
101334.108
101334.481
101334.911
101335.404
101335.968
101336.611
101337.342
101338.17
101339.101
101340.131
101341.288
101342.575
101343.956
101345.508
101346.635
101347.377
101348.323
101349.473
101350.89
101352.903
101354.523
101355.315
101356.46
101358.313
101359.797
101361.429
101363.874
101365.263
101365.961
101367.228
101369.518
101371.395
101373.007
101374.752
101376.193
101328.641
101328.642
101328.646
101328.651
101328.659
101328.67
101328.683
101328.7
101328.719
101328.742
101328.768
101328.797
101328.83
101328.867
101328.907
101328.951
101329
101329.052
101329.107
101329.165
101329.229
101329.303
101329.375
101329.444
101329.523
101329.609
101329.697
101329.788
101329.883
101329.984
101330.089
101330.199
101330.316
101330.439
101330.572
101330.714
101330.869
101331.039
101331.227
101331.438
101331.676
101331.945
101332.252
101332.604
101333.005
101333.465
101333.987
101334.577
101335.24
101335.981
101336.807
101337.724
101338.733
101339.85
101341.06
101342.287
101343.539
101344.84
101346.286
101347.641
101348.911
101350.2
101351.424
101352.71
101353.977
101355.195
101356.746
101358.363
101360.067
101362.194
101363.917
101365.067
101366.45
101369.043
101370.829
101371.663
101372.907
101375.241
101377.531
101379.771
101326.545
101326.551
101326.559
101326.571
101326.585
101326.602
101326.622
101326.646
101326.673
101326.704
101326.739
101326.777
101326.819
101326.866
101326.916
101326.97
101327.029
101327.096
101327.167
101327.236
101327.308
101327.388
101327.475
101327.564
101327.657
101327.755
101327.857
101327.964
101328.077
101328.196
101328.322
101328.456
101328.6
101328.755
101328.924
101329.11
101329.315
101329.545
101329.804
101330.096
101330.428
101330.805
101331.233
101331.718
101332.266
101332.88
101333.561
101334.31
101335.124
101335.987
101336.879
101337.821
101338.746
101340.028
101341.731
101343.375
101344.912
101346.379
101347.651
101349.039
101350.554
101351.609
101352.773
101354.082
101355.645
101357.318
101358.764
101360.189
101361.91
101364.216
101366.386
101367.96
101369.12
101370.355
101372.332
101374.763
101376.81
101378.39
101379.779
101381.441
101324.119
101324.131
101324.147
101324.166
101324.187
101324.213
101324.241
101324.274
101324.311
101324.352
101324.396
101324.445
101324.498
101324.557
101324.622
101324.689
101324.758
101324.834
101324.915
101325.002
101325.092
101325.186
101325.285
101325.389
101325.499
101325.614
101325.735
101325.863
101325.999
101326.144
101326.3
101326.469
101326.653
101326.856
101327.082
101327.334
101327.618
101327.938
101328.301
101328.712
101329.177
101329.703
101330.295
101330.957
101331.694
101332.511
101333.41
101334.398
101335.489
101336.661
101337.899
101339.468
101341.595
101343.085
101343.955
101344.861
101346.022
101347.586
101348.946
101350.079
101351.336
101352.95
101354.624
101356.298
101357.992
101359.29
101360.671
101362.556
101364.502
101366.405
101368.013
101369.458
101371.267
101373.013
101374.618
101376.071
101377.508
101379.47
101382.003
101384.394
101321.321
101321.341
101321.366
101321.394
101321.425
101321.46
101321.5
101321.544
101321.591
101321.643
101321.701
101321.764
101321.83
101321.9
101321.976
101322.057
101322.143
101322.233
101322.329
101322.429
101322.534
101322.645
101322.762
101322.884
101323.014
101323.151
101323.296
101323.452
101323.62
101323.802
101324.002
101324.222
101324.467
101324.741
101325.049
101325.397
101325.79
101326.236
101326.739
101327.308
101327.946
101328.659
101329.452
101330.327
101331.286
101332.328
101333.448
101334.643
101335.91
101337.17
101338.688
101340.458
101341.531
101342.56
101344.02
101345.498
101347.093
101348.742
101350.13
101351.588
101353.434
101355.173
101356.652
101357.901
101358.794
101360.33
101363.005
101364.771
101365.981
101366.958
101368.572
101371.006
101372.988
101374.892
101377.092
101379.471
101381.679
101383.625
101384.869
101386.133
101318.113
101318.142
101318.179
101318.218
101318.261
101318.308
101318.36
101318.416
101318.477
101318.542
101318.613
101318.688
101318.769
101318.855
101318.945
101319.04
101319.141
101319.247
101319.358
101319.475
101319.598
101319.728
101319.864
101320.009
101320.163
101320.328
101320.506
101320.699
101320.911
101321.144
101321.402
101321.69
101322.014
101322.378
101322.788
101323.25
101323.77
101324.353
101325.005
101325.731
101326.533
101327.416
101328.382
101329.428
101330.558
101331.76
101333.031
101334.371
101335.704
101337.044
101338.645
101339.817
101340.952
101342.609
101344.262
101345.775
101347.319
101349.065
101350.933
101352.626
101354.114
101355.531
101357.081
101359.139
101361.407
101363.281
101364.66
101365.856
101367.341
101369.592
101371.681
101373.102
101374.948
101378.192
101380.471
101381.723
101383.081
101384.54
101386.649
101389.136
101314.474
101314.516
101314.566
101314.619
101314.675
101314.736
101314.802
101314.872
101314.948
101315.028
101315.114
101315.205
101315.301
101315.402
101315.509
101315.621
101315.739
101315.863
101315.993
101316.131
101316.277
101316.431
101316.595
101316.772
101316.962
101317.169
101317.396
101317.646
101317.922
101318.231
101318.576
101318.963
101319.397
101319.884
101320.429
101321.036
101321.711
101322.455
101323.271
101324.158
101325.115
101326.137
101327.22
101328.333
101329.475
101330.835
101332.641
101334.621
101336.479
101338.356
101339.545
101340.488
101342.171
101344.03
101345.897
101347.577
101349.092
101350.725
101352.082
101353.444
101354.92
101356.492
101358.575
101360.649
101362.561
101364.766
101366.964
101368.857
101370.556
101371.905
101373.225
101375.391
101377.816
101379.888
101382.129
101384.038
101385.713
101387.492
101389.427
101391.003
101310.395
101310.45
101310.516
101310.584
101310.655
101310.732
101310.813
101310.899
101310.991
101311.088
101311.19
101311.298
101311.412
101311.531
101311.657
101311.79
101311.93
101312.078
101312.234
101312.401
101312.58
101312.772
101312.98
101313.208
101313.457
101313.732
101314.038
101314.379
101314.761
101315.188
101315.668
101316.206
101316.808
101317.479
101318.224
101319.047
101319.952
101320.941
101322.017
101323.176
101324.421
101325.732
101327.141
101328.793
101330.911
101333.221
101334.833
101335.906
101336.989
101338.101
101339.541
101341.64
101343.289
101344.794
101346.746
101348.593
101349.969
101351.227
101353.365
101355.62
101357.77
101360.072
101361.574
101362.752
101364.358
101365.894
101367.348
101369.65
101372.249
101374.581
101376.894
101378.615
101380.047
101381.504
101383.088
101385.163
101387.562
101390.27
101392.435
101394.396
101305.905
101305.975
101306.058
101306.142
101306.23
101306.323
101306.421
101306.525
101306.634
101306.748
101306.869
101306.996
101307.129
101307.27
101307.419
101307.577
101307.744
101307.923
101308.116
101308.323
101308.548
101308.795
101309.066
101309.365
101309.698
101310.069
101310.484
101310.948
101311.468
101312.049
101312.698
101313.418
101314.215
101315.092
101316.052
101317.096
101318.224
101319.436
101320.728
101322.082
101323.502
101324.943
101326.873
101329.297
101330.883
101331.798
101332.95
101334.659
101336.54
101338.568
101340.554
101342.501
101344.501
101346.065
101347.25
101348.967
101351.628
101354.083
101355.728
101356.858
101357.916
101359.434
101362.115
101364.997
101366.563
101367.866
101369.417
101370.855
101372.956
101376.026
101378.5
101380.494
101382.391
101384.015
101386.219
101388.925
101391.194
101393.158
101394.962
101397.457
101301.025
101301.111
101301.212
101301.313
101301.417
101301.526
101301.64
101301.76
101301.886
101302.018
101302.156
101302.303
101302.457
101302.621
101302.795
101302.982
101303.183
101303.401
101303.638
101303.898
101304.184
101304.501
101304.855
101305.249
101305.69
101306.184
101306.737
101307.355
101308.044
101308.809
101309.653
101310.582
101311.597
101312.698
101313.885
101315.156
101316.506
101317.931
101319.414
101320.915
101322.575
101324.389
101326.051
101327.731
101329.415
101331.102
101333.212
101335.521
101337.538
101339.375
101341.201
101342.988
101344.903
101347.013
101349.107
101350.898
101352.323
101353.808
101355.837
101358.289
101360.764
101362.668
101364.086
101365.263
101367.147
101369.977
101372.542
101374.968
101376.892
101378.462
101380.209
101382.407
101385.225
101388.265
101390.714
101392.501
101394.866
101396.812
101398.484
101400.073
101295.874
101295.976
101296.093
101296.21
101296.33
101296.455
101296.584
101296.72
101296.862
101297.011
101297.168
101297.335
101297.512
101297.703
101297.908
101298.131
101298.375
101298.643
101298.939
101299.269
101299.636
101300.047
101300.509
101301.026
101301.605
101302.254
101302.976
101303.779
101304.665
101305.639
101306.702
101307.855
101309.096
101310.423
101311.83
101313.312
101314.862
101316.463
101318.1
101319.832
101321.826
101324.265
101326.393
101327.983
101329.998
101332.594
101334.388
101335.79
101337.467
101339.619
101342.354
101344.565
101346.251
101348.104
101350.321
101352.515
101354.952
101357.031
101358.691
101360.395
101362.059
101364.21
101367.028
101369.695
101371.785
101373.455
101375.382
101377.164
101378.819
101380.53
101382.713
101386.059
101388.418
101389.882
101391.925
101394.317
101396.742
101399.236
101401.461
101403.29
101322.919
101322.924
101322.93
101322.933
101322.936
101322.937
101322.937
101322.935
101322.932
101322.928
101322.922
101322.914
101322.905
101322.894
101322.882
101322.867
101322.851
101322.832
101322.812
101322.789
101322.764
101322.737
101322.707
101322.674
101322.639
101322.6
101322.559
101322.514
101322.466
101322.415
101322.359
101322.3
101322.236
101322.168
101322.095
101322.017
101321.934
101321.845
101321.75
101321.649
101321.541
101321.426
101321.304
101321.174
101321.035
101320.888
101320.73
101320.56
101320.378
101320.184
101319.977
101319.754
101319.515
101319.258
101318.98
101318.679
101318.353
101318
101317.615
101317.194
101316.732
101316.222
101315.658
101315.031
101314.335
101313.565
101312.719
101311.785
101310.819
101309.801
101308.658
101307.205
101305.171
101303.223
101301.593
101299.466
101297.033
101294.955
101292.734
101288.34
101323.254
101323.26
101323.267
101323.271
101323.274
101323.276
101323.276
101323.275
101323.273
101323.269
101323.263
101323.255
101323.246
101323.235
101323.222
101323.207
101323.191
101323.172
101323.151
101323.127
101323.101
101323.073
101323.042
101323.008
101322.971
101322.931
101322.888
101322.841
101322.791
101322.736
101322.678
101322.616
101322.549
101322.477
101322.4
101322.318
101322.231
101322.137
101322.038
101321.931
101321.818
101321.698
101321.569
101321.433
101321.288
101321.134
101320.97
101320.795
101320.607
101320.406
101320.19
101319.96
101319.714
101319.449
101319.164
101318.855
101318.52
101318.156
101317.756
101317.317
101316.831
101316.292
101315.692
101315.021
101314.273
101313.431
101312.5
101311.609
101310.573
101309.128
101307.616
101306.253
101304.873
101302.858
101300.713
101298.989
101296.644
101293.252
101290.754
101288.642
101323.796
101323.803
101323.81
101323.816
101323.819
101323.822
101323.823
101323.823
101323.821
101323.818
101323.813
101323.807
101323.798
101323.788
101323.777
101323.763
101323.747
101323.729
101323.709
101323.687
101323.662
101323.634
101323.604
101323.572
101323.536
101323.497
101323.455
101323.409
101323.36
101323.306
101323.249
101323.187
101323.121
101323.05
101322.974
101322.893
101322.805
101322.712
101322.612
101322.506
101322.392
101322.271
101322.141
101322.003
101321.857
101321.7
101321.533
101321.355
101321.164
101320.96
101320.741
101320.505
101320.252
101319.981
101319.69
101319.377
101319.041
101318.68
101318.288
101317.863
101317.4
101316.894
101316.34
101315.714
101315
101314.205
101313.311
101312.182
101310.929
101309.666
101308.206
101306.36
101304.633
101303.047
101300.791
101298.492
101296.46
101293.548
101289.473
101286.117
101324.53
101324.537
101324.544
101324.551
101324.555
101324.559
101324.561
101324.562
101324.561
101324.56
101324.556
101324.551
101324.544
101324.536
101324.526
101324.514
101324.501
101324.485
101324.467
101324.447
101324.425
101324.401
101324.374
101324.344
101324.311
101324.276
101324.238
101324.196
101324.151
101324.102
101324.05
101323.993
101323.933
101323.867
101323.797
101323.722
101323.642
101323.557
101323.465
101323.367
101323.263
101323.152
101323.034
101322.908
101322.774
101322.631
101322.479
101322.316
101322.142
101321.955
101321.753
101321.535
101321.298
101321.041
101320.762
101320.466
101320.151
101319.814
101319.435
101318.999
101318.512
101317.961
101317.413
101316.843
101316.166
101315.389
101314.496
101313.506
101312.374
101311.11
101309.748
101308.201
101306.187
101303.761
101301.74
101299.58
101296.748
101294.059
101291.072
101286.725
101325.448
101325.456
101325.464
101325.471
101325.476
101325.481
101325.484
101325.487
101325.488
101325.488
101325.486
101325.483
101325.479
101325.473
101325.466
101325.457
101325.446
101325.434
101325.42
101325.404
101325.386
101325.366
101325.343
101325.319
101325.291
101325.262
101325.229
101325.193
101325.155
101325.113
101325.068
101325.019
101324.967
101324.91
101324.849
101324.784
101324.714
101324.639
101324.559
101324.474
101324.383
101324.286
101324.182
101324.072
101323.956
101323.832
101323.7
101323.561
101323.413
101323.255
101323.087
101322.908
101322.717
101322.513
101322.284
101322.027
101321.745
101321.433
101321.111
101320.773
101320.394
101319.97
101319.424
101318.793
101318.126
101317.366
101316.514
101315.537
101314.434
101313.218
101311.867
101310.373
101308.718
101306.753
101304.275
101301.362
101298.645
101295.991
101293.287
101290.273
101326.518
101326.526
101326.534
101326.542
101326.548
101326.554
101326.559
101326.562
101326.565
101326.567
101326.568
101326.567
101326.566
101326.563
101326.559
101326.553
101326.547
101326.539
101326.529
101326.518
101326.505
101326.49
101326.474
101326.455
101326.435
101326.412
101326.388
101326.361
101326.331
101326.299
101326.264
101326.226
101326.185
101326.141
101326.093
101326.042
101325.988
101325.929
101325.866
101325.799
101325.728
101325.652
101325.571
101325.485
101325.394
101325.297
101325.195
101325.086
101324.971
101324.849
101324.718
101324.578
101324.428
101324.267
101324.094
101323.899
101323.682
101323.44
101323.169
101322.872
101322.541
101322.167
101321.744
101321.24
101320.66
101320.004
101319.262
101318.41
101317.432
101316.316
101315.039
101313.598
101311.942
101310.045
101307.883
101305.365
101302.569
101299.495
101296.397
101293.182
101327.716
101327.724
101327.732
101327.74
101327.747
101327.754
101327.76
101327.765
101327.77
101327.774
101327.777
101327.779
101327.781
101327.781
101327.781
101327.779
101327.777
101327.773
101327.769
101327.763
101327.756
101327.747
101327.738
101327.727
101327.714
101327.7
101327.684
101327.666
101327.647
101327.625
101327.601
101327.576
101327.548
101327.517
101327.485
101327.449
101327.411
101327.37
101327.327
101327.28
101327.231
101327.178
101327.122
101327.062
101327
101326.933
101326.863
101326.79
101326.712
101326.63
101326.542
101326.448
101326.348
101326.238
101326.12
101325.989
101325.845
101325.684
101325.504
101325.298
101325.063
101324.789
101324.469
101324.094
101323.653
101323.136
101322.537
101321.84
101321.025
101320.077
101318.981
101317.702
101316.199
101314.453
101312.423
101310.054
101307.3
101304.185
101300.377
101296.785
101328.998
101329.006
101329.015
101329.023
101329.031
101329.038
101329.045
101329.052
101329.058
101329.064
101329.069
101329.074
101329.078
101329.082
101329.085
101329.088
101329.089
101329.091
101329.091
101329.091
101329.09
101329.088
101329.085
101329.082
101329.077
101329.072
101329.065
101329.057
101329.049
101329.039
101329.028
101329.015
101329.001
101328.986
101328.97
101328.952
101328.933
101328.912
101328.89
101328.866
101328.842
101328.815
101328.788
101328.759
101328.729
101328.698
101328.666
101328.633
101328.598
101328.563
101328.526
101328.488
101328.447
101328.402
101328.352
101328.297
101328.234
101328.162
101328.078
101327.977
101327.855
101327.706
101327.522
101327.293
101327.009
101326.659
101326.23
101325.709
101325.082
101324.33
101323.437
101322.368
101321.092
101319.575
101317.783
101315.699
101313.312
101310.588
101307.407
101303.925
101330.333
101330.34
101330.349
101330.357
101330.365
101330.373
101330.38
101330.388
101330.396
101330.403
101330.411
101330.418
101330.425
101330.431
101330.438
101330.444
101330.45
101330.456
101330.461
101330.466
101330.471
101330.475
101330.479
101330.483
101330.487
101330.49
101330.493
101330.495
101330.497
101330.498
101330.5
101330.5
101330.501
101330.501
101330.501
101330.501
101330.501
101330.5
101330.5
101330.5
101330.501
101330.502
101330.504
101330.507
101330.511
101330.517
101330.525
101330.534
101330.546
101330.561
101330.579
101330.599
101330.623
101330.648
101330.675
101330.702
101330.73
101330.755
101330.777
101330.791
101330.795
101330.781
101330.744
101330.674
101330.56
101330.39
101330.149
101329.823
101329.396
101328.853
101328.172
101327.33
101326.298
101325.059
101323.594
101321.892
101319.92
101317.728
101315.254
101312.675
101331.679
101331.685
101331.693
101331.7
101331.708
101331.716
101331.724
101331.733
101331.741
101331.75
101331.759
101331.767
101331.776
101331.785
101331.794
101331.804
101331.813
101331.822
101331.832
101331.842
101331.852
101331.862
101331.872
101331.882
101331.893
101331.904
101331.915
101331.926
101331.938
101331.95
101331.963
101331.976
101331.99
101332.004
101332.02
101332.036
101332.054
101332.073
101332.094
101332.116
101332.141
101332.169
101332.199
101332.233
101332.27
101332.312
101332.358
101332.41
101332.467
101332.531
101332.602
101332.681
101332.767
101332.861
101332.963
101333.073
101333.189
101333.312
101333.439
101333.568
101333.697
101333.821
101333.933
101334.026
101334.089
101334.11
101334.075
101333.968
101333.771
101333.466
101333.033
101332.448
101331.694
101330.766
101329.628
101328.25
101326.533
101324.527
101321.927
101319.319
101333
101333.005
101333.012
101333.018
101333.026
101333.033
101333.041
101333.049
101333.058
101333.067
101333.077
101333.087
101333.097
101333.107
101333.119
101333.13
101333.142
101333.155
101333.168
101333.181
101333.195
101333.21
101333.225
101333.241
101333.258
101333.276
101333.294
101333.314
101333.334
101333.355
101333.378
101333.402
101333.427
101333.454
101333.484
101333.515
101333.549
101333.585
101333.624
101333.667
101333.714
101333.766
101333.822
101333.884
101333.951
101334.026
101334.108
101334.198
101334.298
101334.407
101334.528
101334.659
101334.804
101334.962
101335.133
101335.319
101335.519
101335.733
101335.96
101336.198
101336.446
101336.701
101336.957
101337.209
101337.448
101337.663
101337.841
101337.968
101338.026
101337.994
101337.852
101337.577
101337.165
101336.611
101335.886
101334.949
101333.755
101332.289
101330.371
101328.107
101334.268
101334.272
101334.276
101334.282
101334.287
101334.294
101334.301
101334.308
101334.316
101334.325
101334.335
101334.345
101334.356
101334.367
101334.379
101334.392
101334.406
101334.42
101334.436
101334.452
101334.469
101334.487
101334.506
101334.526
101334.547
101334.57
101334.594
101334.619
101334.646
101334.675
101334.706
101334.739
101334.774
101334.812
101334.852
101334.896
101334.943
101334.994
101335.049
101335.109
101335.174
101335.245
101335.323
101335.408
101335.501
101335.603
101335.716
101335.839
101335.974
101336.123
101336.286
101336.465
101336.661
101336.874
101337.106
101337.357
101337.63
101337.923
101338.237
101338.572
101338.926
101339.298
101339.684
101340.08
101340.479
101340.874
101341.254
101341.605
101341.913
101342.16
101342.321
101342.371
101342.311
101342.135
101341.815
101341.322
101340.626
101339.677
101338.466
101336.769
101335.444
101335.445
101335.447
101335.45
101335.454
101335.458
101335.464
101335.47
101335.476
101335.484
101335.493
101335.502
101335.513
101335.524
101335.536
101335.55
101335.564
101335.579
101335.596
101335.614
101335.633
101335.653
101335.675
101335.699
101335.724
101335.75
101335.779
101335.809
101335.842
101335.877
101335.914
101335.954
101335.997
101336.043
101336.092
101336.145
101336.202
101336.264
101336.329
101336.401
101336.48
101336.568
101336.665
101336.771
101336.886
101337.011
101337.149
101337.298
101337.462
101337.64
101337.836
101338.05
101338.284
101338.539
101338.818
101339.121
101339.45
101339.806
101340.19
101340.601
101341.04
101341.505
101341.995
101342.507
101343.037
101343.578
101344.122
101344.66
101345.178
101345.66
101346.087
101346.435
101346.678
101346.815
101346.839
101346.713
101346.406
101345.83
101345.055
101343.31
101336.515
101336.513
101336.512
101336.512
101336.513
101336.515
101336.518
101336.522
101336.527
101336.533
101336.54
101336.548
101336.557
101336.568
101336.579
101336.592
101336.606
101336.622
101336.639
101336.657
101336.677
101336.698
101336.721
101336.745
101336.772
101336.801
101336.832
101336.866
101336.901
101336.94
101336.981
101337.025
101337.073
101337.125
101337.181
101337.242
101337.309
101337.382
101337.462
101337.548
101337.638
101337.734
101337.838
101337.951
101338.075
101338.21
101338.356
101338.515
101338.686
101338.885
101339.114
101339.362
101339.631