/*--------------------------------*- C++ -*----------------------------------*\
  =========                 |
  \\      /  F ield         | OpenFOAM: The Open Source CFD Toolbox
   \\    /   O peration     | Website:  https://openfoam.org
    \\  /    A nd           | Version:  8
     \\/     M anipulation  |
\*---------------------------------------------------------------------------*/
FoamFile
{
    version     2.0;
    format      ascii;
    class       volScalarField;
    location    "0.021";
    object      p_rgh;
}
// * * * * * * * * * * * * * * * * * * * * * * * * * * * * * * * * * * * * * //

dimensions      [1 -1 -2 0 0 0 0];

internalField   nonuniform List<scalar> 
42400
(
101338.924
101338.913
101338.9
101338.889
101338.879
101338.871
101338.863
101338.857
101338.852
101338.849
101338.846
101338.845
101338.845
101338.847
101338.85
101338.855
101338.861
101338.868
101338.877
101338.887
101338.899
101338.912
101338.926
101338.942
101338.96
101338.978
101338.998
101339.02
101339.043
101339.067
101339.093
101339.121
101339.149
101339.18
101339.212
101339.245
101339.28
101339.324
101339.38
101339.441
101339.497
101339.538
101339.575
101339.614
101339.658
101339.719
101339.794
101339.875
101339.96
101340.051
101340.144
101340.258
101340.392
101340.545
101340.695
101340.841
101341.02
101341.232
101341.471
101341.727
101342.01
101342.321
101342.668
101343.053
101343.464
101343.897
101344.375
101344.818
101345.253
101346.068
101346.428
101346.299
101347.964
101349.866
101350.114
101349.351
101349.571
101354.376
101359.749
101358.879
101338.456
101338.447
101338.437
101338.428
101338.42
101338.414
101338.408
101338.403
101338.4
101338.397
101338.396
101338.396
101338.397
101338.399
101338.403
101338.408
101338.414
101338.421
101338.43
101338.439
101338.45
101338.463
101338.476
101338.491
101338.507
101338.524
101338.542
101338.562
101338.582
101338.604
101338.626
101338.65
101338.674
101338.699
101338.731
101338.772
101338.816
101338.851
101338.872
101338.891
101338.915
101338.95
101338.995
101339.043
101339.093
101339.145
101339.2
101339.264
101339.348
101339.447
101339.534
101339.607
101339.705
101339.831
101339.979
101340.137
101340.312
101340.511
101340.739
101341.003
101341.305
101341.643
101342.014
101342.425
101342.883
101343.379
101343.963
101344.568
101345.025
101345.865
101346.874
101347.026
101348.003
101349.846
101350.194
101351.701
101356.386
101358.875
101358.622
101361.014
101337.851
101337.844
101337.837
101337.83
101337.824
101337.82
101337.816
101337.813
101337.811
101337.81
101337.81
101337.811
101337.813
101337.817
101337.822
101337.827
101337.834
101337.843
101337.852
101337.863
101337.874
101337.887
101337.902
101337.917
101337.933
101337.951
101337.97
101337.989
101338.01
101338.031
101338.055
101338.084
101338.115
101338.15
101338.177
101338.195
101338.212
101338.235
101338.266
101338.302
101338.339
101338.377
101338.416
101338.452
101338.5
101338.564
101338.642
101338.692
101338.728
101338.8
101338.894
101338.991
101339.096
101339.215
101339.352
101339.513
101339.702
101339.921
101340.172
101340.462
101340.795
101341.183
101341.628
101342.138
101342.715
101343.342
101344.074
101344.928
101345.657
101346.586
101347.661
101348.408
101349.286
101352.182
101354.317
101355.773
101357.772
101359.89
101362.857
101364.228
101337.143
101337.137
101337.131
101337.126
101337.122
101337.119
101337.116
101337.115
101337.114
101337.115
101337.117
101337.12
101337.124
101337.129
101337.135
101337.143
101337.152
101337.162
101337.174
101337.187
101337.201
101337.217
101337.234
101337.252
101337.272
101337.292
101337.314
101337.339
101337.366
101337.395
101337.422
101337.446
101337.469
101337.493
101337.521
101337.555
101337.59
101337.626
101337.663
101337.699
101337.732
101337.777
101337.843
101337.893
101337.922
101337.966
101338.026
101338.099
101338.168
101338.244
101338.329
101338.429
101338.546
101338.68
101338.836
101339.015
101339.228
101339.48
101339.777
101340.128
101340.541
101341.025
101341.581
101342.226
101342.96
101343.786
101344.707
101345.837
101346.851
101347.957
101350.466
101353.328
101354.247
101354.27
101355.716
101359.09
101360.808
101361.987
101363.532
101365.568
101336.341
101336.337
101336.332
101336.328
101336.324
101336.322
101336.321
101336.32
101336.321
101336.323
101336.326
101336.331
101336.337
101336.344
101336.353
101336.363
101336.375
101336.388
101336.404
101336.42
101336.438
101336.456
101336.476
101336.499
101336.524
101336.55
101336.578
101336.607
101336.637
101336.668
101336.701
101336.737
101336.775
101336.814
101336.853
101336.894
101336.934
101336.971
101337.018
101337.084
101337.134
101337.164
101337.21
101337.27
101337.331
101337.392
101337.458
101337.532
101337.614
101337.706
101337.811
101337.929
101338.068
101338.232
101338.427
101338.66
101338.934
101339.259
101339.64
101340.088
101340.61
101341.225
101341.915
101342.714
101343.57
101344.538
101345.413
101346.68
101349.138
101351.513
101352.509
101353.363
101355.283
101356.597
101358.3
101360.145
101361.662
101363.229
101365.047
101366.931
101335.439
101335.435
101335.43
101335.426
101335.423
101335.422
101335.421
101335.422
101335.424
101335.427
101335.432
101335.438
101335.447
101335.457
101335.468
101335.482
101335.497
101335.513
101335.531
101335.551
101335.575
101335.602
101335.631
101335.662
101335.694
101335.728
101335.764
101335.802
101335.842
101335.883
101335.926
101335.97
101336.016
101336.063
101336.106
101336.159
101336.228
101336.283
101336.321
101336.374
101336.439
101336.502
101336.566
101336.634
101336.706
101336.784
101336.869
101336.963
101337.068
101337.189
101337.33
101337.495
101337.69
101337.922
101338.195
101338.518
101338.898
101339.342
101339.86
101340.464
101341.159
101341.957
101342.842
101343.827
101344.895
101346.242
101348.765
101350.512
101351.186
101352.133
101353.552
101355.388
101357.373
101359.536
101361.084
101362.469
101364.521
101366.674
101368.487
101370.112
101334.424
101334.419
101334.414
101334.41
101334.408
101334.407
101334.408
101334.41
101334.413
101334.418
101334.424
101334.433
101334.443
101334.456
101334.47
101334.487
101334.507
101334.53
101334.556
101334.584
101334.613
101334.645
101334.68
101334.717
101334.756
101334.798
101334.842
101334.888
101334.937
101334.988
101335.04
101335.09
101335.149
101335.223
101335.284
101335.331
101335.393
101335.466
101335.536
101335.607
101335.681
101335.758
101335.84
101335.927
101336.022
101336.126
101336.243
101336.375
101336.527
101336.704
101336.911
101337.156
101337.444
101337.782
101338.178
101338.642
101339.184
101339.815
101340.549
101341.387
101342.354
101343.443
101344.705
101346.019
101347.644
101348.999
101349.925
101351.32
101353.092
101354.876
101356.52
101358.239
101359.907
101361.584
101363.23
101365.007
101366.841
101368.472
101370.035
101371.42
101333.253
101333.248
101333.243
101333.24
101333.239
101333.239
101333.241
101333.245
101333.251
101333.259
101333.269
101333.281
101333.295
101333.313
101333.333
101333.355
101333.38
101333.408
101333.438
101333.472
101333.508
101333.547
101333.589
101333.634
101333.682
101333.732
101333.786
101333.841
101333.896
101333.959
101334.035
101334.101
101334.157
101334.226
101334.305
101334.382
101334.46
101334.541
101334.626
101334.715
101334.809
101334.91
101335.019
101335.138
101335.271
101335.42
101335.59
101335.785
101336.011
101336.275
101336.583
101336.941
101337.355
101337.832
101338.382
101339.015
101339.74
101340.562
101341.527
101342.562
101343.609
101344.821
101346.107
101347.718
101349.347
101350.808
101352.444
101353.752
101354.983
101356.184
101357.558
101359.544
101361.41
101362.928
101364.532
101366.066
101367.56
101369.386
101371.306
101373.203
101331.9
101331.896
101331.893
101331.891
101331.892
101331.894
101331.898
101331.905
101331.914
101331.926
101331.941
101331.957
101331.976
101331.998
101332.023
101332.051
101332.082
101332.116
101332.154
101332.194
101332.238
101332.285
101332.336
101332.39
101332.446
101332.503
101332.567
101332.644
101332.713
101332.775
101332.849
101332.931
101333.014
101333.098
101333.185
101333.277
101333.373
101333.474
101333.582
101333.697
101333.821
101333.958
101334.109
101334.278
101334.47
101334.69
101334.942
101335.233
101335.569
101335.955
101336.396
101336.896
101337.46
101338.084
101338.766
101339.51
101340.282
101341.014
101342.003
101343.681
101345.514
101347.178
101348.74
101349.875
101350.644
101352.027
101353.796
101355.233
101356.614
101358.192
101359.824
101360.848
101362.09
101364.515
101366.515
101367.913
101369.402
101371.024
101372.711
101374.44
101330.329
101330.327
101330.327
101330.328
101330.332
101330.338
101330.346
101330.357
101330.37
101330.386
101330.405
101330.427
101330.453
101330.481
101330.513
101330.548
101330.587
101330.629
101330.674
101330.724
101330.777
101330.833
101330.891
101330.955
101331.03
101331.101
101331.166
101331.243
101331.328
101331.413
101331.501
101331.593
101331.69
101331.791
101331.897
101332.01
101332.13
101332.259
101332.399
101332.553
101332.723
101332.914
101333.13
101333.376
101333.657
101333.981
101334.355
101334.784
101335.275
101335.837
101336.475
101337.199
101338.019
101338.935
101339.95
101341.092
101342.343
101343.708
101345.257
101346.391
101347.133
101348.031
101349.279
101350.891
101352.929
101354.506
101355.271
101356.413
101358.22
101359.703
101361.423
101363.693
101364.992
101365.729
101367.12
101369.384
101371.267
101372.934
101374.68
101376.169
101328.507
101328.509
101328.512
101328.518
101328.526
101328.536
101328.549
101328.566
101328.585
101328.607
101328.633
101328.663
101328.695
101328.732
101328.772
101328.816
101328.864
101328.915
101328.97
101329.028
101329.091
101329.165
101329.236
101329.305
101329.383
101329.469
101329.556
101329.647
101329.742
101329.841
101329.945
101330.055
101330.171
101330.294
101330.426
101330.568
101330.722
101330.891
101331.079
101331.289
101331.527
101331.796
101332.103
101332.454
101332.857
101333.317
101333.84
101334.433
101335.1
101335.846
101336.677
101337.601
101338.619
101339.742
101340.958
101342.195
101343.49
101344.823
101346.169
101347.42
101348.655
101349.961
101351.21
101352.512
101353.756
101354.972
101356.556
101358.191
101359.884
101361.94
101363.623
101364.924
101366.448
101368.878
101370.578
101371.513
101372.968
101375.166
101377.347
101379.446
101326.394
101326.4
101326.409
101326.42
101326.434
101326.451
101326.471
101326.494
101326.521
101326.552
101326.586
101326.625
101326.667
101326.713
101326.763
101326.817
101326.875
101326.942
101327.012
101327.08
101327.152
101327.232
101327.318
101327.406
101327.499
101327.596
101327.697
101327.804
101327.916
101328.034
101328.16
101328.293
101328.436
101328.59
101328.758
101328.942
101329.147
101329.376
101329.633
101329.924
101330.254
101330.63
101331.056
101331.54
101332.087
101332.701
101333.382
101334.132
101334.95
101335.823
101336.737
101337.705
101338.662
101339.918
101341.551
101343.171
101344.63
101346.016
101347.352
101348.734
101350.161
101351.303
101352.524
101353.899
101355.502
101357.114
101358.608
101360.14
101361.939
101364.16
101366.142
101367.654
101368.947
101370.409
101372.4
101374.654
101376.498
101378.098
101379.641
101381.403
101323.954
101323.966
101323.982
101324
101324.022
101324.047
101324.076
101324.108
101324.145
101324.185
101324.23
101324.279
101324.331
101324.389
101324.454
101324.52
101324.589
101324.665
101324.746
101324.832
101324.921
101325.015
101325.114
101325.217
101325.326
101325.44
101325.561
101325.688
101325.823
101325.967
101326.122
101326.29
101326.473
101326.675
101326.899
101327.15
101327.432
101327.751
101328.111
101328.52
101328.982
101329.504
101330.091
101330.748
101331.477
101332.282
101333.165
101334.129
101335.182
101336.297
101337.49
101339.049
101341.108
101342.659
101343.627
101344.569
101345.83
101347.46
101348.767
101349.95
101351.338
101352.907
101354.526
101356.09
101357.65
101359.033
101360.599
101362.506
101364.424
101366.248
101367.822
101369.33
101371.101
101372.783
101374.408
101375.974
101377.578
101379.587
101381.937
101384.13
101321.144
101321.164
101321.189
101321.217
101321.248
101321.283
101321.323
101321.366
101321.414
101321.466
101321.523
101321.586
101321.652
101321.721
101321.797
101321.878
101321.963
101322.053
101322.148
101322.248
101322.353
101322.464
101322.58
101322.702
101322.831
101322.967
101323.113
101323.268
101323.435
101323.617
101323.816
101324.036
101324.28
101324.553
101324.861
101325.208
101325.601
101326.046
101326.549
101327.116
101327.753
101328.466
101329.259
101330.133
101331.093
101332.138
101333.265
101334.473
101335.757
101337.053
101338.624
101340.302
101341.365
101342.43
101343.853
101345.36
101346.958
101348.508
101349.934
101351.504
101353.26
101354.893
101356.288
101357.569
101358.767
101360.529
101362.866
101364.4
101365.532
101366.776
101368.614
101370.875
101372.857
101374.803
101376.919
101379.173
101381.166
101383.007
101384.42
101385.936
101317.928
101317.958
101317.994
101318.033
101318.076
101318.123
101318.175
101318.231
101318.292
101318.357
101318.427
101318.503
101318.583
101318.669
101318.759
101318.854
101318.955
101319.06
101319.172
101319.288
101319.411
101319.541
101319.677
101319.822
101319.976
101320.141
101320.319
101320.512
101320.723
101320.957
101321.215
101321.504
101321.828
101322.193
101322.604
101323.068
101323.589
101324.174
101324.828
101325.555
101326.36
101327.245
101328.213
101329.261
101330.392
101331.597
101332.874
101334.223
101335.574
101336.951
101338.458
101339.596
101340.79
101342.436
101344.1
101345.649
101347.247
101349.078
101350.901
101352.528
101354.006
101355.402
101357.01
101359.131
101361.218
101362.85
101364.17
101365.567
101367.314
101369.398
101371.253
101372.811
101374.843
101377.855
101380.073
101381.392
101382.825
101384.491
101386.576
101388.749
101314.283
101314.325
101314.375
101314.428
101314.484
101314.545
101314.611
101314.681
101314.757
101314.837
101314.922
101315.013
101315.109
101315.21
101315.317
101315.429
101315.547
101315.671
101315.801
101315.939
101316.084
101316.239
101316.403
101316.58
101316.77
101316.977
101317.204
101317.454
101317.731
101318.04
101318.385
101318.772
101319.207
101319.695
101320.24
101320.849
101321.524
101322.27
101323.087
101323.976
101324.936
101325.961
101327.048
101328.165
101329.321
101330.632
101332.335
101334.29
101336.152
101338.015
101339.317
101340.364
101342.026
101343.921
101345.717
101347.39
101348.999
101350.549
101351.917
101353.346
101354.827
101356.472
101358.544
101360.455
101362.292
101364.475
101366.68
101368.511
101370.099
101371.519
101373.112
101375.317
101377.576
101379.692
101381.926
101383.756
101385.401
101387.089
101388.981
101390.648
101310.2
101310.255
101310.321
101310.388
101310.46
101310.536
101310.618
101310.704
101310.795
101310.892
101310.994
101311.102
101311.216
101311.335
101311.461
101311.594
101311.733
101311.881
101312.038
101312.204
101312.383
101312.575
101312.783
101313.01
101313.259
101313.534
101313.84
101314.18
101314.561
101314.989
101315.468
101316.005
101316.605
101317.275
101318.018
101318.839
101319.741
101320.726
101321.796
101322.949
101324.185
101325.488
101326.885
101328.47
101330.521
101332.882
101334.649
101335.816
101336.906
101337.983
101339.402
101341.47
101343.177
101344.735
101346.631
101348.387
101349.72
101351.072
101353.243
101355.448
101357.443
101359.441
101360.881
101362.325
101364.244
101365.897
101367.351
101369.526
101372.033
101374.26
101376.376
101378.101
101379.719
101381.342
101383.083
101385.148
101387.409
101389.974
101392.092
101393.955
101305.705
101305.776
101305.858
101305.943
101306.031
101306.124
101306.222
101306.325
101306.434
101306.549
101306.669
101306.796
101306.93
101307.071
101307.22
101307.378
101307.546
101307.725
101307.918
101308.126
101308.352
101308.598
101308.87
101309.17
101309.504
101309.876
101310.291
101310.757
101311.278
101311.861
101312.511
101313.234
101314.033
101314.914
101315.877
101316.924
101318.057
101319.273
101320.57
101321.928
101323.357
101324.827
101326.775
101329.251
101330.931
101331.912
101333.028
101334.586
101336.4
101338.393
101340.369
101342.364
101344.299
101345.798
101347.141
101348.926
101351.363
101353.654
101355.253
101356.466
101357.788
101359.698
101362.319
101364.754
101366.193
101367.55
101369.074
101370.664
101372.993
101375.914
101378.331
101380.355
101382.161
101383.729
101385.82
101388.438
101390.731
101392.808
101394.63
101396.994
101300.823
101300.909
101301.01
101301.111
101301.215
101301.324
101301.439
101301.559
101301.685
101301.817
101301.956
101302.102
101302.257
101302.421
101302.596
101302.783
101302.985
101303.203
101303.441
101303.702
101303.989
101304.307
101304.662
101305.058
101305.501
101305.996
101306.552
101307.172
101307.863
101308.631
101309.479
101310.412
101311.432
101312.539
101313.733
101315.012
101316.373
101317.812
101319.307
101320.83
101322.548
101324.441
101326.144
101327.675
101329.19
101330.87
101332.96
101335.22
101337.265
101339.179
101341.083
101342.943
101344.917
101347.02
101349.011
101350.72
101352.145
101353.686
101355.736
101358.125
101360.43
101362.17
101363.552
101364.996
101367.066
101369.723
101372.214
101374.514
101376.317
101377.986
101379.97
101382.283
101385.027
101387.817
101390.166
101392.109
101394.48
101396.381
101397.977
101399.728
101295.667
101295.769
101295.886
101296.004
101296.123
101296.248
101296.378
101296.513
101296.655
101296.805
101296.962
101297.129
101297.307
101297.498
101297.704
101297.928
101298.172
101298.441
101298.738
101299.068
101299.437
101299.849
101300.312
101300.83
101301.412
101302.062
101302.786
101303.591
101304.48
101305.457
101306.523
101307.679
101308.924
101310.253
101311.664
101313.148
101314.699
101316.297
101317.925
101319.652
101321.619
101323.959
101326.038
101327.741
101329.736
101332.081
101333.984
101335.696
101337.574
101339.775
101342.261
101344.317
101346.029
101347.933
101350.149
101352.382
101354.786
101356.818
101358.472
101360.148
101361.891
101364.082
101366.709
101369.136
101371.118
101372.959
101374.973
101376.81
101378.644
101380.573
101382.79
101385.72
101387.877
101389.605
101391.958
101394.323
101396.705
101399.088
101401.22
101403.072
101323.071
101323.077
101323.082
101323.086
101323.089
101323.09
101323.09
101323.088
101323.085
101323.081
101323.075
101323.067
101323.058
101323.047
101323.034
101323.02
101323.004
101322.985
101322.965
101322.942
101322.917
101322.89
101322.86
101322.828
101322.792
101322.754
101322.713
101322.668
101322.621
101322.569
101322.514
101322.455
101322.391
101322.323
101322.251
101322.173
101322.09
101322.002
101321.908
101321.807
101321.7
101321.586
101321.464
101321.335
101321.197
101321.051
101320.894
101320.724
101320.543
101320.35
101320.144
101319.923
101319.686
101319.429
101319.153
101318.854
101318.53
101318.178
101317.794
101317.375
101316.914
101316.405
101315.841
101315.215
101314.518
101313.747
101312.899
101311.971
101311.015
101310.002
101308.867
101307.457
101305.511
101303.598
101301.993
101299.984
101297.574
101295.458
101293.357
101289.484
101323.388
101323.394
101323.4
101323.405
101323.408
101323.41
101323.41
101323.409
101323.406
101323.402
101323.396
101323.389
101323.38
101323.369
101323.356
101323.341
101323.324
101323.306
101323.284
101323.261
101323.235
101323.207
101323.176
101323.142
101323.105
101323.065
101323.022
101322.976
101322.926
101322.871
101322.813
101322.751
101322.684
101322.613
101322.536
101322.455
101322.367
101322.274
101322.175
101322.069
101321.956
101321.836
101321.708
101321.572
101321.427
101321.273
101321.11
101320.936
101320.749
101320.548
101320.332
101320.103
101319.858
101319.595
101319.31
101319.003
101318.67
101318.307
101317.909
101317.472
101316.988
101316.451
101315.853
101315.184
101314.436
101313.594
101312.656
101311.745
101310.731
101309.352
101307.818
101306.397
101304.992
101303.015
101300.87
101299.107
101296.842
101293.572
101290.806
101288.475
101323.913
101323.92
101323.927
101323.932
101323.936
101323.938
101323.94
101323.939
101323.938
101323.934
101323.93
101323.923
101323.915
101323.905
101323.893
101323.879
101323.863
101323.846
101323.826
101323.803
101323.778
101323.751
101323.721
101323.689
101323.653
101323.614
101323.572
101323.526
101323.477
101323.424
101323.367
101323.306
101323.24
101323.169
101323.093
101323.011
101322.924
101322.831
101322.732
101322.626
101322.512
101322.391
101322.262
101322.125
101321.979
101321.822
101321.656
101321.478
101321.288
101321.084
101320.864
101320.628
101320.374
101320.103
101319.811
101319.497
101319.159
101318.795
101318.401
101317.972
101317.505
101316.994
101316.435
101315.81
101315.102
101314.309
101313.422
101312.309
101311.048
101309.785
101308.361
101306.568
101304.728
101303.063
101300.939
101298.463
101296.244
101293.527
101289.688
101285.965
101324.63
101324.638
101324.645
101324.651
101324.656
101324.66
101324.662
101324.663
101324.662
101324.66
101324.657
101324.652
101324.645
101324.637
101324.627
101324.615
101324.602
101324.586
101324.568
101324.548
101324.526
101324.502
101324.475
101324.445
101324.413
101324.377
101324.339
101324.297
101324.252
101324.204
101324.151
101324.095
101324.034
101323.969
101323.899
101323.824
101323.744
101323.659
101323.567
101323.47
101323.366
101323.255
101323.137
101323.012
101322.878
101322.736
101322.584
101322.422
101322.249
101322.063
101321.862
101321.645
101321.409
101321.154
101320.879
101320.588
101320.274
101319.933
101319.55
101319.113
101318.623
101318.069
101317.49
101316.888
101316.218
101315.447
101314.536
101313.534
101312.389
101311.105
101309.718
101308.148
101306.187
101303.763
101301.59
101299.418
101296.591
101293.754
101290.784
101286.701
101325.536
101325.543
101325.552
101325.558
101325.564
101325.569
101325.572
101325.574
101325.575
101325.575
101325.574
101325.571
101325.567
101325.561
101325.554
101325.545
101325.534
101325.522
101325.508
101325.492
101325.474
101325.453
101325.431
101325.406
101325.379
101325.349
101325.317
101325.281
101325.243
101325.201
101325.156
101325.107
101325.055
101324.998
101324.937
101324.872
101324.802
101324.727
101324.647
101324.562
101324.471
101324.373
101324.27
101324.16
101324.043
101323.919
101323.787
101323.647
101323.499
101323.34
101323.172
101322.992
101322.8
101322.592
101322.359
101322.099
101321.819
101321.514
101321.194
101320.852
101320.468
101320.041
101319.513
101318.889
101318.188
101317.409
101316.554
101315.566
101314.429
101313.148
101311.732
101310.232
101308.567
101306.585
101304.09
101301.108
101298.285
101295.499
101292.737
101289.639
101326.594
101326.602
101326.611
101326.618
101326.625
101326.63
101326.635
101326.639
101326.642
101326.644
101326.644
101326.644
101326.642
101326.64
101326.636
101326.63
101326.623
101326.615
101326.606
101326.594
101326.581
101326.567
101326.55
101326.532
101326.512
101326.489
101326.464
101326.437
101326.408
101326.375
101326.34
101326.302
101326.261
101326.217
101326.17
101326.118
101326.064
101326.005
101325.942
101325.875
101325.804
101325.728
101325.647
101325.561
101325.469
101325.372
101325.269
101325.161
101325.045
101324.922
101324.79
101324.65
101324.499
101324.337
101324.16
101323.962
101323.743
101323.5
101323.229
101322.931
101322.598
101322.221
101321.792
101321.289
101320.704
101320.036
101319.282
101318.422
101317.434
101316.303
101315.012
101313.532
101311.831
101309.908
101307.731
101305.2
101302.306
101299.073
101295.717
101292.309
101327.784
101327.792
101327.801
101327.808
101327.816
101327.822
101327.828
101327.834
101327.839
101327.842
101327.845
101327.848
101327.849
101327.85
101327.849
101327.848
101327.845
101327.842
101327.837
101327.831
101327.824
101327.816
101327.806
101327.795
101327.783
101327.768
101327.752
101327.735
101327.715
101327.694
101327.67
101327.644
101327.616
101327.586
101327.553
101327.517
101327.479
101327.438
101327.395
101327.348
101327.298
101327.245
101327.189
101327.129
101327.066
101326.999
101326.929
101326.854
101326.776
101326.693
101326.605
101326.51
101326.407
101326.297
101326.177
101326.044
101325.898
101325.736
101325.553
101325.345
101325.107
101324.829
101324.504
101324.123
101323.675
101323.15
101322.541
101321.834
101321.01
101320.052
101318.947
101317.652
101316.131
101314.372
101312.33
101309.966
101307.239
101304.132
101300.286
101296.535
101329.06
101329.068
101329.077
101329.085
101329.093
101329.101
101329.108
101329.115
101329.121
101329.127
101329.132
101329.137
101329.141
101329.145
101329.148
101329.151
101329.152
101329.154
101329.154
101329.154
101329.153
101329.151
101329.148
101329.145
101329.14
101329.135
101329.128
101329.121
101329.112
101329.102
101329.091
101329.078
101329.065
101329.049
101329.033
101329.015
101328.996
101328.975
101328.953
101328.929
101328.904
101328.877
101328.85
101328.821
101328.79
101328.759
101328.726
101328.692
101328.657
101328.621
101328.583
101328.543
101328.5
101328.454
101328.402
101328.344
101328.279
101328.204
101328.116
101328.011
101327.884
101327.729
101327.538
101327.301
101327.007
101326.644
101326.202
101325.665
101325.02
101324.249
101323.334
101322.242
101320.942
101319.402
101317.588
101315.487
101313.09
101310.378
101307.279
101303.897
101330.392
101330.399
101330.408
101330.416
101330.424
101330.432
101330.44
101330.448
101330.455
101330.463
101330.47
101330.478
101330.484
101330.491
101330.498
101330.504
101330.51
101330.516
101330.521
101330.526
101330.531
101330.536
101330.54
101330.544
101330.548
101330.551
101330.554
101330.556
101330.558
101330.56
101330.561
101330.562
101330.562
101330.563
101330.563
101330.562
101330.562
101330.562
101330.562
101330.562
101330.562
101330.563
101330.565
101330.568
101330.572
101330.577
101330.585
101330.594
101330.605
101330.619
101330.636
101330.656
101330.678
101330.702
101330.727
101330.752
101330.776
101330.799
101330.816
101330.826
101330.823
101330.803
101330.757
101330.677
101330.55
101330.365
101330.105
101329.758
101329.306
101328.734
101328.021
101327.143
101326.071
101324.786
101323.263
101321.486
101319.411
101317.085
101314.411
101311.667
101331.737
101331.743
101331.751
101331.759
101331.767
101331.775
101331.783
101331.791
101331.8
101331.809
101331.817
101331.826
101331.835
101331.845
101331.854
101331.863
101331.873
101331.882
101331.892
101331.902
101331.912
101331.922
101331.933
101331.943
101331.954
101331.965
101331.976
101331.988
101332
101332.012
101332.025
101332.039
101332.053
101332.067
101332.083
101332.1
101332.118
101332.137
101332.158
101332.181
101332.206
101332.233
101332.263
101332.297
101332.335
101332.376
101332.423
101332.474
101332.532
101332.595
101332.666
101332.744
101332.829
101332.922
101333.023
101333.131
101333.245
101333.364
101333.488
101333.613
101333.736
101333.853
101333.956
101334.039
101334.089
101334.095
101334.041
101333.912
101333.689
101333.354
101332.886
101332.26
101331.459
101330.476
101329.272
101327.811
101325.992
101323.859
101321.091
101318.243
101333.059
101333.065
101333.071
101333.078
101333.085
101333.093
101333.101
101333.109
101333.118
101333.127
101333.137
101333.147
101333.157
101333.168
101333.18
101333.191
101333.204
101333.216
101333.229
101333.243
101333.258
101333.273
101333.288
101333.304
101333.321
101333.339
101333.358
101333.378
101333.399
101333.42
101333.443
101333.468
101333.494
101333.521
101333.551
101333.583
101333.617
101333.654
101333.694
101333.737
101333.785
101333.837
101333.893
101333.955
101334.024
101334.099
101334.181
101334.272
101334.372
101334.482
101334.602
101334.734
101334.878
101335.036
101335.207
101335.392
101335.59
101335.802
101336.027
101336.262
101336.506
101336.755
101337.004
101337.247
101337.475
101337.677
101337.839
101337.945
101337.979
101337.919
101337.743
101337.429
101336.971
101336.363
101335.571
101334.556
101333.272
101331.691
101329.662
101327.264
101334.33
101334.334
101334.338
101334.343
101334.349
101334.356
101334.363
101334.371
101334.379
101334.388
101334.398
101334.408
101334.419
101334.431
101334.443
101334.456
101334.47
101334.485
101334.501
101334.517
101334.535
101334.553
101334.572
101334.593
101334.615
101334.638
101334.662
101334.688
101334.716
101334.745
101334.777
101334.81
101334.846
101334.885
101334.926
101334.971
101335.019
101335.07
101335.126
101335.187
101335.253
101335.325
101335.404
101335.49
101335.584
101335.688
101335.801
101335.925
101336.062
101336.212
101336.376
101336.556
101336.753
101336.966
101337.199
101337.452
101337.724
101338.017
101338.33
101338.664
101339.016
101339.385
101339.767
101340.157
101340.549
101340.934
101341.301
101341.637
101341.925
101342.147
101342.279
101342.295
101342.194
101341.967
101341.583
101341.014
101340.223
101339.162
101337.809
101335.928
101335.509
101335.511
101335.513
101335.516
101335.52
101335.524
101335.53
101335.536
101335.543
101335.551
101335.56
101335.569
101335.58
101335.592
101335.604
101335.618
101335.633
101335.649
101335.666
101335.684
101335.703
101335.725
101335.747
101335.771
101335.797
101335.824
101335.853
101335.884
101335.917
101335.953
101335.991
101336.032
101336.076
101336.123
101336.173
101336.228
101336.286
101336.349
101336.416
101336.489
101336.57
101336.66
101336.758
101336.865
101336.982
101337.11
101337.249
101337.4
101337.566
101337.746
101337.944
101338.16
101338.396
101338.655
101338.936
101339.241
101339.573
101339.931
101340.317
101340.729
101341.169
101341.634
101342.124
101342.634
101343.161
101343.697
101344.234
101344.762
101345.266
101345.732
101346.137
101346.456
101346.666
101346.765
101346.737
101346.547
101346.157
101345.477
101344.543
101342.655
101336.584
101336.583
101336.582
101336.582
101336.583
101336.585
101336.588
101336.592
101336.597
101336.604
101336.611
101336.619
101336.629
101336.64
101336.652
101336.665
101336.68
101336.696
101336.713
101336.732
101336.752
101336.774
101336.798
101336.823
101336.851
101336.881
101336.913
101336.947
101336.984
101337.023
101337.065
101337.111
101337.16
101337.213
101337.271
101337.334
101337.402
101337.477
101337.559
101337.647
101337.738
101337.836
101337.942
101338.058
101338.184
101338.322
101338.471
101338.632
101338.808
101339.011
101339.243