/*--------------------------------*- C++ -*----------------------------------*\
  =========                 |
  \\      /  F ield         | OpenFOAM: The Open Source CFD Toolbox
   \\    /   O peration     | Website:  https://openfoam.org
    \\  /    A nd           | Version:  8
     \\/     M anipulation  |
\*---------------------------------------------------------------------------*/
FoamFile
{
    version     2.0;
    format      ascii;
    class       volScalarField;
    location    "0.021";
    object      T;
}
// * * * * * * * * * * * * * * * * * * * * * * * * * * * * * * * * * * * * * //

dimensions      [0 0 0 1 0 0 0];

internalField   nonuniform List<scalar> 
42400
(
472.207103
470.603815
468.958489
467.270238
465.538227
463.761696
461.93997
460.072489
458.158825
456.198713
454.192081
452.139078
450.040115
447.895896
445.707461
443.476227
441.204028
438.893154
436.546397
434.167085
431.759121
429.327012
426.875896
424.411555
421.940431
419.469613
417.006827
414.560403
412.139229
409.752684
407.410562
405.122975
402.900238
400.752748
398.69085
396.724703
394.864129
393.118486
391.496558
390.006445
388.655448
387.449926
386.395215
385.495498
384.753718
384.17144
383.748746
383.484097
383.376919
383.416704
383.59866
383.912783
384.34576
384.881051
385.497789
386.171653
386.86615
387.551465
388.212625
388.731214
388.926672
388.787098
388.112195
387.222727
386.034615
384.47554
382.417295
379.790544
376.502731
372.475792
368.110503
362.914786
356.275098
350.339223
344.925272
338.139529
330.286057
324.168984
318.327065
314.009104
472.240997
470.706256
469.131319
467.515374
465.85767
464.157534
462.414387
460.627772
458.797373
456.923043
455.004838
453.043045
451.038219
448.991221
446.903257
444.775916
442.611213
440.411631
438.180158
435.920328
433.636255
431.332662
429.014909
426.689004
424.361616
422.040064
419.732306
417.446904
415.192975
412.980128
410.818379
408.718054
406.689673
404.74382
402.89101
401.141563
399.505432
397.992025
396.610004
395.367091
394.269855
393.323475
392.531573
391.896015
391.416691
391.091123
390.914469
390.879127
390.973817
391.186568
391.49771
391.884979
392.316792
392.761941
393.192824
393.603796
393.764218
393.65064
393.134616
392.287918
391.19443
389.780248
387.96035
385.59901
382.657578
379.10058
374.912826
370.177274
364.909253
358.945078
352.798406
346.698172
339.631041
332.502131
326.619845
320.99753
315.504547
310.063695
305.965623
302.338896
472.284735
470.838457
469.354367
467.831759
466.269994
464.668519
463.026887
461.344777
459.622022
457.858634
456.054837
454.211095
452.328151
450.407062
448.449237
446.456474
444.431003
442.375523
440.293238
438.187897
436.06382
433.925927
431.779759
429.63149
427.487924
425.356491
423.245218
421.162688
419.11799
417.120643
415.180512
413.307707
411.512452
409.80493
408.195111
406.692553
405.306155
404.043903
402.912588
401.917548
401.062392
400.348692
399.775582
399.339518
399.034439
398.850306
398.773226
398.783661
398.860176
398.976893
399.109481
399.243689
399.215933
398.992795
398.476839
397.607909
396.538348
395.20025
393.522262
391.396774
388.747599
385.536649
381.741592
377.35563
372.411557
366.960396
361.052881
354.826193
348.481286
341.888787
335.223185
329.078589
323.221539
317.437328
312.330769
308.168545
304.825946
302.047531
300.312848
299.916443
472.335066
470.990587
469.611044
468.195855
466.744513
465.256609
463.73185
462.170078
460.571304
458.935725
457.263761
455.556084
453.813653
452.037745
450.229995
448.392431
446.527507
444.638144
442.727752
440.800269
438.860181
436.912539
434.962971
433.017682
431.083445
429.16758
427.277918
425.422745
423.610725
421.850807
420.152107
418.52376
416.974736
415.513626
414.148404
412.886145
411.73274
410.692586
409.768236
408.960001
408.265601
407.680137
407.194852
406.796963
406.471368
406.199771
405.963271
405.71647
405.374612
404.889355
404.2049
403.255954
402.139461
400.798546
399.172735
397.183728
394.7448
391.816722
388.368517
384.382188
379.857799
374.807215
369.279392
363.339906
357.08593
350.627455
344.078205
337.543498
331.263328
325.317136
319.696183
314.616288
310.338669
306.727816
303.839789
301.515899
300.194937
299.933575
299.870832
299.86275
472.388323
471.15156
469.882645
468.581128
467.246646
465.878944
464.477891
463.043507
461.575984
460.075714
458.543317
456.979673
455.385947
453.763628
452.114556
450.440951
448.745446
447.031112
445.30148
443.560562
441.812858
440.063366
438.317569
436.581423
434.861322
433.164051
431.496717
429.86666
428.281334
426.748167
425.274384
423.866797
422.531571
421.273958
420.097994
419.006164
417.999041
417.074924
416.22969
415.456164
414.744262
414.08187
413.450109
412.801101
412.099265
411.303685
410.368488
409.27549
408.039726
406.616133
404.955642
402.996733
400.663903
397.918827
394.7285
391.069205
386.930099
382.313118
377.235553
371.721575
365.826676
359.626474
353.218635
346.705701
340.211716
333.860188
327.793696
322.108684
316.93449
312.392746
308.539553
305.385891
302.980255
301.188633
300.151015
299.933309
299.878083
299.858319
299.850592
299.851179
472.440404
471.30898
470.148255
468.957908
467.737716
466.487571
465.207494
463.897663
462.558432
461.190355
459.794214
458.371041
456.922148
455.449146
453.953977
452.438928
450.906653
449.360185
447.802945
446.238743
444.671769
443.106571
441.548026
440.001292
438.471735
436.964848
435.48613
434.040953
432.634395
431.271043
429.954767
428.688458
427.473756
426.310724
425.197527
424.130252
423.102446
422.104991
421.120266
420.126182
419.096962
418.003666
416.819172
415.542062
414.141686
412.583609
410.827765
408.822693
406.516144
403.871966
400.857346
397.445321
393.617655
389.366143
384.693992
379.616626
374.162983
368.369763
362.29586
356.015897
349.618888
343.206259
336.891286
330.785135
325.004405
319.668743
314.884286
310.72752
307.256343
304.501457
302.461101
301.065476
300.162259
299.953282
299.891701
299.86923
299.860116
299.853365
299.842181
299.829493
472.486679
471.448849
470.38425
469.292671
468.174002
467.028247
465.855537
464.656154
463.430545
462.179346
460.903396
459.60376
458.281743
456.938908
455.577087
454.198389
452.805201
451.400183
449.98626
448.56659
447.144535
445.723609
444.307408
442.899526
441.503446
440.122413
438.759272
437.416295
436.094969
434.795762
433.517854
432.258861
431.014602
429.778721
428.542086
427.291385
426.011035
424.684074
423.294606
421.823112
420.246456
418.537158
416.661477
414.579128
412.258
409.665978
406.772407
403.550191
399.977438
396.038904
391.727441
387.045278
382.00508
376.630642
370.956872
365.027222
358.899034
352.647257
346.357963
340.124263
334.046215
328.230049
322.780272
317.79582
313.363503
309.565825
306.445103
304.013839
302.239563
301.059844
300.330588
300.017124
299.928997
299.898203
299.878892
299.863388
299.847191
299.829765
299.820485
299.818545
472.522202
471.556216
470.565394
469.549597
468.508773
467.442973
466.35236
465.237223
464.097989
462.935235
461.749697
460.542282
459.314069
458.066317
456.800455
455.518078
454.220928
452.910866
451.589838
450.259824
448.922772
447.580518
446.23469
444.886587
443.537038
442.186246
440.833607
439.477509
438.115135
436.742272
435.353107
433.9399
432.492896
431.00005
429.447225
427.819378
426.098017
424.260194
422.282089
420.138879
417.804524
415.252427
412.456306
409.391279
406.035311
402.370206
398.382809
394.066189
389.420734
384.455092
379.187135
373.64448
367.864914
361.896385
355.794926
349.631803
343.487222
337.450928
331.619681
326.09236
320.963594
316.321956
312.240588
308.777879
305.959154
303.78318
302.204906
301.143678
300.499511
300.150231
300.002397
299.944124
299.908295
299.87518
299.848137
299.828478
299.819875
299.818563
299.818509
299.818528
472.542293
471.61693
470.667801
469.69477
468.697771
467.676809
466.631969
465.563418
464.47141
463.356287
462.218477
461.05849
459.876906
458.674378
457.451611
456.209333
454.948261
453.669063
452.372296
451.058344
449.727332
448.379025
447.012703
445.627016
444.219823
442.787973
441.327017
439.830822
438.292155
436.702724
435.052536
433.329895
431.521212
429.611059
427.5823
425.416255
423.092952
420.591505
417.890652
414.969365
411.807529
408.386977
404.692262
400.71161
396.437867
391.869439
387.011186
381.875269
376.481963
370.860324
365.048884
359.095801
353.058042
347.004451
341.015415
335.177427
329.579441
324.312253
319.468032
315.125645
311.34616
308.167752
305.604129
303.636377
302.210253
301.241162
300.627749
300.267695
300.073524
299.96566
299.897449
299.85534
299.830168
299.821049
299.81975
299.818957
299.818893
299.818875
299.819011
299.819507
472.5435
471.620548
470.673812
469.70308
468.70818
467.688979
466.64538
465.577325
464.484781
463.367739
462.226199
461.060152
459.86956
458.654315
457.414216
456.148931
454.857942
453.540479
452.195432
450.821255
449.415837
447.97635
446.499051
444.978227
443.407983
441.782239
440.093933
438.33527
436.49686
434.567418
432.534323
430.383674
428.100401
425.668444
423.07102
420.290964
417.311149
414.114983
410.687099
407.01399
403.084736
398.891767
394.431678
389.706046
384.72226
379.494329
374.043657
368.399855
362.601453
356.696416
350.742189
344.804613
338.960643
333.29554
327.898916
322.858933
318.255571
314.157154
310.614248
307.654638
305.280486
303.461436
302.139016
301.23178
300.644027
300.282752
300.06227
299.931315
299.8609
299.833066
299.826836
299.822932
299.819773
299.818133
299.818415
299.818623
299.818459
299.818624
299.820269
299.822731
472.526124
471.568012
470.585129
469.577162
468.543799
467.484723
466.399603
465.288086
464.149778
462.984237
461.790955
460.569335
459.318072
458.035199
456.718909
455.367388
453.978442
452.549436
451.077236
449.558144
447.987866
446.361485
444.673479
442.918577
441.089943
439.179037
437.176313
435.071255
432.852378
430.507286
428.022789
425.385075
422.579933
419.593047
416.410343
413.018446
409.405184
405.560145
401.475303
397.145704
392.570208
387.752279
382.700823
377.431042
371.965282
366.333808
360.575509
354.738451
348.880077
343.066632
337.371017
331.874087
326.660076
321.811747
317.405622
313.505242
310.15284
307.365497
305.128534
303.404088
302.134775
301.245603
300.654817
300.282818
300.059013
299.926824
299.863104
299.845067
299.835687
299.83122
299.82789
299.824128
299.819913
299.817759
299.81748
299.817924
299.819103
299.820442
299.822571
299.823896
472.489178
471.456315
470.396601
469.309544
468.194603
467.051171
465.878559
464.675756
463.441184
462.173478
460.87102
459.531901
458.154464
456.737179
455.277729
453.773079
452.219737
450.613714
448.950462
447.224814
445.430945
443.562342
441.611753
439.571128
437.431624
435.183604
432.816674
430.319758
427.681206
424.888943
421.930663
418.794086
415.467253
411.938921
408.198997
404.239045
400.052868
395.637159
390.992236
386.12283
381.03895
375.756776
370.299545
364.698381
358.992952
353.231872
347.47274
341.781499
336.231076
330.89823
325.860734
321.194943
316.968524
313.23432
310.0252
307.354051
305.206971
303.546054
302.307867
301.417984
300.803793
300.397434
300.140912
299.98804
299.902925
299.865602
299.851858
299.842621
299.834727
299.827908
299.823033
299.820614
299.819564
299.818604
299.818624
299.819763
299.821234
299.823513
299.82415
299.823917
472.434032
471.289605
470.115225
468.910155
467.673541
466.404397
465.101097
463.76232
462.386919
460.973079
459.518708
458.021401
456.478406
454.886583
453.242354
451.541663
449.779919
447.951977
446.052096
444.073895
442.010335
439.853717
437.595679
435.227212
432.738701
430.119994
427.360493
424.449294
421.375354
418.127718
414.695788
411.069674
407.24061
403.201432
398.947144
394.475562
389.788044
384.890297
379.793239
374.513896
369.076278
363.512162
357.861684
352.173605
346.505123
340.921141
335.492684
330.294165
325.399846
320.879119
316.791676
313.182864
310.078045
307.480464
305.374742
303.724906
302.478977
301.573171
300.939173
300.510564
300.229117
300.052211
299.946947
299.887719
299.858929
299.845838
299.836804
299.829944
299.824716
299.82174
299.820121
299.819919
299.820219
299.821068
299.822734
299.824879
299.826475
299.827565
299.826773
299.825156
472.365085
471.081195
469.763555
468.411192
467.022964
465.597408
464.133178
462.628508
461.081355
459.489366
457.849835
456.159672
454.415364
452.612931
450.747907
448.815294
446.809536
444.724494
442.553438
440.289037
437.923367
435.447931
432.853703
430.131189
427.270521
424.261583
421.094172
417.758199
414.243959
410.542471
406.645869
402.547884
398.244394
393.734068
389.019094
384.105969
379.006352
373.737925
368.325218
362.800308
357.203299
351.582446
345.993787
340.50011
335.169212
330.07148
325.276488
320.848604
316.84242
313.298872
310.24077
307.669986
305.569213
303.903954
302.625278
301.676606
300.999385
300.537194
300.236323
300.049712
299.935683
299.877149
299.848631
299.8364
299.833639
299.831043
299.82807
299.824984
299.822658
299.820804
299.820212
299.820337
299.822006
299.824511
299.827769
299.830902
299.833261
299.834889
299.834531
299.834173
472.285572
470.840865
469.358081
467.83602
466.27326
464.668164
463.018959
461.323472
459.579191
457.783232
455.932302
454.022664
452.050105
450.009898
447.896785
445.704952
443.428022
441.059046
438.590515
436.014383
433.322111
430.504728
427.552924
424.457173
421.207887
417.795618
414.211329
410.446721
406.494626
402.349475
398.007848
393.469103
388.736087
383.815906
378.720737
373.468641
368.084313
362.599705
357.054395
351.495605
345.977716
340.56116
335.310583
330.292223
325.570553
321.204812
317.244949
313.728144
310.675557
308.091606
305.960796
304.25297
302.923835
301.920125
301.186527
300.670089
300.321553
300.098527
299.964763
299.889119
299.860503
299.846297
299.839769
299.835632
299.832921
299.831116
299.829224
299.826067
299.823433
299.821524
299.820709
299.821713
299.82462
299.828151
299.83155
299.833982
299.834823
299.835101
299.835286
299.838522
472.197489
470.574642
468.908952
467.198996
465.443113
463.639447
461.785801
459.879595
457.917856
455.897184
453.813717
451.663102
449.440464
447.14039
444.756914
442.283516
439.713128
437.038163
434.250553
431.341817
428.30315
425.125548
421.799953
418.317468
414.669622
410.84869
406.848077
402.662779
398.289917
393.729351
388.984356
384.062361
378.97571
373.742419
368.386855
362.940274
357.441126
351.934994
346.474071
341.116043
335.922296
330.955485
326.276444
321.940632
317.994223
314.471854
311.392853
308.761337
306.566481
304.78361
303.374565
302.29352
301.490817
300.914002
300.513196
300.245032
300.072391
299.966171
299.904956
299.872767
299.852135
299.840825
299.835418
299.831045
299.828045
299.826578
299.826298
299.826245
299.826941
299.826874
299.825989
299.825595
299.828198
299.831731
299.833772
299.83399
299.834158
299.832457
299.830275
299.831669
472.102128
470.286426
468.422754
466.509519
464.544832
462.526477
460.451869
458.318019
456.121495
453.858392
451.524298
449.114278
446.622853
444.043996
441.371145
438.597218
435.714662
432.715511
429.591479
426.33408
422.934772
419.385175
415.677324
411.803979
407.759003
403.537799
399.137829
394.559193
389.805279
384.883448
379.805754
374.589639
369.258553
363.842433
358.377949
352.908422
347.483303
342.15713
336.987887
332.034729
327.355184
323.002093
319.020363
315.444153
312.293369
309.57389
307.278757
305.387928
303.870832
302.687683
301.792381
301.135601
300.67064
300.35377
300.145964
300.015346
299.93599
299.887756
299.858025
299.840631
299.833226
299.828957
299.82424
299.822335
299.821592
299.821569
299.822214
299.823844
299.826546
299.829594
299.832241
299.833081
299.833399
299.83428
299.834839
299.83431
299.834139
299.831966
299.825084
299.821391
472.000548
469.979422
467.904869
465.775074
463.587887
461.340778
459.030804
456.654573
454.208206
451.687316
449.086988
446.40177
443.625675
440.752202
437.774373
434.684793
431.475735
428.139254
424.667333
421.052086
417.286001
413.362239
409.274988
405.019886
400.594505
395.998901
391.236223
386.31336
381.24161
376.03733
370.722512
365.325232
359.879875
354.427063
349.013185
343.689457
338.510477
333.532249
328.809754
324.39413
320.329801
316.651998
313.384382
310.537201
308.108623
306.084457
304.438425
303.134646
302.130473
301.380044
300.837407
300.458568
300.204364
300.041569
299.942448
299.885359
299.855306
299.84108
299.836774
299.837188
299.835712
299.831971
299.826745
299.822702
299.821621
299.821463
299.82194
299.823668
299.826634
299.830502
299.832389
299.833979
299.834763
299.835153
299.835493
299.833559
299.832394
299.83379
299.828759
299.81983
471.893645
469.656327
467.359843
465.00216
462.580867
460.093131
457.535665
454.904699
452.195951
449.404617
446.525365
443.552352
440.479249
437.299296
434.005378
430.590132
427.046081
423.365824
419.542264
415.568884
411.440086
407.151579
402.700837
398.087615
393.314519
388.38761
383.317039
378.117658
372.809574
367.418586
361.976433
356.520766
351.094776
345.746398
340.527062
335.489985
330.688082
326.171615
321.985721
318.167949
314.746089
311.736148
309.142073
306.956461
305.159063
303.717771
302.591392
301.735166
301.103439
300.65206
300.340192
300.131975
299.998345
299.917139
299.871507
299.848085
299.838066
299.835686
299.835811
299.835883
299.835826
299.835398
299.835044
299.832246
299.826735
299.824837
299.825326
299.826802
299.828816
299.831254
299.832313
299.833041
299.833375
299.833256
299.833433
299.831264
299.827587
299.827706
299.831121
299.832598
471.782526
469.320499
466.793354
464.198853
461.534338
458.796699
455.982344
453.087178
450.106591
447.035465
443.86819
440.598706
437.22057
433.727043
430.11122
426.366192
422.485258
418.462177
414.291481
409.968839
405.491475
400.858656
396.072219
391.137147
386.062166
380.860329
375.549567
370.153131
364.699875
359.224323
353.766416
348.370906
343.086335
337.963586
333.054054
328.407551
324.070076
320.081623
316.474164
313.269873
310.479431
308.100638
306.117513
304.502591
303.219644
302.227657
301.481926
300.936802
300.54959
300.282652
300.104784
299.990502
299.918585
299.874885
299.849934
299.836818
299.831545
299.829586
299.829092
299.829481
299.831518
299.83355
299.835426
299.836976
299.837765
299.837884
299.837215
299.836697
299.834679
299.833183
299.831955
299.828834
299.827091
299.827317
299.829504
299.829296
299.825006
299.821194
299.82243
299.829313
472.590157
471.761507
470.911332
470.039279
469.144992
468.228112
467.288273
466.325107
465.338239
464.327283
463.291843
462.231509
461.145852
460.034422
458.89674
457.732297
456.540544
455.320887
454.072678
452.795205
451.487682
450.149236
448.778892
447.375559
445.938012
444.464869
442.954572
441.405361
439.81525
438.181995
436.503067
434.775617
432.996447
431.161976
429.268212
427.310717
425.284592
423.184456
421.004438
418.738192
416.378922
413.919441
411.352258
408.669717
405.864174
402.928234
399.855129
396.639115
393.277738
389.770912
386.123365
382.339037
378.427928
374.40605
370.297206
366.133547
361.936261
357.794372
353.773818
349.948209
346.393632
343.181936
340.372813
338.005115
336.088795
334.599804
333.480566
332.648148
332.008791
331.472138
330.9622
330.426389
329.841226
329.199196
328.491075
327.70577
326.829895
325.861786
324.837837
323.890869
472.592347
471.768152
470.922599
470.055372
469.166148
468.254602
467.320403
466.363211
465.382683
464.378463
463.350183
462.297459
461.219885
460.117032
458.988436
457.833599
456.651977
455.442969
454.205915
452.940077
451.644632
450.318655
448.961103
447.570798
446.146407
444.68642
443.189126
441.652587
440.074607
438.452708
436.784093
435.065618
433.293758
431.464578
429.573702
427.616294
425.587038
423.480132
421.289295
419.007791
416.628475
414.143878
411.546318
408.828073
405.981619
402.999948
399.876901
396.609134
393.192631
389.626461
385.91322
382.059497
378.076903
373.98292
369.802031
365.572062
361.345059
357.183121
353.156003
349.338331
345.80507
342.624524
339.847962
337.50562
335.60079
334.107132
332.972514
332.123523
331.475836
330.944811
330.454481
329.944886
329.379646
328.751561
328.071987
327.348112
326.577973
325.758201
324.94212
324.248585
472.591086
471.76436
470.91625
470.046465
469.154705
468.240668
467.304043
466.344515
465.36176
464.355443
463.325217
462.270717
461.191559
460.087329
458.957584
457.801837
456.619559
455.410158
454.172979
452.907285
451.612248
450.286933
448.930278
447.54108
446.117973
444.659403
443.163606
441.62858
440.052057
438.43147
436.763925
435.046167
433.27455
431.445006
429.55302
427.593604
425.561288
423.45011
421.253629
418.96495
416.576774
414.081485
411.471267
408.738283
405.874894
402.873965
399.729231
396.435767
392.990431
389.392665
385.645376
381.755984
377.737788
373.611455
369.40725
365.163887
360.939858
356.794382
352.794441
349.009167
345.500472
342.305578
339.530792
337.186701
335.268953
333.753873
332.58944
331.718211
331.051427
330.507508
330.019084
329.530924
329.00296
328.413198
327.761364
327.065799
326.35413
325.699234
325.037597
324.523263
472.586212
471.749649
470.891485
470.011445
469.10925
468.184615
467.237249
466.266855
465.273129
464.25576
463.214425
462.148786
461.058489
459.943154
458.802373
457.6357
456.442647
455.222669
453.975155
452.699416
451.394672
450.06003
448.69447
447.296831
445.865787
444.39983
442.897239
441.356058
439.774059
438.148713
436.477161
434.756175
432.982129
431.150968
429.258179
427.29877
425.26725
423.15762
420.963376
418.677531
416.292675
413.801107
411.194991
408.466559
405.608287
402.613178
399.475168
396.189628
392.753943
389.168208
385.435952
381.564891
377.567507
373.458583
369.269438
365.041986
360.829181
356.690139
352.692734
348.908809
345.40919
342.261135
339.49785
337.149213
335.212882
333.662692
332.492801
331.488712
330.736605
330.148578
329.643948
329.170666
328.676742
328.131886
327.52855
326.897752
326.330349
325.69438
325.169346
324.793394
472.57748
471.723279
470.847048
469.948529
469.027455
468.083554
467.116551
466.126167
465.112119
464.074122
463.011883
461.925104
460.813477
459.676676
458.514361
457.326164
456.111687
454.870498
453.602124
452.306042
450.981675
449.628136
448.244408
446.829319
445.381552
443.899802
442.382551
440.828042
439.234248
437.598844
435.919174
434.192216
432.414551
430.582324
428.691216
426.7364
424.7125
422.613524
420.432733
418.16238
415.79367
413.319106
410.731863
408.027146
405.19859
402.239275
399.143576
395.9075
392.528749
389.007301
385.346086
381.55187
377.634819
373.607716
369.499526
365.34778
361.199091
357.108772
353.140316
349.362252
345.843109
342.644929
339.815917
337.386538
335.365896
333.740554
332.467217
331.508502
330.631725
329.946371
329.416089
328.86813
328.365372
327.876074
327.38845
326.90727
326.311022
325.772775
325.333607
325.040715
472.564643
471.684497
470.781668
469.8559
468.906929
467.934488
466.938308
465.918115
464.87364
463.804612
462.710761
461.591817
460.447507
459.277553
458.081672
456.859474
455.610465
454.334203
453.030226
451.698005
450.336923
448.946495
447.526165
446.075288
444.593082
443.078426
441.530034
439.946423
438.325883
436.666441
434.96583
433.22145
431.430332
429.589107
427.693974
425.740681
423.724522
421.640358
419.48272
417.246035
414.924672
412.510897
409.995673
407.367775
404.617015
401.733073
398.716329
395.571497
392.296101
388.890067
385.356791
381.698287
377.913096
374.01373
370.024545
365.978848
361.918459
357.894219
353.965291
350.196513
346.654311
343.401079
340.488673
337.952583
335.807609
334.044862
332.6301
331.505777
330.629624
329.922694
329.378605
328.812602
328.347703
327.82679
327.394229
326.910495
326.362591
325.895878
325.535553
325.317659
472.547462
471.63258
470.694121
469.731819
468.745402
467.734593
466.699117
465.638696
464.553059
463.44194
462.305077
461.142215
459.953072
458.737308
457.494654
456.224922
454.927998
453.603666
452.251665
450.871715
449.463505
448.02669
446.560871
445.06558
443.540258
441.984228
440.396676
438.77662
437.122878
435.434035
433.708407
431.944003
430.138478
428.289104
426.392722
424.445715
422.443979
420.382908
418.25739
416.06182
413.790115
411.435708
408.99162
406.450625
403.805714
401.050896
398.173002
395.160023
392.030411
388.784121
385.425055
381.939827
378.33314
374.613908
370.79561
366.906196
362.981592
359.06572
355.210156
351.472755
347.915076
344.598387
341.578382
338.899233
336.587989
334.650206
333.068201
331.804075
330.805555
330.009328
329.354907
328.799158
328.296211
327.819247
327.360695
326.908554
326.478673
326.097011
325.807571
325.653098
472.525739
471.566935
470.583412
469.574886
468.541071
467.481674
466.396408
465.284991
464.147148
462.98262
461.791158
460.572501
459.326477
458.052994
456.751918
455.423141
454.066582
452.68218
451.269894
449.829698
448.361571
446.865492
445.341427
443.789317
442.209059
440.600483
438.963333
437.297232
435.601652
433.875873
432.118948
430.329648
428.506425
426.647356
424.7501
422.811846
420.829281
418.79855
416.715239
414.574367
412.370398
410.097277
407.748491
405.317169
402.796231
400.178572
397.457209
394.625243
391.671274
388.613106
385.45321
382.186465
378.80366
375.310683
371.717667
368.039143
364.304174
360.549337
356.817948
353.159444
349.627951
346.279839
343.170179
340.348181
337.851998
335.703596
333.904928
332.437059
331.262547
330.330988
329.58717
328.97889
328.459078
327.99239
327.557796
327.144382
326.757272
326.41733
326.157349
326.022045
472.499333
471.487138
470.44883
469.384102
468.292644
467.174146
466.028306
464.854834
463.65346
462.423941
461.166071
459.879718
458.564763
457.221136
455.848814
454.447832
453.018279
451.560301
450.074102
448.559942
447.018133
445.449032
443.853039
442.230578
440.582086
438.907991
437.208691
435.484523
433.735724
431.962398
430.164464
428.341608
426.493229
424.618376
422.715695
420.783366
418.819052
416.819846
414.782234
412.702075
410.574593
408.394399
406.155545
403.851614
401.475854
399.021369
396.481383
393.8496
391.115687
388.265975
385.328559
382.306136
379.189904
375.968406
372.647903
369.238841
365.755712
362.224958
358.682336
355.169117
351.73134
348.418335
345.280436
342.365866
339.716881
337.365507
335.329587
333.610261
332.191721
331.043531
330.124898
329.390084
328.793044
328.292968
327.858068
327.466926
327.112284
326.799732
326.556521
326.413668
472.46825
471.3932
470.29039
469.159479
468.00013
466.812014
465.594816
464.348245
463.072041
461.765983
460.4299
459.063676
457.667261
456.240675
454.784016
453.297466
451.781301
450.235888
448.661697
447.059298
445.429361
443.772658
442.090057
440.382509
438.65104
436.896734
435.120704
433.324069
431.507914
429.673248
427.820956
425.951743
424.066072
422.164095
420.245588
418.309879
416.355778
414.381511
412.384668
410.362158
408.310185
406.224244
404.099149
401.929088
399.707717
397.428283
395.083757
392.66696
390.170587
387.587437
384.894224
382.12846
379.292724
376.380247
373.382227
370.295406
367.130532
363.902285
360.62975
357.346028
354.088743
350.899166
347.820778
344.897198
342.169523
339.673239
337.435099
335.470587
333.78256
332.361345
331.186255
330.228017
329.451992
328.823153
328.308662
327.880389
327.511088
327.200152
326.952962
326.803993
472.432781
471.286008
470.10959
468.903146
467.666306
466.39871
465.100022
463.769936
462.408187
461.014562
459.588912
458.131163
456.641326
455.119509
453.565926
451.98091
450.36492
448.718549
447.042536
445.337766
443.60528
441.846273
440.062095
438.254242
436.42435
434.574177
432.705582
430.820495
428.920883
427.008704
425.085854
423.15411
421.215059
419.270026
417.319994
415.365526
413.406682
411.44294
409.473127
407.495356
405.506982
403.504574
401.483919
399.440047
397.367298
395.259431
393.109787
390.911531
388.65802
386.343396
383.963399
381.488642
378.91914
376.299401
373.6313
370.904981
368.112703
365.252265
362.337543
359.385836
356.417853
353.46641
350.566788
347.755589
345.06905
342.541022
340.20078
338.070998
336.166217
334.492054
333.045143
331.813127
330.776863
329.914886
329.203345
328.602379
328.101076
327.691587
327.378419
327.178929
472.393615
471.167638
469.909924
468.620041
467.297571
465.942115
464.553302
463.130802
461.674335
460.183687
458.658724
457.099404
455.505791
453.878074
452.216574
450.521764
448.79428
447.034933
445.244721
443.424841
441.576694
439.701893
437.802264
435.879845
433.936875
431.975785
429.999174
428.009779
426.010446
424.004075
421.993572
419.981778
417.971407
415.964954
413.964612
411.972185
409.988994
408.015788
406.052657
404.098961
402.153268
400.213312
398.275979
396.337311
394.392555
392.436236
390.462286
388.464201
386.435253
384.368741
382.258281
380.098001
377.885782
375.588108
373.20745
370.795842
368.360277
365.89109
363.386295
360.836291
358.256626
355.665756
353.083527
350.534273
348.047821
345.653051
343.376763
341.242383
339.268716
337.469007
335.850242
334.411957
333.146767
332.043946
331.08854
330.228753
329.465301
328.805253
328.275265
327.901007
472.351941
471.041684
469.697451
468.318746
466.905091
465.456034
463.97116
462.450102
460.892556
459.298296
457.667189
455.999214
454.294481
452.553241
450.775912
448.963094
447.115583
445.234393
443.320766
441.376193
439.402417
437.401449
435.375572
433.327338
431.259566
429.175326
427.077923
424.97087
422.857842
420.742639
418.62912
416.52114
414.422473
412.336719
410.267219
408.21695
406.18843
404.183618
402.203815
400.249582
398.320664
396.415941
394.533391
392.670094
390.822259
388.985287
387.153861
385.322096
383.483704
381.632233
379.761328
377.865088
375.938506
373.977744
371.984287
369.923445
367.802996
365.630739
363.467965
361.30653
359.141253
356.968066
354.787684
352.618261
350.47898
348.389148
346.367312
344.430274
342.595655
340.878926
339.291276
337.838681
336.521297
335.334932
334.271659
333.303035
332.375647
331.522643
330.727041
330.283139
472.309516
470.913454
469.481121
468.011944
466.505375
464.960898
463.378042
461.756393
460.095611
458.395446
456.655758
454.876534
453.057913
451.200201
449.303898
447.369714
445.398592
443.391732
441.350603
439.276967
437.172892
435.040763
432.883292
430.703517
428.504802
426.290824
424.065552
421.833215
419.59827
417.365339
415.139154
412.924485
410.726051
408.548425
406.395943
404.272591
402.181902
400.126853
398.109766
396.132222
394.194983
392.297934
390.440045
388.619362
386.833036
385.077374
383.347926
381.639598
379.946798
378.263599
376.583963