/*--------------------------------*- C++ -*----------------------------------*\
  =========                 |
  \\      /  F ield         | OpenFOAM: The Open Source CFD Toolbox
   \\    /   O peration     | Website:  https://openfoam.org
    \\  /    A nd           | Version:  8
     \\/     M anipulation  |
\*---------------------------------------------------------------------------*/
FoamFile
{
    version     2.0;
    format      ascii;
    class       surfaceScalarField;
    location    "0.036";
    object      phi;
}
// * * * * * * * * * * * * * * * * * * * * * * * * * * * * * * * * * * * * * //

dimensions      [1 0 -1 0 0 0 0];

internalField   nonuniform List<scalar> 
84340
(
-4.88328622e-08
2.94451246e-07
-2.46110047e-07
-1.94981979e-07
9.03255254e-07
-7.57900656e-07
-4.4327161e-07
1.55124292e-06
-1.3039342e-06
-8.00406909e-07
2.23887964e-06
-1.88288652e-06
-1.27411036e-06
2.9669938e-06
-2.49457552e-06
-1.87260175e-06
3.73677316e-06
-3.13970046e-06
-2.60407663e-06
4.54939818e-06
-3.81947328e-06
-3.47635596e-06
5.40589549e-06
-4.53530067e-06
-4.49664014e-06
6.30704933e-06
-5.28859121e-06
-5.67135162e-06
7.25335275e-06
-6.08061878e-06
-7.00604372e-06
8.24499435e-06
-6.9124431e-06
-8.50535172e-06
9.28186772e-06
-7.78487769e-06
-1.01729648e-05
1.03636009e-05
-8.69849804e-06
-1.20116026e-05
1.14895975e-05
-9.6536787e-06
-1.40229744e-05
1.2659071e-05
-1.06506451e-05
-1.6207732e-05
1.38710849e-05
-1.16895195e-05
-1.85653827e-05
1.51245657e-05
-1.27703742e-05
-2.10941886e-05
1.64183089e-05
-1.38932518e-05
-2.37910269e-05
1.77509711e-05
-1.50581952e-05
-2.6651225e-05
1.91210453e-05
-1.6265249e-05
-2.96683642e-05
2.05268268e-05
-1.75144562e-05
-3.28340534e-05
2.19663705e-05
-1.88058467e-05
-3.61376625e-05
2.3437431e-05
-2.01394149e-05
-3.9566035e-05
2.49374035e-05
-2.15150858e-05
-4.3103142e-05
2.64632359e-05
-2.29326802e-05
-4.67297061e-05
2.80113354e-05
-2.43918579e-05
-5.04227644e-05
2.95774366e-05
-2.58920389e-05
-5.41551697e-05
3.11564494e-05
-2.74323223e-05
-5.78950638e-05
3.27423134e-05
-2.90113574e-05
-6.16054412e-05
3.4327922e-05
-3.06271915e-05
-6.52438496e-05
3.59050512e-05
-3.22770403e-05
-6.87620282e-05
3.74639556e-05
-3.39569709e-05
-7.21039511e-05
3.89915597e-05
-3.56617018e-05
-7.52032386e-05
4.04709878e-05
-3.738473e-05
-7.79868385e-05
4.18880302e-05
-3.91183298e-05
-8.03740944e-05
4.32253895e-05
-4.0852839e-05
-8.22865059e-05
4.44681425e-05
-4.25715232e-05
-8.36284871e-05
4.55764813e-05
-4.42515227e-05
-8.42669954e-05
4.64996241e-05
-4.58792992e-05
-8.40189747e-05
4.71746668e-05
-4.74420563e-05
-8.26903267e-05
4.75474873e-05
-4.88966726e-05
-8.00807266e-05
4.7551185e-05
-5.01825462e-05
-7.59592244e-05
4.70985048e-05
-5.124319e-05
-7.00613061e-05
4.6086087e-05
-5.20086843e-05
-6.21198661e-05
4.44268536e-05
-5.23943465e-05
-5.18257821e-05
4.19901393e-05
-5.23116834e-05
-3.88174299e-05
3.86071604e-05
-5.16444001e-05
-2.27568759e-05
3.41686143e-05
-5.02595278e-05
-3.16020764e-06
2.84358401e-05
-4.80643171e-05
2.02765968e-05
2.14193588e-05
-4.48895077e-05
4.83400398e-05
1.24051212e-05
-4.05030151e-05
8.18090969e-05
1.26475287e-06
-3.47692662e-05
0.000121575803
-1.21935809e-05
-2.76101621e-05
0.000168690316
-2.87285566e-05
-1.84250212e-05
0.000224401059
-4.88191613e-05
-6.93245728e-06
0.00028996206
-7.28364957e-05
7.23273517e-06
0.000367080878
-0.00010135521
2.41914488e-05
0.000457018669
-0.000135103001
4.5117514e-05
0.000561432612
-0.000174834451
7.03695812e-05
0.000682240606
-0.000221297693
0.000100434496
0.000821364998
-0.000275265649
0.000136081117
0.000980737026
-0.000337509868
0.000178072016
0.00116228032
-0.000408941439
0.000227325482
0.00136763866
-0.00049016096
0.000284722333
0.00159831185
-0.000581991911
0.000351235093
0.0018566582
-0.000686599821
0.000428168514
0.00214319417
-0.000801902582
0.000515278668
0.00245493901
-0.000927295971
0.000615460254
0.00280296528
-0.00108212802
0.000734009869
0.00319099684
-0.00122856904
0.000840452163
0.00356210466
-0.00135204562
0.000980874921
0.0039452073
-0.00160431268
0.00122118648
0.00450164876
-0.00186292294
0.00130652256
0.00507907906
-0.00186937559
0.00129206732
0.00541886817
-0.00199101417
0.00165143956
0.00569192388
-0.00244237991
0.00216967191
0.00613129053
-0.00278736676
0.00234837159
0.0068179478
-0.00289109511
0.00220470957
0.00733715051
-0.0029033447
0.00238452824
-0.00305901147
0.00284829058
0.00754818577
-3.92639588e-08
3.33019824e-07
-1.55903212e-07
1.01891023e-06
-3.53441753e-07
1.74764924e-06
-6.37153227e-07
2.52132122e-06
-1.01329779e-06
3.3417376e-06
-1.48848177e-06
4.21042728e-06
-2.06936025e-06
5.12861487e-06
-2.76222609e-06
6.09696121e-06
-3.57275565e-06
7.11563148e-06
-4.50583203e-06
8.18432332e-06
-5.56542629e-06
9.30231177e-06
-6.75451785e-06
1.04684972e-05
-8.07503127e-06
1.16814517e-05
-9.52777389e-06
1.293946e-05
-1.11123697e-05
1.42405516e-05
-1.28271608e-05
1.55825061e-05
-1.46690935e-05
1.69628536e-05
-1.66335716e-05
1.83788447e-05
-1.87142712e-05
1.98274082e-05
-2.09029298e-05
2.13050956e-05
-2.31890945e-05
2.28080114e-05
-2.55598293e-05
2.43317245e-05
-2.79993862e-05
2.58711775e-05
-3.04888236e-05
2.74205684e-05
-3.30055645e-05
2.89732101e-05
-3.55229269e-05
3.05214009e-05
-3.8009629e-05
3.2056276e-05
-4.04292412e-05
3.35675981e-05
-4.27394081e-05
3.50433718e-05
-4.48902052e-05
3.64689061e-05
-4.68262438e-05
3.78305882e-05
-4.84853174e-05
3.91118561e-05
-4.9801842e-05
4.02961104e-05
-5.07088572e-05
4.13651488e-05
-5.11085906e-05
4.22740502e-05
-5.08807799e-05
4.29829363e-05
-4.98670684e-05
4.34388405e-05
-4.78962463e-05
4.35890868e-05
-4.4786508e-05
4.33722181e-05
-4.03423588e-05
4.27116991e-05
-3.43473087e-05
4.15325319e-05
-2.65519214e-05
3.97347547e-05
-1.66801354e-05
3.7204543e-05
-4.40041124e-06
3.37830345e-05
1.06465478e-05
2.93554997e-05
2.87199708e-05
2.38912408e-05
5.01528647e-05
1.71476569e-05
7.57634417e-05
8.53062973e-06
0.000106241353
-2.07005521e-06
0.000142372475
-1.47409474e-05
0.000185078034
-3.03308164e-05
0.000235418144
-4.9106696e-05
0.000294686511
-7.14941386e-05
0.000364015105
-9.8090285e-05
0.000444693406
-0.000129531521
0.000538318879
-0.000166497222
0.00064663854
-0.000209711594
0.000771425823
-0.000259928779
0.00091452809
-0.000317977024
0.00107771556
-0.000384527921
0.00126268648
-0.00046028239
0.00147094411
-0.000545815701
0.00170368682
-0.000641731539
0.00196189805
-0.000748416947
0.00224565405
-0.000865789396
0.00255605758
-0.000997041907
0.0028954848
-0.00114136524
0.00325650517
-0.0012883463
0.00363218422
-0.00145782483
0.00405743381
-0.00165381606
0.00450020066
-0.00179477734
0.00486558815
-0.00196962077
0.00526435295
-0.0022615579
0.0058474732
-0.00245230979
0.00636275583
-0.0025060449
0.00660306454
-0.00268240401
0.00672685176
-0.00291086515
0.00693306414
-0.00309696845
0.00725801395
-0.00322804604
-0.00332863044
0.00752779399
-2.95830647e-08
3.61914389e-07
-1.16743899e-07
1.1051013e-06
-2.63736889e-07
1.89353054e-06
-4.74302887e-07
2.73064319e-06
-7.53090417e-07
3.61915455e-06
-1.10503792e-06
4.56087886e-06
-1.53488404e-06
5.5568368e-06
-2.04687502e-06
6.60719323e-06
-2.64470399e-06
7.71155779e-06
-3.33118577e-06
8.86874773e-06
-4.10811918e-06
1.00770207e-05
-4.97618377e-06
1.13341563e-05
-5.93485157e-06
1.2637518e-05
-6.98229634e-06
1.39840909e-05
-8.11528746e-06
1.53704992e-05
-9.32906747e-06
1.6792994e-05
-1.06171904e-05
1.82474162e-05
-1.19713366e-05
1.97291411e-05
-1.3381081e-05
2.1232991e-05
-1.48336245e-05
2.27531414e-05
-1.63134654e-05
2.4282994e-05
-1.78019966e-05
2.58150094e-05
-1.9277036e-05
2.73405553e-05
-2.07123211e-05
2.88497477e-05
-2.20770039e-05
3.03313137e-05
-2.33355929e-05
3.17728954e-05
-2.4447825e-05
3.31608623e-05
-2.53683908e-05
3.44799819e-05
-2.60478784e-05
3.57141172e-05
-2.64333837e-05
3.68450076e-05
-2.64520533e-05
3.78391657e-05
-2.60168072e-05
3.8665847e-05
-2.50206601e-05
3.92884537e-05
-2.33324122e-05
3.96645734e-05
-2.0812708e-05
3.97412173e-05
-1.73037677e-05
3.94599626e-05
-1.26306029e-05
3.87507045e-05
-6.60556852e-06
3.75481501e-05
9.86609443e-07
3.57631976e-05
1.03858876e-05
3.32946093e-05
2.18946905e-05
3.0004966e-05
3.58222834e-05
2.57874027e-05
5.23824992e-05
2.06235329e-05
7.20524166e-05
1.4091498e-05
9.54170341e-05
5.96889611e-06
0.000123076252
-3.79065431e-06
0.000155763944
-1.55639772e-05
0.000194367206
-3.00977305e-05
0.000239764692
-4.74933943e-05
0.000293165984
-6.81688005e-05
0.000355489521
-9.26814798e-05
0.000427963561
-0.000121608389
0.000512011293
-0.000155569928
0.000609142511
-0.000195250044
0.000720962281
-0.000241380103
0.00084914783
-0.000294711733
0.000995385686
-0.000355978561
0.00116136003
-0.000425932807
0.00134864077
-0.000505288495
0.00155871328
-0.000594631756
0.00179271235
-0.000694311802
0.00205122901
-0.000804361323
0.00233448115
-0.00092501135
0.00264220812
-0.00105617085
0.00297286602
-0.00119647406
0.00332324208
-0.00134744451
0.00369463916
-0.00151278673
0.00408856607
-0.00168229251
0.00447610541
-0.00184537145
0.00487255462
-0.00205024974
0.00531124996
-0.0022334194
0.00571205301
-0.00237033449
0.00599193621
-0.00254130412
0.00626839915
-0.00272855845
0.00661053916
-0.00284796108
0.00688548815
-0.00295718835
0.00702908588
-0.00305429167
0.00711881624
-0.00318649139
0.00720493041
-0.00331403371
-0.00343266211
0.00730900771
-2.29332688e-08
3.84157198e-07
-8.96877568e-08
1.17088499e-06
-2.01356257e-07
2.00408754e-06
-3.60203996e-07
2.88824849e-06
-5.69082218e-07
3.82666559e-06
-8.31051245e-07
4.82135747e-06
-1.14883817e-06
5.87300703e-06
-1.52463138e-06
6.98123736e-06
-1.95958605e-06
8.1446231e-06
-2.45373457e-06
9.36085638e-06
-3.00614021e-06
1.06272245e-05
-3.61455645e-06
1.19401958e-05
-4.27529913e-06
1.32956954e-05
-4.98312969e-06
1.46891524e-05
-5.73111725e-06
1.61154982e-05
-6.51046602e-06
1.75691175e-05
-7.31030238e-06
1.90437727e-05
-8.11738701e-06
2.05324717e-05
-8.91578293e-06
2.20273388e-05
-9.68650073e-06
2.35194957e-05
-1.04071982e-05
2.49989907e-05
-1.10523468e-05
2.64550925e-05
-1.15927908e-05
2.78755431e-05
-1.19955586e-05
2.92466548e-05
-1.22238059e-05
3.05532717e-05
-1.22307301e-05
3.17730646e-05
-1.19618785e-05
3.28847728e-05
-1.13531019e-05
3.38634654e-05
-1.03274386e-05
3.46801533e-05
-8.79214828e-06
3.53008029e-05
-6.64645629e-06
3.5683952e-05
-3.77318275e-06
3.57824068e-05
-3.58296588e-08
3.55402171e-05
4.72493139e-06
3.48921667e-05
1.06742888e-05
3.37794547e-05
1.80009692e-05
3.21200801e-05
2.69169933e-05
2.98206608e-05
3.76894112e-05
2.67608685e-05
5.05971297e-05
2.2839731e-05
6.58345202e-05
1.80405268e-05
8.38789766e-05
1.194309e-05
0.000105224484
4.42384e-06
0.000130420811
-4.59178769e-06
0.000160103324
-1.56111325e-05
0.000195022592
-2.89714841e-05
0.000236134764
-4.49249168e-05
0.000284430918
-6.38831276e-05
0.000340647497
-8.6338207e-05
0.00040592244
-0.000112793031
0.000481537909
-0.000143809754
0.000568843175
-0.000180012933
0.000669275134
-0.000222067088
0.000784325819
-0.000270647515
0.0009155176
-0.000326468739
0.00106435807
-0.000390247331
0.0012323172
-0.000462697658
0.00142081011
-0.00054449849
0.00163106334
-0.000636212679
0.00186396999
-0.000738220172
0.00211996818
-0.000850653396
0.00239893107
-0.000973297055
0.00269988414
-0.00110533627
0.00302114128
-0.00124629009
0.00336043952
-0.00139549132
0.00371515379
-0.00155121203
0.00407950157
-0.00171181749
0.00444605099
-0.00187936142
0.00482008754
-0.00205635318
0.0051922119
-0.00221751609
0.00551311502
-0.00237116747
0.00579543181
-0.00251574345
0.00606373156
-0.00263862714
0.00627335212
-0.00275088384
0.00641290432
-0.00286803631
0.0065470115
-0.00298197686
0.0066852241
-0.00309531092
0.00683075667
-0.00319974406
0.006942747
-0.00329842576
0.00703039239
-0.00340165303
-0.00350920625
0.00710694112
-2.05822056e-08
4.04099439e-07
-7.96425329e-08
1.22904814e-06
-1.7718172e-07
2.10060142e-06
-3.14030127e-07
3.02395202e-06
-4.91258397e-07
4.002635e-06
-7.09734476e-07
5.03846184e-06
-9.69885362e-07
6.13167043e-06
-1.27133176e-06
7.28107484e-06
-1.61247166e-06
8.48402437e-06
-1.99048523e-06
9.73699186e-06
-2.40078599e-06
1.10354977e-05
-2.83718958e-06
1.23744104e-05
-3.2919149e-06
1.37480577e-05
-3.7552364e-06
1.5149923e-05
-4.2152704e-06
1.6572779e-05
-4.65775699e-06
1.80086333e-05
-5.06585225e-06
1.94486637e-05
-5.42000173e-06
2.08831639e-05
-5.69771359e-06
2.23013215e-05
-5.87215675e-06
2.36899266e-05
-5.91213286e-06
2.5034654e-05
-5.78121825e-06
2.63195368e-05
-5.43716999e-06
2.75265068e-05
-4.83065003e-06
2.86347776e-05
-3.90369045e-06
2.96205644e-05
-2.59227339e-06
3.04554804e-05
-8.20547946e-07
3.11064437e-05
1.50084259e-06
3.15350079e-05
4.47702616e-06
3.16963909e-05
8.2313249e-06
3.15383803e-05
1.28945841e-05
3.101202e-05
1.86169741e-05
3.00507591e-05
2.55687121e-05
2.85786137e-05
3.39409017e-05
2.65094721e-05
4.39729567e-05
2.37362411e-05
5.59225726e-05
2.01586e-05
6.99854636e-05
1.57451703e-05
8.65611282e-05
1.01719931e-05
0.000106119004
3.26806223e-06
0.000129153924
-5.00904346e-06
0.000156232583
-1.51511461e-05
0.000188020547
-2.7380582e-05
0.00022538799
-4.19765697e-05
0.000269068979
-5.93103757e-05
0.000319880189
-7.98018538e-05
0.0003788457
-0.00010391053
0.00044709235
-0.000132150804
0.000525810189
-0.000165078056
0.000616283196
-0.000203288896
0.000719865381
-0.000247415471
0.000837940515
-0.000298112019
0.000971892029
-0.000356042839
0.00112307398
-0.000421853747
0.00129272036
-0.000496139444
0.00148187122
-0.000579422492
0.00169129224
-0.000672142199
0.00192135429
-0.000774581989
0.00217202068
-0.000886898437
0.00244266594
-0.00100888323
0.00273202984
-0.00114003431
0.00303806093
-0.00127934506
0.00335762012
-0.00142491346
0.00368662144
-0.0015753119
0.00402000761
-0.00172890126
0.00435252478
-0.00188375607
0.00468084693
-0.00204016899
0.00499348689
-0.00219202969
0.00526986213
-0.00233275674
0.00551184832
-0.00245953423
0.00570643713
-0.00256578542
0.00586381992
-0.00267314682
0.00600860911
-0.0027834311
0.00614658574
-0.00288885808
0.00626793298
-0.00298936871
0.00636979815
-0.00308382558
0.00645498109
-0.00318048193
0.00654467311
-0.00328943402
0.00664126861
-0.00339503385
0.00674581088
-0.00350621045
-0.00360914343
0.00684574784
-2.16697927e-08
4.25140935e-07
-8.32509377e-08
1.28974935e-06
-1.83666476e-07
2.20001226e-06
-3.22215476e-07
3.16138021e-06
-4.98020184e-07
4.17720856e-06
-7.09594953e-07
5.2486966e-06
-9.54487018e-07
6.37511179e-06
-1.22897688e-06
7.55399855e-06
-1.52806171e-06
8.78142017e-06
-1.84506919e-06
1.00521784e-05
-2.17122084e-06
1.13596867e-05
-2.49564016e-06
1.26967148e-05
-2.80496921e-06
1.40551088e-05
-3.08332929e-06
1.5425829e-05
-3.31210532e-06
1.67989117e-05
-3.46955251e-06
1.81632392e-05
-3.53024965e-06
1.95063091e-05
-3.46475021e-06
2.08143769e-05
-3.23918023e-06
2.20722118e-05
-2.81524582e-06
2.32621943e-05
-2.14886208e-06
2.43641987e-05
-1.18865046e-06
2.53549579e-05
1.25573494e-07
2.62076038e-05
1.86445646e-06
2.68908711e-05
4.11091549e-06
2.73687142e-05
6.9561283e-06
2.76044958e-05
1.05041447e-05
2.7552255e-05
1.48736341e-05
2.71589183e-05
2.01996929e-05
2.63632831e-05
2.6635112e-05
2.50954382e-05
3.43627107e-05
2.32764031e-05
4.35941291e-05
2.08108034e-05
5.45801969e-05
1.7583458e-05
6.75143497e-05
1.35656399e-05
8.27129976e-05
8.52740674e-06
0.000100623933
2.23699868e-06
0.000121683884
-5.32610442e-06
0.000146397891
-1.45541282e-05
0.000175359477
-2.57063946e-05
0.000209342339
-3.90055405e-05
0.000248963235
-5.47864609e-05
0.000294991295
-7.34238912e-05
0.000348329946
-9.53313249e-05
0.000409968957
-0.000120966411
0.00048098069
-0.000150831579
0.000562519573
-0.000185468408
0.00065580241
-0.000225453536
0.000762095877
-0.000271392269
0.000882685551
-0.000323900069
0.00101882905
-0.000383581168
0.00117169795
-0.000451003666
0.00134229103
-0.000526659248
0.00153133297
-0.00061091951
0.00173917416
-0.000704004178
0.00196567316
-0.00080594322
0.00221020272
-0.00091669119
0.00247146728
-0.0010358638
0.00274768488
-0.0011631315
0.00303618612
-0.00129739871
0.00333377943
-0.0014376413
0.00363609243
-0.00158167221
0.00393718388
-0.00172602089
0.00423379166
-0.00187193868
0.00451727507
-0.00201240733
0.00478118198
-0.00214768915
0.00501596498
-0.00227498275
0.00521524907
-0.00239135229
0.00537395662
-0.00249151571
0.00550219139
-0.00258781947
0.00561943395
-0.00268306999
0.00572764717
-0.00278140648
0.00582625555
-0.00288208404
0.0059151275
-0.00297777079
0.00599913939
-0.00307341751
0.00608318582
-0.00316790444
0.0061676824
-0.00326502439
0.00624975479
-0.00337156808
0.00633390561
-0.00347925048
0.00642381119
-0.00359613896
-0.0037064487
0.00652112806
-2.43664806e-08
4.4893964e-07
-9.28001251e-08
1.35738636e-06
-2.02791728e-07
2.30909327e-06
-3.51765011e-07
3.309337e-06
-5.36459246e-07
4.36078572e-06
-7.52495174e-07
5.46351633e-06
-9.94011953e-07
6.61531146e-06
-1.25335788e-06
7.81192203e-06
-1.52081414e-06
9.04734267e-06
-1.78436211e-06
1.03140733e-05
-2.02978966e-06
1.16033326e-05
-2.24000403e-06
1.29050099e-05
-2.3945867e-06
1.42076229e-05
-2.46980743e-06
1.54988197e-05
-2.4380688e-06
1.67647721e-05
-2.26745141e-06
1.79900419e-05
-1.9213867e-06
1.91574738e-05
-1.35772683e-06
2.0247735e-05
-5.27179915e-07
2.1238458e-05
6.26349998e-07
2.21052217e-05
2.16680741e-06
2.28200498e-05
4.16751012e-06
2.3350299e-05
6.71180323e-06
2.36590708e-05
9.89461264e-06
2.37035207e-05
1.38238097e-05
2.34346607e-05
1.86271201e-05
2.27959954e-05
2.44510667e-05
2.17227691e-05
3.14627893e-05
2.01412872e-05
3.98556201e-05
1.79641622e-05
4.98565592e-05
1.50878e-05
6.1657867e-05
1.14679526e-05
7.5533664e-05
6.9274661e-06
9.18761731e-05
1.23307225e-06
0.000111070123
-5.63664379e-06
0.000133564851
-1.39762356e-05
0.000159885625
-2.40932658e-05
0.00019070441
-3.61549271e-05
0.000226600419
-5.04607499e-05
0.000268228424
-6.73456018e-05
0.000316388722
-8.71776613e-05
0.000371956737
-0.000110366943
0.000435883332
-0.000137363655
0.000509194252
-0.00016865613
0.000592980178
-0.000204766924
0.000688377369
-0.000246244016
0.000796544489
-0.000293651453
0.000918628534
-0.000347554166
0.0010557165
-0.000408497499
0.00120877822
-0.000476979722
0.0013785925
-0.000553414139
0.00156565533
-0.000638086078
0.00177005205
-0.000731076116
0.00199136158
-0.000832248635
0.00222860272
-0.000941263719
0.00248011687
-0.00105747455
0.00274361256
-0.00118020285
0.00301581784
-0.00130808349
0.00329344156
-0.00144076801
0.00357185756
-0.00157582508
0.00384845577
-0.00171424838
0.00411682367
-0.00185004889
0.00436974321
-0.00197895043
0.00459694922
-0.00209915639
0.00479295461
-0.00220842828
0.00495640024
-0.00231115994
0.00508541089
-0.00240402195
0.00519161202
-0.00249758547
0.00528898049
-0.0025889317
0.0053815277
-0.00268041319
0.00546923656
-0.00277082055
0.00555363794
-0.00286585431
0.00563162552
-0.00296011938
0.00570652976
-0.00305272583
0.00577998359
-0.00314692428
0.00585667834
-0.00324466205
0.00593939885
-0.00334781278
0.0060234952
-0.00345573647
0.00610538975
-0.00356122033
0.00618725757
-0.00367802919
-0.0037932797
0.00627409606
-2.53908422e-08
4.73775286e-07
-9.5542483e-08
1.42675903e-06
-2.06127077e-07
2.41878767e-06
-3.52132042e-07
3.45434868e-06
-5.27254565e-07
4.53481737e-06
-7.2346176e-07
5.65853681e-06
-9.30623053e-07
6.82118869e-06
-1.13619039e-06
8.01610398e-06
-1.32486816e-06
9.2345283e-06
-1.47827342e-06
1.04658727e-05
-1.57455991e-06
1.16978905e-05
-1.5881987e-06
1.29167881e-05
-1.48967552e-06
1.41070969e-05
-1.24456569e-06
1.52515543e-05
-8.13055789e-07
1.63309452e-05
-1.49589671e-07
1.7324086e-05
7.98028278e-07
1.82071809e-05
2.08948285e-06
1.89534073e-05
3.79256463e-06
1.9532294e-05
5.98525934e-06
1.99092223e-05
8.75689191e-06
2.00448738e-05
1.22097644e-05
1.98936287e-05
1.64611232e-05
1.94036466e-05
2.16448263e-05
1.85154681e-05
2.79137e-05
1.71611379e-05
3.5443885e-05
1.52608462e-05
4.44394964e-05
1.27218582e-05
5.50834832e-05
9.49163107e-06
6.76280976e-05
5.41353773e-06
8.24156416e-05
2.93949632e-07
9.97874207e-05
-5.91051264e-06
0.000120141482
-1.34337723e-05
0.000143923001
-2.25561073e-05
0.000171715638
-3.34374163e-05
0.000204074291
-4.63435142e-05
0.000241544662
-6.15727744e-05
0.000284831893
-7.94518236e-05
0.000334706098
-0.000100345172
0.000392003531
-0.000124653828
0.000457627674
-0.000152813203
0.000532538808
-0.000185290046
0.000617739825
-0.000222577189
0.000714255902
-0.000265185245
0.000823105945
-0.000313630528
0.000945266843
-0.000368418958
0.00108162592
-0.000430025057
0.00123292285
-0.00049886603
0.00139968052
-0.000575270547
0.0015821271
-0.000659442139
0.00178010178
-0.000751405032
0.00199296898
-0.000850968881
0.00221954058
-0.000957661925
0.00245805424
-0.00107077488
0.0027061168
-0.00118933724
0.00296064835
-0.00131201536
0.00321792201
-0.00143748431
0.00347359809
-0.00156376655
0.00372354252
-0.00169071936
0.00396315336
-0.0018154443
0.0041823447
-0.0019334498
0.00437298045
-0.00204069709
0.00453438515
-0.00214037105
0.00466713191
-0.00223192285
0.00478027211
-0.00232159734
0.00487999799
-0.00241091478
0.00497040718
-0.00249446016
0.00505090809
-0.00257812308
0.00512463327
-0.00266269681
0.00519324745
-0.00274908029
0.00525789544
-0.00283552372
0.00531714861
-0.00292516837
0.00537742322
-0.00302047872
0.00544162769
-0.00311701892
0.00550859326
-0.00321396558
0.00557733315
-0.00331348942
0.00564899176
-0.00341957477
0.0057284985
-0.00353532787
0.0058148518
-0.00364763379
0.00590043975
-0.00376364631
-0.00387844872
0.0059856313
-2.26737074e-08
4.95926852e-07
-8.27392158e-08
1.48609001e-06
-1.73221365e-07
2.50842899e-06
-2.85803566e-07
3.56599169e-06
-4.1017579e-07
4.65815755e-06
-5.33554916e-07
5.78079288e-06
-6.40259931e-07
6.92667779e-06
-7.11321599e-07
8.08585305e-06
-7.24058903e-07
9.24585166e-06
-6.51660763e-07
1.03919526e-05
-4.62721612e-07
1.15073128e-05
-1.20654646e-07
1.25729571e-05
4.16745768e-07
1.35677991e-05
1.19781642e-06
1.44684435e-05
2.27776433e-06
1.52488046e-05
3.71971894e-06
1.58797766e-05
5.59589129e-06
1.63284813e-05
7.98867769e-06
1.65579081e-05
1.09921087e-05
1.65259528e-05
1.47135408e-05
1.61846707e-05
1.92756694e-05
1.54794041e-05
2.48181018e-05
1.43476197e-05
3.15014233e-05
1.27165016e-05
3.95051239e-05
1.05076786e-05
4.90008698e-05
7.66101341e-06
6.0231479e-05
4.02558293e-06
7.34829683e-05
-5.34533239e-07
8.9058033e-05
-6.08864527e-06
0.000107306131
-1.28401516e-05
0.000128617727
-2.10236195e-05
0.000153492669
-3.07918062e-05
0.000182432785
-4.23806368e-05
0.000215923221
-5.60537001e-05
0.000254578826
-7.21006047e-05
0.000299071214
-9.08439224e-05
0.000350128726
-0.000112638766
0.00040853935
-0.000137871398
0.000475141607
-0.000166956836
0.000550812853
-0.000200334896
0.000636452965
-0.000238463541
0.000732961475
-0.000281809154
0.000841206807
-0.000330833475
0.000961986688
-0.000385976396
0.0010959792
-0.00044763461
0.00124368418
-0.000516135786
0.0014053552
-0.000591708205
0.00158092334
-0.00067444668
0.00176991925
-0.000764279527
0.00197140287
-0.000860939066
0.00218390325
-0.000963918475
0.00240539787
-0.00107247637
0.00263332133
-0.00118559834
0.00286455227
-0.00130201908
0.00309537124
-0.0014201698
0.00332182603
-0.00153848352
0.00353916607
-0.00165483678
0.00374368768
-0.00176829737
0.00392884099
-0.00187587843
0.00408864614
-0.00197525181
0.00422026691
-0.00206507135
0.00433201086
-0.00215244414
0.00443056093
-0.00223892855
0.00452149704
-0.00232287611
0.00460363797
-0.00240376296
0.00467513819
-0.00248244622
0.00474367203
-0.00256303829
0.00480794221
-0.00264243822
0.00486864702
-0.00272344349
0.00492972468
-0.00281022002
0.0049922589
-0.00289811984
0.00505493753
-0.00298789662
0.00511589827
-0.00308149556
0.00517391444
-0.00317510503
0.00523301594
-0.00327314855
0.00529446537
-0.00337501045
0.00535140111
-0.00347657307
0.00540761181
-0.00359160314
0.00546761994
-0.00370767434
0.00553762013
-0.00383363494
-0.00395908546
0.00561835284
-1.48311187e-08
5.10257752e-07
-4.87224526e-08
1.51928061e-06
-9.08753151e-08
2.54978176e-06
-1.28321537e-07
3.60254555e-06
-1.45236506e-07
4.67409286e-06
-1.22397361e-07
5.75688824e-06
-3.66807793e-08
6.83980803e-06
1.39444469e-07
7.90848321e-06
4.3839299e-07
8.94556238e-06
8.97928076e-07
9.93097413e-06
1.56172707e-06
1.08419606e-05
2.4799857e-06
1.16530276e-05
3.71022484e-06
1.23357631e-05
5.31813572e-06
1.28586016e-05
7.37882325e-06
1.3186043e-05
9.97787589e-06
1.32784951e-05
1.32127978e-05
1.30911653e-05
1.71944391e-05
1.2573697e-05
2.20486076e-05
1.16690278e-05
2.79187404e-05
1.03115838e-05
3.49658869e-05
8.42909048e-06
4.33485152e-05
5.96159347e-06
5.32971473e-05
2.76424857e-06
6.50509035e-05
-1.24991831e-06
7.88780785e-05
-6.17026553e-06
9.50852762e-05
-1.21860202e-05
0.000114014958
-1.94689262e-05
0.000136098752
-2.81774688e-05
0.000161772618
-3.85193815e-05
0.000191469568
-5.07262871e-05
0.000225725455
-6.50537807e-05
0.00026512464
-8.17862988e-05
0.000310301093
-0.000101237039
0.00036194042
-0.000123747258
0.000420773315
-0.000149684579
0.000487566245
-0.000179439885
0.000563108592
-0.000213422354
0.000648194281
-0.000252051557
0.000743596921
-0.000295746972
0.000850037512
-0.000344913966
0.000968144363
-0.000399926204
0.0010984048
-0.000461104461
0.00124110921
-0.000528691627
0.001396288
-0.000602824474
0.00156364298
-0.000683502011
0.00174247323
-0.000770549878
0.00193160373
-0.000863588544
0.00212933694
-0.0009620234
0.00233343764
-0.00106504911
0.002541173
-0.00117166175
0.00274933427
-0.00128064388
0.00295435413
-0.00139062281
0.00315248629
-0.00150015436
0.00333991505
-0.00160760095
0.0035130664
-0.00171163826
0.00366919976
-0.00181097609
0.00380481223
-0.00190392078
0.00391799331
-0.00198907574
0.00401116655
-0.0020684458
0.00409213637
-0.00214606751
0.00416692729
-0.00222726122
0.00423699354
-0.00230901945
0.00430283901
-0.00238874614
0.00436551816
-0.00246646477
0.00442596173
-0.00254291539
0.00448397843
-0.00262109136
0.00454328375
-0.00270178154
0.00460166031
-0.00278185631
0.00466002499
-0.00286862318
0.00471890555
-0.0029570416
0.00477644859
-0.00304549962
0.00483608956
-0.00314120336
0.00489554018
-0.00323462632
0.00495331396
-0.00333102674
0.0050144995
-0.00343628749
0.00507588805
-0.0035380373
0.00513396482
-0.00364973191
0.00519151792
-0.00376522879
0.0052380876
-0.00388016508
-0.00399586861
0.00527494954
-1.10477741e-09
5.10877767e-07
9.86427183e-09
1.50763265e-06
4.90345211e-08
2.50983642e-06
1.3567373e-07
3.51504196e-06
2.92924822e-07
4.51589291e-06
5.48395132e-07
5.5003861e-06
9.34718449e-07
6.45236879e-06
1.49010489e-06
7.3518936e-06
2.25891609e-06
8.17545619e-06
3.29237653e-06
8.89612108e-06
4.64932565e-06
9.4835149e-06
6.39697811e-06
9.90376839e-06
8.61217957e-06
1.01188377e-05
1.13823506e-05
1.00865799e-05
1.48068185e-05
9.75958917e-06
1.89982137e-05
9.08497064e-06
2.40844429e-05
8.00265539e-06
3.02102022e-05
6.44549415e-06
3.75226656e-05
4.35394685e-06
4.62221793e-05
1.60928159e-06
5.65193611e-05
-1.87105756e-06
6.86509265e-05
-6.17314707e-06
8.28846528e-05
-1.1472874e-05
9.95231972e-05
-1.78920852e-05
0.000118937437
-2.55883675e-05
0.000141492045
-3.47447433e-05
0.000167583459
-4.55647188e-05
0.00019767515
-5.82738165e-05
0.000232273144
-7.31223231e-05
0.00027192727
-9.03856663e-05
0.000317232184
-0.000110364269
0.000368822703
-0.000133382721
0.000427366788
-0.000159787347
0.000493555509
-0.000189942518
0.000568088725
-0.000224224643
0.000651655444
-0.000263013758
0.000744908148
-0.000306682502
0.000848430736
-0.000355581869
0.000962699745
-0.000410023958
0.001088039
-0.000470261441
0.00122456863
-0.000536464263
0.00137214958
-0.00060869405
0.00153032638
-0.000686877255
0.00169827104
-0.000770778246
0.00187473014
-0.000859970624
0.00205797153
-0.000953801141
0.00224577306
-0.0010514001
0.00243546383
-0.00115172448
0.00262399178
-0.00125358804
0.00280800955
-0.00135569156
0.00298402462
-0.00145667234
0.00314869758
-0.00155531047
0.00329908222
-0.00165055402
0.00343327083
-0.00174180375
0.00354983477
-0.0018282128
0.00364876638
-0.00190991384
0.00373175919
-0.00198691379
0.00380430896
-0.00206162198
0.00387261197
-0.00213674486
0.00393870302
-0.00221215651
0.00399999014
-0.00228855288
0.00405620988
-0.0023652527
0.00410725061
-0.00243981235
0.00415784731
-0.00251710076
0.00421038423
-0.00259549119
0.00426206429
-0.00267280674
0.0043138747
-0.00275363083
0.00436502756
-0.0028330431
0.00441099817
-0.00291462689
0.00445747626
-0.00300355889
0.00450406141
-0.00309213517
0.00455089817
-0.00318809563
0.00460410599
-0.00328788304
0.00466033952
-0.00338731317
0.00471378529
-0.00348980313
0.0047755207
-0.00359982906
0.00483775193
-0.00371199032
0.00490530514
-0.00383281345
0.00497314866
-0.00394801707
-0.00404037905
0.00501766898
1.90747049e-08
4.9136913e-07
9.53480461e-08
1.43075296e-06
2.51951992e-07
2.35254132e-06
5.16251368e-07
3.24997257e-06
9.20623428e-07
4.11067598e-06
1.50313464e-06
4.9169564e-06
2.308194e-06
5.64631622e-06
3.38724519e-06
6.27177147e-06
4.79952581e-06
6.76202274e-06
6.61280741e-06
7.08160042e-06
8.90460116e-06
7.19039045e-06
1.17629963e-05
7.0439434e-06
1.52879611e-05
6.59233722e-06
1.95929368e-05
5.77995665e-06
2.48062735e-05
4.54448496e-06
3.10627359e-05
2.82661213e-06
3.85351924e-05
5.28174691e-07
4.74081325e-05
-2.42960422e-06
5.78894362e-05
-6.12966834e-06
7.02136201e-05
-1.07173772e-05
8.46443388e-05
-1.63044181e-05
0.000101499659
-2.30312849e-05
0.000121082335
-3.10585533e-05
0.000143751507
-4.05644538e-05
0.000169907092
-5.17473526e-05
0.000199985815
-6.48270793e-05
0.000234462635
-8.00453762e-05
0.000273850785
-9.766604e-05
0.000318698872
-0.000117974729
0.000369585842
-0.000141277202
0.00042711342
-0.00016789666
0.000491894935
-0.000198169302
0.000564540132
-0.000232437866
0.00064563499
-0.000271042961
0.000735716356
-0.000314311857
0.000835241072
-0.000362544595
0.000944549546
-0.000415997365
0.00106382437
-0.00047486336
0.00119304477
-0.000539251278
0.00133193895
-0.000609162808
0.00147993687
-0.000684469583
0.0016361273
-0.000764892081
0.0017992245
-0.00084998217
0.00196755037
-0.000939111909
0.0021390324
-0.00103146008
0.00231124082
-0.00112601612
0.00248149262
-0.00122165714
0.00264695129
-0.00131718681
0.00280478181
-0.00141142022
0.00295233119
-0.00150324067
0.00308745636
-0.00159179578
0.0032086163
-0.00167646854
0.00331512185
-0.00175706042
0.00340724026
-0.00183392771
0.00348639875
-0.00190738372
0.00355435949
-0.00197789264
0.0036152788
-0.0020478543