/*--------------------------------*- C++ -*----------------------------------*\
  =========                 |
  \\      /  F ield         | OpenFOAM: The Open Source CFD Toolbox
   \\    /   O peration     | Website:  https://openfoam.org
    \\  /    A nd           | Version:  8
     \\/     M anipulation  |
\*---------------------------------------------------------------------------*/
FoamFile
{
    version     2.0;
    format      ascii;
    class       volScalarField;
    location    "0.036";
    object      T;
}
// * * * * * * * * * * * * * * * * * * * * * * * * * * * * * * * * * * * * * //

dimensions      [0 0 0 1 0 0 0];

internalField   nonuniform List<scalar> 
42400
(
472.244666
470.717306
469.149835
467.541344
465.890958
464.197852
462.461269
460.680537
458.855094
456.984509
455.068514
453.107026
451.100182
449.048372
446.95227
444.812875
442.631546
440.410041
438.150552
435.855748
433.528807
431.173451
428.793976
426.395276
423.982863
421.562875
419.142082
416.727872
414.328237
411.951731
409.607434
407.304884
405.054011
402.86505
400.748442
398.714729
396.774449
394.938028
393.215663
391.617177
390.151855
388.828276
387.654134
386.636066
385.779482
385.088423
384.565415
384.211216
384.024674
384.002481
384.138385
384.42526
384.849028
385.394141
386.039072
386.753909
387.50329
388.266395
389.052185
389.590832
389.801137
389.666004
388.95393
388.044309
386.847793
385.289698
383.251353
380.632835
377.374071
373.60075
369.157191
363.786343
358.59594
353.521138
346.649066
339.083702
332.550068
327.925893
321.29115
316.529809
472.273338
470.803962
469.296031
467.748699
466.161164
464.532682
462.862586
461.150307
459.395396
457.597551
455.756646
453.872759
451.946208
449.977581
447.967776
445.918038
443.829999
441.705715
439.547706
437.358999
435.143156
432.904318
430.647227
428.37725
426.100399
423.823336
421.553368
419.298437
417.067085
414.86842
412.712047
410.608004
408.566672
406.598679
404.714804
402.92583
401.2424
399.67483
398.232908
396.925672
395.761172
394.746257
393.886334
393.185089
392.644103
392.262617
392.037526
391.962885
392.027612
392.220953
392.523306
392.909655
393.3483
393.809882
394.276945
394.653854
394.762224
394.586931
393.934979
393.056825
391.921163
390.458666
388.579754
386.170177
383.197776
379.641601
375.51116
370.83596
365.57563
359.956099
354.137552
347.663514
341.127157
335.339177
329.468974
322.900238
317.027251
311.776981
307.733846
303.777153
472.311952
470.920671
469.49293
468.027974
466.525096
464.98366
463.403117
461.783028
460.123087
458.423154
456.683274
454.90372
453.085017
451.227983
449.333765
447.403876
445.440234
443.445205
441.421637
439.372901
437.302923
435.216218
433.117915
431.013772
428.910191
426.814214
424.733509
422.676347
420.651558
418.668479
416.736883
414.866882
413.068806
411.353055
409.729938
408.209447
406.801029
405.513321
404.35389
403.328945
402.443003
401.698517
401.095545
400.631711
400.301142
400.094084
399.99692
399.990646
400.049307
400.152497
400.276582
400.363677
400.284849
399.962424
399.330449
398.405934
397.268947
395.852625
394.084367
391.849177
389.096351
385.802607
381.960717
377.596896
372.741784
367.422087
361.70456
355.711052
349.474021
343.077161
336.911019
330.812231
324.712343
319.162885
314.277531
309.930196
305.985939
302.601856
300.436417
299.933382
472.357427
471.058117
469.724823
468.356894
466.953745
465.514867
464.039854
462.528422
460.980438
459.395944
457.775191
456.118668
454.427135
452.70166
450.943656
449.154913
447.337641
445.494505
443.628657
441.743773
439.844078
437.934371
436.020041
434.107077
432.202062
430.312161
428.445091
426.609069
424.812743
423.065105
421.375366
419.752803
418.206577
416.745518
415.377869
414.111019
412.9512
411.903142
410.969704
410.151507
409.446792
408.850419
408.353471
407.943695
407.605459
407.321093
407.074268
406.783778
406.38765
405.834559
405.063784
404.057225
402.874787
401.457349
399.742295
397.641601
395.086264
392.041487
388.483817
384.409272
379.833468
374.803443
369.370937
363.603039
357.578107
351.368183
345.054242
338.77563
332.676321
326.758345
321.250583
316.241956
311.71111
307.728037
304.380387
301.763309
300.195784
299.899508
299.843903
299.840234
472.406198
471.20553
469.973541
468.709706
467.413571
466.084775
464.723069
463.328343
461.900649
460.440227
458.94754
457.423301
455.868503
454.284456
452.672818
451.035626
449.375329
447.69482
445.997459
444.287096
442.568092
440.845319
439.124168
437.410525
435.710754
434.031642
432.380334
430.764244
429.190935
427.667967
426.202715
424.802154
423.472616
422.219498
421.046947
419.957506
418.951756
418.028057
417.182018
416.406385
415.69155
415.025188
414.379688
413.708171
412.973846
412.133967
411.139383
410.010559
408.730956
407.254517
405.529671
403.487997
401.066713
398.229212
394.945413
391.195977
386.975127
382.292121
377.172536
371.666756
365.837096
359.761904
353.525342
347.219936
340.940692
334.783441
328.843458
323.23593
318.088642
313.464385
309.424146
306.057399
303.297043
301.242105
300.188122
299.961452
299.886748
299.858609
299.846369
299.842501
472.454271
471.350841
470.218733
469.05755
467.86698
466.64681
465.396953
464.117465
462.808573
461.470699
460.10449
458.710841
457.290924
455.846217
454.378527
452.890015
451.383217
449.861061
448.326878
446.784407
445.237787
443.691543
442.150554
440.620005
439.105322
437.612074
436.145866
434.71219
433.316252
431.962767
430.65572
429.398108
428.191637
427.036392
425.930602
424.870302
423.849071
422.854026
421.866769
420.864872
419.822085
418.708207
417.504593
416.205928
414.780115
413.191122
411.396708
409.341464
406.979728
404.276309
401.199723
397.725151
393.836891
389.529693
384.810409
379.698871
374.228686
368.449312
362.420837
356.214338
349.914873
343.618978
337.422238
331.421386
325.709512
320.389148
315.557688
311.30764
307.699875
304.796439
302.566509
300.896594
300.110739
299.937677
299.884374
299.866175
299.859986
299.850709
299.838601
299.829304
472.49715
471.480457
470.437456
469.367875
468.271529
467.148336
465.998338
464.821721
463.618835
462.390216
461.136605
459.858972
458.558531
457.236759
455.895412
454.536531
453.162446
451.77578
450.379428
448.976543
447.570497
446.164831
444.763186
443.369217
441.986479
440.61829
439.267574
437.936664
436.627085
435.339303
434.072448
432.824061
431.589789
430.363016
429.132963
427.885905
426.605739
425.279091
423.889095
422.415136
420.832946
419.113719
417.221882
415.118481
412.771485
410.149363
407.222373
403.96424
400.354092
396.377934
392.030134
387.314796
382.246836
376.852734
371.172433
365.258488
359.173629
352.980264
346.755447
340.583027
334.559614
328.785227
323.353885
318.350734
313.855995
309.95192
306.70165
304.139916
302.247893
300.949629
300.177709
299.994097
299.928959
299.900321
299.880746
299.862826
299.846377
299.830248
299.812174
299.804018
472.530016
471.57981
470.605124
469.605778
468.581676
467.532814
466.4593
465.361367
464.239384
463.093874
461.925524
460.735194
459.523926
458.292944
457.043657
455.777643
454.496641
453.202519
451.897237
450.582802
449.261196
447.934295
446.603769
445.270954
443.93671
442.601253
441.263965
439.923193
438.576054
437.218212
435.843634
434.444369
433.01031
431.528979
429.987136
428.369002
426.655303
424.822169
422.845666
420.700643
418.360853
415.799676
412.991158
409.911006
406.537394
402.852407
398.843218
394.503265
389.833359
384.842741
379.549996
373.984029
368.185114
362.205149
356.115045
349.980215
343.875205
337.874064
332.068226
326.549112
321.406993
316.724915
312.574628
309.022287
306.109455
303.847946
302.197468
301.095682
300.419336
300.087804
299.992966
299.946586
299.91236
299.883423
299.852698
299.828947
299.8119
299.803323
299.801583
299.801099
472.548306
471.635101
470.698433
469.73816
468.754203
467.746555
466.715287
465.660555
464.582603
463.481768
462.358476
461.213248
460.046687
458.859466
457.652311
456.425978
455.181212
453.918709
452.639056
451.342659
450.029659
448.699821
447.35241
445.986031
444.598461
443.186416
441.745247
440.268656
438.74969
437.179798
435.548725
433.844402
432.052867
430.158328
428.143291
425.98872
423.674327
421.178995
418.481351
415.560468
412.396595
408.971478
405.269602
401.279109
396.992734
392.408733
387.531774
382.373784
376.954761
371.303592
365.458777
359.469716
353.399931
347.323187
341.314782
335.455802
329.832361
324.530732
319.639069
315.232487
311.378795
308.12937
305.507545
303.500375
302.056692
301.092746
300.508678
300.185483
300.040246
299.978874
299.920682
299.876788
299.845895
299.823041
299.814039
299.809186
299.805048
299.802801
299.801699
299.801125
472.54869
471.63625
470.700334
469.740756
468.757369
467.750068
466.718786
465.663495
464.584197
463.480918
462.353695
461.202554
460.027482
458.828406
457.60516
456.357441
455.084753
453.786335
452.461072
451.10739
449.723119
448.305333
446.850151
445.352021
443.805206
442.203467
440.539652
438.805746
436.991583
435.085597
433.074866
430.945169
428.681117
426.26636
423.683871
420.916317
417.94654
414.758163
411.33566
407.665336
403.736061
399.54003
395.073553
390.337872
385.33999
380.093508
374.619431
368.946904
363.113892
357.16781
351.166191
345.179347
339.283743
333.560668
328.096082
322.979038
318.293686
314.117543
310.506602
307.494667
305.087168
303.258032
301.947324
301.068038
300.518896
300.201218
300.028145
299.93287
299.876086
299.835772
299.825369
299.819697
299.815887
299.814575
299.812496
299.80894
299.806076
299.803296
299.801284
299.800438
472.531307
471.583705
470.611667
469.614929
468.593231
467.546308
466.473885
465.375662
464.251296
463.100394
461.922488
460.717011
459.482719
458.217759
456.920392
455.588826
454.22088
452.813922
451.36481
449.869831
448.324663
446.724358
445.063329
443.335967
441.535
439.651667
437.676189
435.597775
433.404643
431.084093
428.622646
426.00623
423.220427
420.250802
417.083316
413.704476
410.10188
406.264875
402.185167
397.857502
393.280395
388.456914
383.395521
378.110951
372.625119
366.968001
361.178329
355.304026
349.402377
343.539896
337.792661
332.240318
326.964718
322.04876
317.570195
313.598067
310.183115
307.350194
305.090968
303.365604
302.110626
301.244675
300.67817
300.324902
300.110989
299.982837
299.900019
299.857456
299.837348
299.829946
299.824343
299.819931
299.816462
299.814326
299.812535
299.809487
299.807573
299.807646
299.806766
299.803561
472.494738
471.473157
470.425099
469.350139
468.247808
467.117573
465.958816
464.770618
463.551543
462.300306
461.015373
459.694915
458.337309
456.94099
455.503626
454.022189
452.493172
450.912542
449.275681
447.577317
445.811501
443.971549
442.049986
440.038536
437.928098
435.708755
433.369828
430.899953
428.287206
425.519271
422.583657
419.467984
416.160191
412.648771
408.923357
404.975215
400.797814
396.38747
391.744064
386.871837
381.780248
376.48489
371.008417
365.381448
359.64338
353.842919
348.038054
342.295452
336.689062
331.298633
326.205579
321.485377
317.206354
313.423999
310.176189
307.476637
305.312722
303.642204
302.401498
301.514848
300.904684
300.496817
300.231916
300.063534
299.95794
299.893667
299.860957
299.843176
299.831654
299.823069
299.816197
299.811982
299.810161
299.809284
299.80915
299.808979
299.807151
299.807161
299.81211
299.814718
472.440203
471.3083
470.146871
468.955261
467.732712
466.478327
465.190644
463.86843
462.510572
461.115331
459.68068
458.204261
456.68335
455.114815
453.495065
451.820001
450.084967
448.284721
446.413396
444.464449
442.430658
440.30411
438.076204
435.737673
433.278638
430.688675
427.956933
425.072274
422.023473
418.799452
415.389324
411.782895
407.971065
403.946301
399.703188
395.239065
390.554748
385.655336
380.551082
375.258315
369.800353
364.208352
358.521993
352.789891
347.06961
341.426976
335.934457
330.668629
325.706469
321.12198
316.979319
313.325685
310.188106
307.570365
305.454464
303.799529
302.547727
301.632006
300.983902
300.539586
300.242682
300.040943
299.923141
299.860333
299.829914
299.818035
299.812574
299.809677
299.808054
299.806907
299.807928
299.808592
299.808196
299.807882
299.808158
299.80764
299.80682
299.806268
299.808096
299.818371
472.37199
471.102111
469.798956
468.461645
467.089138
465.680099
464.23326
462.746949
461.219203
459.647735
458.029887
456.362597
454.642352
452.865156
451.026489
449.121281
447.143866
445.087973
442.946708
440.712549
438.377358
435.932405
433.36842
430.675656
427.844003
424.863111
421.722587
418.412079
414.921558
411.241687
407.364207
403.282405
398.99166
394.490078
389.779216
384.864886
379.758019
374.475561
369.041349
363.486876
357.851866
352.184511
346.541231
340.985806
335.587738
330.419702
325.554035
321.058465
316.991078
313.395504
310.297761
307.701665
305.588277
303.91908
302.641572
301.694327
301.014883
300.544521
300.23172
300.033928
299.914926
299.865469
299.840928
299.827629
299.819785
299.814568
299.810556
299.807947
299.806978
299.807245
299.807704
299.808122
299.81088
299.81155
299.809843
299.80807
299.80779
299.806871
299.80759
299.81575
472.293215
470.864008
469.397236
467.891794
466.346364
464.759419
463.129272
461.453834
459.730662
457.956925
456.129356
454.244223
452.297288
450.283776
448.198348
446.035084
443.787468
441.44839
439.010154
436.464504
433.802677
431.015463
428.093312
425.02646
421.80508
418.419392
414.859993
411.118181
407.186331
403.058363
398.730286
394.200822
389.472127
384.550572
379.447586
374.180508
368.773399
363.257732
357.672863
352.066145
346.492549
341.013663
335.695934
330.608091
325.817746
321.38742
317.370272
313.806098
310.71769
308.109168
305.964749
304.251962
302.924414
301.926648
301.200653
300.690684
300.346155
300.123446
299.986662
299.908908
299.87469
299.857099
299.841282
299.82748
299.818405
299.811887
299.807467
299.805266
299.804041
299.803869
299.804564
299.806333
299.809676
299.815922
299.818127
299.817802
299.817913
299.815743
299.813429
299.815651
472.205822
470.599865
468.951604
467.259724
465.522671
463.738668
461.905591
460.020933
458.081775
456.084751
454.026004
451.901162
449.705301
447.432929
445.077976
442.633783
440.093123
437.448219
434.690794
431.812138
428.803203
425.654732
422.357365
418.901843
415.279291
411.481526
407.501445
403.333474
398.974104
394.42251
389.681241
384.756977
379.661331
374.411646
369.031747
363.552551
358.012457
352.457382
346.940326
341.520322
336.260684
331.226511
326.481535
322.084427
318.084896
314.519967
311.411111
308.762738
306.561867
304.779952
303.37607
302.301561
301.502962
300.928241
300.527815
300.258337
300.083257
299.973641
299.906995
299.866907
299.845423
299.833856
299.827089
299.82304
299.818534
299.813369
299.808204
299.803989
299.802174
299.803139
299.805288
299.807406
299.81018
299.816039
299.822013
299.827837
299.830738
299.836025
299.836904
299.831793
472.111121
470.313642
468.468758
466.574958
464.630439
462.633067
460.580331
458.469297
456.296568
454.058247
451.749906
449.366559
446.90265
444.352042
441.708031
438.963367
436.110298
433.14063
430.045828
426.817133
423.44566
419.922639
416.239666
412.389006
408.363973
404.159364
399.771986
395.201243
390.449803
385.524319
380.436182
375.202264
369.845611
364.395992
358.890224
353.372173
347.892307
342.506695
337.275372
332.260021
327.521034
323.114102
319.086779
315.475163
312.301413
309.572035
307.277757
305.394752
303.887311
302.710868
301.816537
301.15677
300.684908
300.357482
300.13803
299.996212
299.906791
299.854764
299.829988
299.823906
299.81971
299.818167
299.819108
299.820426
299.821354
299.821741
299.821492
299.819337
299.815014
299.811541
299.812213
299.815105
299.817357
299.818572
299.821815
299.826428
299.829721
299.832513
299.837753
299.844
472.010127
470.008394
467.953808
465.844625
463.678766
461.45377
459.166746
456.814333
454.392663
451.897329
449.323362
446.665225
443.916811
441.071464
438.122015
435.060844
431.879966
428.571137
425.125982
421.536205
417.793834
413.891517
409.82288
405.582955
401.168673
396.579431
391.817724
386.889825
381.806493
376.583676
371.243145
365.813008
360.328012
354.829528
349.365144
343.987747
338.754051
333.722532
328.950827
324.492709
320.394884
316.693868
313.413723
310.564402
308.141502
306.126909
304.490865
303.194583
302.193781
301.441686
300.891627
300.501194
300.233807
300.057482
299.946486
299.881237
299.850645
299.840947
299.833019
299.824357
299.818834
299.816899
299.818534
299.819946
299.821206
299.822603
299.824912
299.827035
299.828627
299.829221
299.828513
299.828926
299.830171
299.830422
299.828408
299.826521
299.828111
299.82981
299.831924
299.839129
471.90372
469.686787
467.41126
465.075158
462.676118
460.211349
457.677587
455.071059
452.387452
449.621896
446.768955
443.822642
440.776446
437.623381
434.356071
430.966842
427.447852
423.791285
419.98958
416.035716
411.923549
407.648215
403.206602
398.597885
393.824119
388.89088
383.807939
378.589916
373.256894
367.834908
362.356249
356.859491
351.38915
345.994894
340.730245
335.650758
330.811728
326.265531
322.058787
318.229589
314.805172
311.799791
309.214578
307.037749
305.245164
303.80342
302.672482
301.808445
301.166877
300.704512
300.381664
300.162941
300.0207
299.933119
299.883114
299.857406
299.845441
299.83946
299.83333
299.830174
299.828279
299.82584
299.822444
299.820678
299.820749
299.821885
299.82459
299.826652
299.828294
299.828237
299.828177
299.828095
299.829371
299.83239
299.835259
299.836564
299.837507
299.835551
299.829933
299.834671
471.792933
469.35194
466.846373
464.274011
461.632208
458.917854
456.127331
453.256491
450.300633
447.254507
444.112331
440.867828
437.514296
434.044694
430.451757
426.728175
422.866803
418.860923
414.704564
410.392876
405.922571
401.292422
396.503823
391.561391
386.473601
381.253412
375.918859
370.493543
365.006964
359.49461
353.997738
348.562741
343.24007
338.082658
333.14391
328.475342
324.124022
320.130033
316.524168
313.326003
310.542099
308.166635
306.182853
304.563818
303.274043
302.272253
301.514921
300.958502
300.562185
300.289507
300.108784
299.993042
299.921598
299.88083
299.859146
299.848234
299.841876
299.838703
299.83587
299.833211
299.831457
299.830652
299.829574
299.829447
299.828994
299.828696
299.826514
299.826025
299.827367
299.826773
299.826291
299.827073
299.828211
299.829227
299.832287
299.836383
299.84132
299.848618
299.849802
299.83946
472.582977
471.739688
470.874244
469.986119
469.074774
468.139665
467.180232
466.195902
465.186087
464.150182
463.08756
461.997575
460.879559
459.732816
458.556623
457.350225
456.112829
454.843604
453.541669
452.20609
450.835868
449.429934
447.987132
446.506207
444.985789
443.424373
441.820299
440.171718
438.476569
436.732536
434.937006
433.087018
431.179198
429.20969
427.174069
425.067405
422.88412
420.617945
418.261607
415.806907
413.244704
410.564885
407.756429
404.801531
401.687692
398.403157
394.933561
391.265394
387.387319
383.291989
378.978497
374.455502
369.744985
364.886389
359.940602
354.99289
350.15343
345.55375
341.337474
337.644783
334.591312
332.245105
330.608044
329.609715
329.122265
329.050566
329.156498
329.31087
329.439176
329.504365
329.50138
329.478615
329.387166
329.215847
328.980602
328.690175
328.346197
327.96626
327.592805
327.279483
472.586869
471.751437
470.894029
470.014103
469.111103
468.184465
467.233609
466.257942
465.25685
464.229699
463.175835
462.094573
460.985203
459.846979
458.679117
457.48079
456.251122
454.989178
453.693956
452.364379
450.999281
449.59739
448.157316
446.67753
445.15634
443.591866
441.982007
440.324409
438.616417
436.85506
435.036989
433.158419
431.215084
429.202184
427.114345
424.94534
422.688255
420.335371
417.878123
415.307086
412.612159
409.77725
406.788397
403.636434
400.307131
396.786705
393.062476
389.12409
384.965233
380.585905
375.995321
371.215365
366.284417
361.261083
356.227028
351.287718
346.569555
342.211709
338.351629
335.1051
332.544136
330.679095
329.455826
328.764648
328.550155
328.548325
328.669074
328.777265
328.839324
328.843995
328.832708
328.78206
328.663068
328.495991
328.298347
328.091117
327.884594
327.692556
327.554144
327.453118
472.58852
471.756415
470.902401
470.025921
469.126404
468.203268
467.255917
466.283735
465.286088
464.262317
463.211738
462.133633
461.027251
459.891798
458.726432
457.530254
456.302305
455.041547
453.746859
452.417017
451.050684
449.646385
448.202495
446.717206
445.188505
443.614147
441.991615
440.318093
438.590401
436.804954
434.957714
433.044143
431.059144
428.997009
426.851362
424.615102
422.280356
419.8385
417.280261
414.59142
411.758825
408.773799
405.623054
402.293292
398.771483
395.045673
391.106114
386.946808
382.567551
377.97651
373.19332
368.252543
363.20713
358.131237
353.121353
348.294325
343.780933
339.714025
336.211308
333.355196
331.17832
329.655509
328.706881
328.212928
328.097333
328.12544
328.215302
328.29698
328.340035
328.33909
328.330816
328.295538
328.217936
328.117278
328.008924
327.908187
327.823234
327.75583
327.790846
328.229882
472.587721
471.753992
470.898296
470.02006
469.118701
468.19362
467.244201
466.269811
465.269794
464.243468
463.190119
462.108997
460.999312
459.860222
458.690828
457.490166
456.257192
454.990774
453.689673
452.352531
450.977849
449.563968
448.109042
446.611016
445.067589
443.476189
441.833929
440.137572
438.383488
436.567605
434.685364
432.731667
430.700836
428.586593
426.382048
424.079698
421.669719
419.140652
416.481105
413.682819
410.733969
407.62206
404.334356
400.858346
397.182417
393.296807
389.194921
384.87508
380.342772
375.613401
370.71544
365.693744
360.612471
355.556751
350.631973
345.959324
341.666528
337.872345
334.672034
332.121973
330.228017
328.942544
328.172271
327.795322
327.725238
327.778725
327.874173
327.963927
328.027099
328.061927
328.077048
328.071474
328.059786
328.041886
328.011068
327.995709
328.153703
328.73094
329.824801
331.517005
472.584073
471.742962
470.879678
469.993633
469.084227
468.150843
467.192847
466.209586
465.200381
464.164527
463.101283
462.009868
460.889455
459.739159
458.558032
457.345048
456.099093
454.818951
453.503286
452.150627
450.759345
449.327633
447.853479
446.334639
444.768606
443.152584
441.483454
439.757743
437.971598
436.120759
434.200545
432.205229
430.128159
427.962083
425.699245
423.330841
420.848715
418.244476
415.507506
412.626689
409.590431
406.386873
403.004228
399.431301
395.658231
391.677532
387.485499
383.084059
378.483081
373.703148
368.778606
363.76053
358.718968
353.743533
348.941276
344.429771
340.326511
336.737906
333.744285
331.386025
329.655611
328.497611
327.818064
327.499876
327.452424
327.529461
327.650569
327.774452
327.881908
327.970481
328.018984
328.044832
328.047042
328.073329
328.185127
328.654307
329.542044
330.993396
333.188454
336.057268
472.577117
471.721933
470.844196
469.943302
469.018629
468.069541
467.095382
466.095476
465.069123
464.015592
462.934116
461.823887
460.684045
459.513671
458.311778
457.077295
455.80906
454.505802
453.166126
451.788502
450.371243
448.912489
447.410194
445.862025
444.265308
442.617008
440.913834
439.152122
437.327748
435.436055
433.471781
431.429591
429.303845
427.088136
424.775046
422.356562
419.824092
417.168457
414.379888
411.448121
408.362549
405.112455
401.687378
398.077638
394.275093
390.274186
386.073347
381.676815
377.096894
372.356581
367.492354
362.556715
357.619844
352.769634
348.107855
343.744226
339.788824
336.329602
333.434392
331.153954
329.479013
328.355602
327.68465
327.358355
327.303372
327.386846
327.530661
327.689499
327.844535
327.956672
328.035652
328.16033
328.382466
328.76489
329.449543
330.497951
332.058966
334.245804
337.094316
340.455759
472.566315
471.689285
470.789121
469.865196
468.916868
467.943476
466.94434
465.918761
464.866013
463.785342
462.67596
461.537033
460.367679
459.166958
457.93386
456.667298
455.366095
454.02896
452.654452
451.24099
449.78684
448.290072
446.748526
445.159857
443.521538
441.83081
440.084508
438.2791
436.41069
434.47499
432.467294
430.382455
428.214861
425.958397
423.606425
421.151778
418.586765
415.90319
413.092394
410.145337
407.052731
403.805249
400.393859
396.8103
393.047787
389.10198
384.972291
380.663575
376.188185
371.568277
366.837938
362.048148
357.260168
352.555072
348.02449
343.767454
339.882693
336.469972
333.600998
331.304402
329.582701
328.398677
327.683813
327.350356
327.269048
327.312474
327.450701
327.635681
327.829655
328.006649
328.276776
328.675677
329.259362
330.091167
331.224363
332.726008
334.731195
337.323629
340.342161
343.617707
472.551118
471.643354
470.711645
469.75534
468.773771
467.766249
466.732071
465.67051
464.580819
463.462222
462.313909
461.135032
459.924698
458.681954
457.405782
456.095086
454.748683
453.365293
451.943545
450.48194
448.978818
447.432364
445.84059
444.201318
442.512159
440.770497
438.97346
437.117906
435.200399
433.217192
431.164206
429.037013
426.830819
424.540448
422.160331
419.684495
417.106562
414.419753
411.616913
408.690561
405.632979
402.436368
399.093091
395.596058
391.939294
388.118754
384.133419
379.986764
375.689494
371.267029
366.74182
362.152187
357.558263
353.029074
348.646065
344.499235
340.681086
337.278586
334.36191
331.973939
330.12526
328.792047
327.920358
327.434482
327.277319
327.300424
327.426567
327.621262
327.855539
328.173814
328.597548
329.172404
329.970682
331.082846
332.590944
334.479295
336.738454
339.101179
342.077613
344.698015
472.531064
471.582749
470.609423
469.61041
468.585011
467.532512
466.45218
465.343265
464.204997
463.036582
461.837198
460.60599
459.342071
458.044506
456.712308
455.344423
453.939725
452.497009
451.014983
449.492259
447.927337
446.318602
444.664309
442.962571
441.211351
439.408449
437.551494
435.637927
433.664999
431.629752
429.529016
427.359395
425.117257
422.798718
420.399633
417.915578
415.341833
412.67337
409.904837
407.030568
404.044609
400.940799
397.71291
394.354898
390.861311
387.227921
383.45265
379.536906
375.50085
371.342044
367.085852
362.764591
358.422674
354.116733
349.914792
345.893549
342.134086
338.715699
335.708406
333.164836
331.113524
329.554294
328.457395
327.767466
327.410783
327.32075
327.428006
327.630815
327.947948
328.377796
328.939771
329.662472
330.593098
331.768239
333.101678
334.928509
336.840667
339.317516
342.073697
344.46485
472.505898
471.506696
470.481151
469.428558
468.348187
467.239294
466.10112
464.932892
463.733819
462.503097
461.23991
459.943421
458.612759
457.247019
455.845259
454.406498
452.929708
451.413808
449.857664
448.260082
446.619801
444.935495
443.205767
441.429146
439.604082
437.728952
435.802049
433.821587
431.7857
429.692436
427.539761
425.325548
423.047573
420.7035
418.290864
415.807041
413.249217
410.614346
407.899099
405.099822
402.212499
399.232746
396.155856
392.976915
389.691055
386.293877
382.78214
379.154702
375.420421
371.58579
367.658719
363.661133
359.62458
355.591422
351.615503
347.760018
344.094806
340.691932
337.619555
334.934839
332.677708
330.86606
329.493907
328.5325
327.934606
327.642297
327.590858
327.721488
328.022962
328.447244
328.952198
329.68039
330.622606
331.782966
333.185164
334.842436
336.748055
338.79978
340.947118
343.11964
472.475682
471.415386
470.327153
469.210243
468.063897
466.887342
465.679793
464.440454
463.168527
461.863214
460.523703
459.149169
457.738778
456.291684
454.807024
453.283921
451.721483
450.118802
448.474953
446.788998
445.059988
443.286968
441.468975
439.60505
437.694244
435.73562
433.728263
431.671291
429.563858
427.405159
425.194442
422.930995
420.614149
418.243257
415.817672
413.336703
410.799565
408.205306
405.55273
402.840301
400.066048
397.227492
394.321596
391.344763
388.292894
385.161503
381.945789
378.640491
375.249733
371.78263
368.239032
364.627353
360.96699
357.28563
353.621059
350.0204
346.538062
343.233188
340.165797
337.391935
334.958477
332.8982
331.226376
329.939592
329.017265
328.425699
328.123826
328.072148
328.174395
328.458023
328.893134
329.529431
330.337791
331.324507
332.497031
333.863869
335.452795
337.233379
339.101902
340.754579
472.440925
471.310354
470.150014
468.959131
467.736917
466.482569
465.195278
463.874236
462.518644
461.127699
459.700604
458.236568
456.734812
455.194564
453.615065
451.995574
450.335365
448.63374
446.89003
445.103604
443.273877
441.400323
439.482484
437.51998
435.51253
433.459961
431.362226
429.219416
427.03178
424.799729
422.52385
420.204905
417.843825
415.441691
412.9997
410.519117
408.001198
405.447101
402.857765
400.233782
397.575244
394.881601
392.151539
389.382889
386.57262
383.716959
380.811763
377.853384
374.817057
371.732608
368.603431
365.419216
362.185693
358.918529
355.640431
352.382594
349.183839
346.088484
343.144172
340.398835
337.897077
335.67646
333.764186
332.174886
330.90997
329.958761
329.301226
328.911865
328.76335
328.775133
328.965391
329.313935
329.763978
330.432976
331.299985
332.358129
333.587759
334.963638
336.529519
337.55108
472.402688
471.194811
469.95515
468.6829
467.377241
466.037343
464.662381
463.251536
461.804
460.31898
458.795707
457.233433
455.631446
453.989068
452.305662
450.580642
448.81348
447.003715
445.150966
443.254944
441.315467
439.332477
437.306054
435.236439
433.124055
430.969521
428.77368
426.537617
424.262676
421.950476
419.602919
417.222194
414.810767
412.371357
409.9069
407.420484
404.915266
402.394363
399.860713
397.316909
394.76502
392.206399
389.641502
387.069736
384.489386
381.897611
379.290565
376.663621
374.011511
371.303557
368.570492
365.819642
363.037317
360.222913
357.387616
354.548402
351.728097
348.95638
346.266964
343.695939
341.279551
339.051677
337.041309
335.270428
333.752639
332.492777
331.487526
330.726777
330.195152
329.867919
329.746632
329.764577
329.892808
330.238021
330.699851
331.289256
332.016267
332.832302
333.937987
334.508447
472.362634
471.073774
469.751021
468.393535
467.000465
465.570961
464.104181
462.599293
461.055489
459.471994
457.848071
456.183027
454.476226
452.727095
450.935135
449.099932
447.22117
445.298646
443.332285
441.32216
439.26851
437.17176
435.032545
432.851731
430.630444
428.370089
426.072376
423.739345
421.373382
418.977233
416.554017
414.107219
411.640683
409.158575
406.665344
404.16565
401.664276
399.16601
396.6755
394.197078
391.734568
389.291066
386.868718
384.468509
382.090113
379.731842
377.390696
375.062595
372.742786
370.426493
368.086672