/*--------------------------------*- C++ -*----------------------------------*\
  =========                 |
  \\      /  F ield         | OpenFOAM: The Open Source CFD Toolbox
   \\    /   O peration     | Website:  https://openfoam.org
    \\  /    A nd           | Version:  8
     \\/     M anipulation  |
\*---------------------------------------------------------------------------*/
FoamFile
{
    version     2.0;
    format      ascii;
    class       volVectorField;
    location    "0.036";
    object      U;
}
// * * * * * * * * * * * * * * * * * * * * * * * * * * * * * * * * * * * * * //

dimensions      [0 1 -1 0 0 0 0];

internalField   nonuniform List<vector> 
42400
(
(-0.016577565 0.0158703228 -6.82294174e-27)
(-0.049697261 0.0468274739 2.1988006e-26)
(-0.0832749144 0.0773112224 2.18176463e-26)
(-0.117205635 0.107158117 0)
(-0.151421998 0.136278836 0)
(-0.185898888 0.164604507 -2.8303491e-28)
(-0.220629036 0.192077835 0)
(-0.255603107 0.218645222 3.09323922e-28)
(-0.290801801 0.24425213 0)
(-0.326192471 0.268840921 3.3763903e-28)
(-0.361728428 0.292350892 3.52571916e-28)
(-0.397350249 0.314719866 -3.68031578e-28)
(-0.432988363 0.335886674 2.61277993e-27)
(-0.468566176 0.355793991 6.48906307e-27)
(-0.504003017 0.374391001 -4.17650419e-28)
(-0.539216489 0.391635568 0)
(-0.574124042 0.407495771 0)
(-0.608643744 0.421950829 0)
(-0.642694401 0.43499152 0)
(-0.676195151 0.446620243 0)
(-0.709064705 0.456850845 0)
(-0.741220324 0.465708317 -1.10896803e-27)
(-0.772576615 0.473228409 5.87338104e-26)
(-0.803044159 0.479457195 1.3569124e-25)
(-0.832527953 0.484450576 7.77170058e-26)
(-0.86092563 0.488273701 -1.30269539e-27)
(-0.88812536 0.491000302 -1.35801325e-27)
(-0.9140033 0.492711907 2.83422619e-27)
(-0.938420667 0.493496888 0)
(-0.961220791 0.493449002 0)
(-0.98222597 0.492663672 -1.54011301e-25)
(-1.00122893 0.491231636 -1.71653791e-25)
(-1.01797884 0.489235114 3.56969024e-27)
(-1.03221487 0.48678167 2.11861032e-25)
(-1.04368918 0.483989076 2.30319442e-25)
(-1.05216873 0.480945392 0)
(-1.05694579 0.478137833 0)
(-1.05805121 0.474854316 0)
(-1.05448592 0.471761966 0)
(-1.04645598 0.468200226 3.89818968e-25)
(-1.0317751 0.465496363 3.91079287e-25)
(-1.00994818 0.46262839 4.37922943e-25)
(-0.979594884 0.459342112 1.05903211e-24)
(-0.938412654 0.455959699 -1.84962121e-26)
(-0.886580229 0.452073021 -7.16063155e-25)
(-0.822033761 0.448144454 -8.3468307e-25)
(-0.742998728 0.443954012 2.46960376e-26)
(-0.647625528 0.439317379 9.44599239e-25)
(-0.533921587 0.434153453 2.90952766e-26)
(-0.400088827 0.428104083 1.19366227e-24)
(-0.242156603 0.421405061 1.95532202e-33)
(-0.0584487123 0.415879376 -3.01967564e-24)
(0.149971554 0.412048358 -1.60737883e-24)
(0.397768494 0.40655144 1.07283723e-25)
(0.690356866 0.398401941 0)
(1.02900109 0.389647376 0)
(1.41955778 0.381737858 0)
(1.8695505 0.374690741 -1.71108509e-25)
(2.38404524 0.368458262 -1.85295007e-25)
(2.96853093 0.363272138 0)
(3.62840635 0.35928021 5.13344907e-24)
(4.36786854 0.356613746 5.31505096e-24)
(5.19033864 0.355392645 -4.9879885e-24)
(6.09834709 0.356635576 -4.61706583e-24)
(7.09273821 0.359702571 0)
(8.17803503 0.362665718 0)
(9.33316398 0.380399305 -1.35813356e-24)
(10.5602455 0.384608823 -1.12531786e-24)
(11.9213472 0.327801364 5.96328852e-26)
(13.11817 0.511090529 0)
(14.3645796 0.65537517 0)
(16.3088847 -0.0870886918 3.81726009e-25)
(17.5169666 -0.059931562 8.2813125e-25)
(17.7225884 1.9920462 0)
(19.1056137 1.69317352 1.48008363e-24)
(21.5560184 -0.749545258 7.75675704e-24)
(23.0475978 -1.26495831 4.30709409e-23)
(23.2672396 -0.369401897 -3.73403839e-24)
(23.1228161 1.48209478 7.91348974e-25)
(23.6930457 1.17303367 -9.95799235e-24)
(-0.0199491033 0.0176725452 0)
(-0.0594555267 0.052093589 1.72971862e-26)
(-0.0992329246 0.0860572101 1.65854423e-26)
(-0.139257402 0.119492978 0)
(-0.179485591 0.152346234 0)
(-0.21989618 0.184559181 1.07167074e-26)
(-0.260451924 0.21605995 9.24379831e-27)
(-0.301099336 0.246765199 5.56046174e-28)
(-0.341767094 0.276583124 0)
(-0.382367963 0.305416559 6.10294008e-28)
(-0.422801852 0.333166557 6.39314899e-28)
(-0.462959276 0.359735979 4.44993273e-27)
(-0.50272482 0.385032818 1.68425998e-26)
(-0.54198025 0.408973054 1.20246233e-26)
(-0.580606918 0.431482878 -1.70981846e-26)
(-0.618487279 0.452500179 -1.93729279e-26)
(-0.655505526 0.471975377 0)
(-0.691547441 0.489871695 1.78446663e-27)
(-0.726499652 0.506165051 0)
(-0.76024847 0.520843726 0)
(-0.792678435 0.533907914 0)
(-0.823670687 0.545369247 5.53676668e-26)
(-0.853101164 0.555250333 1.28138158e-25)
(-0.880838651 0.563584341 7.34626632e-26)
(-0.906742607 0.5704146 0)
(-0.930660745 0.575794094 -5.139052e-27)
(-0.952426045 0.579784373 -2.66229951e-27)
(-0.971852433 0.582453895 5.58172495e-27)
(-0.988728858 0.58387749 1.25043071e-25)
(-1.00282732 0.584144337 1.37151179e-25)
(-1.01391602 0.583347876 -6.53022449e-27)
(-1.02176484 0.581569047 -6.74563684e-27)
(-1.02588252 0.579146547 2.22566335e-25)
(-1.02622535 0.575698866 2.4637247e-25)
(-1.02220286 0.571668491 -2.86018261e-25)
(-1.01333673 0.567291453 -2.89283104e-25)
(-0.999713866 0.56214012 0)
(-0.979207687 0.557165994 1.00602927e-26)
(-0.951266567 0.551500301 0)
(-0.914016553 0.545434217 2.37730854e-26)
(-0.867316993 0.538534097 4.5165577e-25)
(-0.809574795 0.531370719 4.68561481e-25)
(-0.739431218 0.523920564 2.70463103e-26)
(-0.655138791 0.516111963 -2.89364762e-26)
(-0.554753931 0.507849437 6.220277e-26)
(-0.436583761 0.49881589 -3.18744123e-26)
(-0.298074682 0.489041663 3.55232562e-26)
(-0.139194014 0.479011444 9.45160261e-25)
(0.0475110197 0.470388538 1.06678154e-24)
(0.256070893 0.46326827 0)
(0.507432122 0.453828468 -5.32052266e-26)
(0.799864499 0.442160826 1.12793956e-25)
(1.13726789 0.430221082 1.36974815e-24)
(1.52621784 0.418581356 1.7446343e-24)
(1.97194958 0.407208332 1.45430248e-25)
(2.479945 0.396316757 3.96588592e-24)
(3.05594895 0.386264011 4.30278402e-24)
(3.70533265 0.377173057 -1.5648773e-25)
(4.43270268 0.369568006 -1.54431776e-25)
(5.24179884 0.36479191 5.26414796e-24)
(6.13473833 0.364500142 5.38134016e-24)
(7.11076413 0.369852692 1.08385708e-25)
(8.16650302 0.381349884 -8.62079228e-26)
(9.2949175 0.400018666 0)
(10.4850553 0.423443832 -3.98756151e-24)
(11.7455496 0.438288989 -7.40557214e-24)
(13.0363634 0.470090629 -2.78463636e-24)
(14.3108781 0.550163348 0)
(15.7280001 0.480249661 1.67137478e-26)
(17.0612187 0.457272905 4.6447075e-25)
(17.9843308 0.961898667 7.98421834e-25)
(19.3704323 0.833863482 5.48236121e-24)
(21.1169099 -0.136489133 -1.13944557e-24)
(21.7356031 0.376046021 2.34624019e-24)
(22.0536737 1.94288032 3.90366862e-26)
(23.0450005 1.47657035 9.61685665e-24)
(23.8954352 0.256789162 9.48264574e-24)
(24.0445977 -0.0513466078 -2.45542323e-24)
(24.1336871 0.17485339 -1.84482458e-23)
(24.0503874 0.56721626 -8.86306316e-24)
(-0.0227933225 0.0186648508 1.97003775e-27)
(-0.0676674399 0.0549944255 2.83042497e-28)
(-0.112642771 0.0909067673 -2.99402452e-28)
(-0.157769323 0.126409599 3.12979547e-28)
(-0.203049624 0.161489998 0)
(-0.248440958 0.19609127 -6.6416529e-27)
(-0.293889776 0.230135225 6.79887649e-34)
(-0.33929605 0.263518696 2.29254739e-27)
(-0.384534386 0.296121558 -1.9509566e-28)
(-0.4294603 0.327815586 -5.92168282e-27)
(-0.473916271 0.358471274 -5.13414997e-27)
(-0.517737417 0.38796308 9.34920906e-28)
(-0.560756047 0.416173483 9.81679514e-28)
(-0.602804948 0.442995935 -1.71876964e-26)
(-0.643719372 0.468336765 -2.16149651e-26)
(-0.683337808 0.492116163 3.41304408e-27)
(-0.721501716 0.514268429 2.92062452e-26)
(-0.758054464 0.534741726 7.43645846e-26)
(-0.792839702 0.553497553 4.31891361e-26)
(-0.825699407 0.570510112 2.77467692e-27)
(-0.856471696 0.585765712 -2.90999491e-27)
(-0.884988381 0.599262314 -3.05106771e-27)
(-0.911072108 0.611009175 0)
(-0.934533274 0.621026683 6.65591068e-27)
(-0.955166409 0.629345919 -8.87919261e-26)
(-0.972747283 0.636005235 5.99711139e-29)
(-0.987037529 0.641045873 1.07064736e-25)
(-0.997785874 0.644511851 1.20158002e-25)
(-1.00466234 0.64652986 1.37099494e-25)
(-1.00742057 0.647012891 -1.48007406e-25)
(-1.00575792 0.646168209 -9.03064189e-27)
(-0.999263887 0.644191509 3.65537475e-25)
(-0.987677052 0.641141644 2.05626094e-25)
(-0.970591535 0.637422394 0)
(-0.946379234 0.632768242 0)
(-0.914251202 0.626883114 -1.20867843e-26)
(-0.872633967 0.620037807 0)
(-0.821420021 0.612078203 2.68769755e-26)
(-0.759233059 0.603480251 3.24142156e-25)
(-0.684830552 0.594303856 5.91575617e-26)
(-0.596557069 0.584521766 -3.49710506e-25)
(-0.492538283 0.574068791 0)
(-0.37122624 0.562552279 0)
(-0.229650694 0.549956338 5.92292811e-25)
(-0.0662389479 0.537952207 7.49712723e-25)
(0.117377049 0.528890063 4.11015678e-26)
(0.326082347 0.52014923 0)
(0.58000243 0.507665476 0)
(0.871956422 0.49317261 9.02642745e-25)
(1.2071776 0.47933987 1.0240462e-24)
(1.59212065 0.46632011 -5.79604213e-26)
(2.0316087 0.453793915 0)
(2.531125 0.441868059 -1.21830283e-24)
(3.09639644 0.430659799 -1.53315803e-24)
(3.73276535 0.420443344 -3.40296074e-24)
(4.44522152 0.411978637 -3.76765046e-24)
(5.23786869 0.406455599 -4.39279377e-24)
(6.11315848 0.405092508 -1.40389076e-32)
(7.07114026 0.408987152 1.43636061e-32)
(8.10885837 0.419248104 -1.16503891e-23)
(9.22035349 0.437561253 -5.85040245e-24)
(10.3951858 0.465660625 5.58514747e-24)
(11.6220641 0.503370308 5.39863463e-24)
(12.8869295 0.55273082 0)
(14.1634384 0.615274236 5.03915593e-24)
(15.4661362 0.671597886 9.60787502e-24)
(16.7740683 0.696349886 4.76632193e-24)
(17.9845669 0.815744882 0)
(19.1462346 0.932666808 -2.4187215e-26)
(20.4532274 0.759835916 4.70804811e-24)
(21.4122297 0.898513182 3.15370249e-24)
(22.0971463 1.38159368 0)
(23.0453258 1.14593548 0)
(23.8505833 0.585233046 1.22769991e-24)
(24.0259282 0.875495431 -1.77302095e-24)
(24.0536791 1.27884287 3.03546218e-24)
(24.0016748 1.48045995 1.01223808e-23)
(24.0391863 1.05841565 0)
(24.106964 0.837611335 -3.023253e-24)
(24.1265757 0.671512893 7.51423547e-24)
(-0.0251560266 0.019010477 2.22100041e-28)
(-0.074480262 0.0559755294 3.49469323e-28)
(-0.123765668 0.0925447456 4.27328131e-27)
(-0.173131775 0.128788343 -2.62542156e-27)
(-0.222611228 0.16472666 -2.59722838e-27)
(-0.27217189 0.200317495 0)
(-0.321705435 0.23546631 -1.61813641e-27)
(-0.371060188 0.270052499 5.9482286e-29)
(-0.42007546 0.303940712 3.87216793e-27)
(-0.468540186 0.336984367 6.83005801e-27)
(-0.516233628 0.369031515 1.23037476e-26)
(-0.562930294 0.399935884 2.84177664e-34)
(-0.608404024 0.429561819 1.23684293e-27)
(-0.652431449 0.457787099 1.66432675e-33)
(-0.694793673 0.484504491 -1.36827967e-27)
(-0.735276286 0.50962229 3.48981182e-26)
(-0.773668082 0.533064094 -4.06675872e-26)
(-0.809758779 0.554768183 -3.14771628e-27)
(-0.843336064 0.5746868 5.03199655e-26)
(-0.874182521 0.592785491 3.46174582e-27)
(-0.90207279 0.609042147 -7.30164921e-27)
(-0.926766434 0.623441422 -7.24471521e-26)
(-0.948005425 0.635971479 -8.04123572e-26)
(-0.965516462 0.646624952 4.18362146e-27)
(-0.979013903 0.655391216 0)
(-0.988207856 0.662329836 4.55116564e-27)
(-0.992812868 0.667522457 0)
(-0.992509011 0.671087195 1.40481168e-25)
(-0.987003002 0.673148 2.81177808e-25)
(-0.975944766 0.673928273 1.53746113e-25)
(-0.958131946 0.673192684 -1.4731676e-25)
(-0.932866565 0.670867707 -1.67900975e-25)
(-0.89922842 0.666907694 2.53662717e-26)
(-0.855892385 0.661499688 1.34324295e-26)
(-0.802706351 0.654783586 -2.35790739e-25)
(-0.738415535 0.647053295 -2.65584034e-25)
(-0.66179093 0.638365897 0)
(-0.571272367 0.628748552 3.00606493e-25)
(-0.465096616 0.618207314 2.88377826e-25)
(-0.341777254 0.606472631 3.35236189e-26)
(-0.198531427 0.593677805 3.68189071e-26)
(-0.0335887335 0.581601258 0)
(0.14976154 0.57134436 0)
(0.365355845 0.559876539 0)
(0.617826097 0.546228724 4.60552221e-26)
(0.907688108 0.532322493 6.86545612e-25)
(1.24030484 0.51934545 6.82357531e-25)
(1.62091166 0.507110424 0)
(2.05371614 0.495477589 0)
(2.54412524 0.484826808 9.17280224e-25)
(3.09780673 0.475460809 1.00513661e-24)
(3.72010349 0.467916619 1.2547473e-24)
(4.41595466 0.463012733 1.44418568e-24)
(5.18928314 0.46158211 -1.22239028e-25)
(6.04248543 0.464316034 -2.0127722e-24)
(6.97612286 0.471816534 -2.1052851e-24)
(7.98865343 0.484769282 -5.10128109e-24)
(9.07611774 0.504109045 -5.81667373e-24)
(10.2316031 0.530833215 0)
(11.4439569 0.566412756 -2.01240499e-26)
(12.6982428 0.612970311 -6.28891965e-24)
(13.9749609 0.672756853 -1.2369811e-23)
(15.2570881 0.743134319 1.41201865e-25)
(16.5283669 0.824459269 1.84177217e-25)
(17.7541113 0.914679264 -6.35898456e-24)
(18.9323055 1.02488076 5.73741039e-24)
(20.0705559 1.07445814 5.80717398e-24)
(21.1642936 1.11948665 -7.58019443e-25)
(21.9816335 1.27804506 -3.33948237e-24)
(22.9099966 1.31437996 -1.20724395e-23)
(23.5694289 1.20285793 7.64032832e-26)
(23.87627 1.29087321 -1.12178092e-23)
(23.9658833 1.45580663 -3.36750786e-24)
(23.9972313 1.41857866 0)
(24.0167451 1.29734916 -8.3831529e-24)
(24.0418428 1.1807524 -1.70333109e-23)
(24.0411343 1.26842128 2.01868689e-24)
(24.0380868 1.28548039 6.4911158e-24)
(24.060361 1.25868992 7.04994735e-24)
(24.041514 1.10372984 1.28061704e-23)
(-0.0272733455 0.0189794352 1.56028889e-27)
(-0.0805731576 0.0558041393 0)
(-0.133699028 0.0921983507 0)
(-0.186829831 0.12827704 8.28923877e-31)
(-0.240019087 0.164083733 0)
(-0.293219391 0.199585982 0)
(-0.346301464 0.234695399 0)
(-0.399076056 0.269278629 -2.26663944e-27)
(-0.451273684 0.303171786 0)
(-0.502613899 0.336211352 1.26188535e-27)
(-0.552843498 0.368236773 1.57596896e-26)
(-0.601660827 0.399099157 1.75101694e-33)
(-0.648772869 0.428652988 -2.01462166e-26)
(-0.693892069 0.456768469 0)
(-0.736735512 0.483333246 -1.62496756e-27)
(-0.777024271 0.508252216 3.4263111e-27)
(-0.814481267 0.53144633 0)
(-0.848823623 0.552848447 5.11079116e-26)
(-0.879757267 0.572401657 3.99654372e-27)
(-0.906978839 0.590064523 -1.25528312e-25)
(-0.930197064 0.605774495 -7.44993424e-26)
(-0.949086726 0.619605087 4.53394733e-27)
(-0.963372152 0.63155441 0)
(-0.972733567 0.641686381 -1.06332157e-25)
(-0.976833001 0.650118358 -1.19106159e-25)
(-0.974977081 0.656656908 -1.24016924e-25)
(-0.966582607 0.661351528 -1.38451135e-25)
(-0.950996236 0.664188808 1.47695436e-25)
(-0.927434197 0.665149229 1.55212866e-25)
(-0.894885449 0.664292627 0)
(-0.853005456 0.661882832 -1.89490218e-25)
(-0.800757356 0.658042568 -2.01614532e-25)
(-0.737037335 0.652828349 1.44461184e-26)
(-0.66061189 0.646312042 -2.12773488e-25)
(-0.569979517 0.638570469 -2.39991815e-25)
(-0.463428793 0.629659926 -3.27353015e-26)
(-0.339424555 0.619412483 1.71447211e-26)
(-0.195513818 0.607970679 -3.50632626e-25)
(-0.0299015753 0.597079372 -3.72666659e-25)
(0.153858319 0.587590984 3.15511978e-25)
(0.371518547 0.576734624 6.37346148e-25)
(0.623232449 0.564301455 4.42248936e-25)
(0.911774604 0.552054644 0)
(1.24171395 0.5407378 -4.69547464e-26)
(1.61740718 0.530404541 -5.18652628e-25)
(2.0434914 0.521280666 -5.03023125e-26)
(2.52525281 0.513786981 1.00115805e-32)
(3.06809712 0.508423818 -7.01145052e-25)
(3.67704915 0.505882784 0)
(4.35664281 0.506891711 -5.41834697e-26)
(5.11054958 0.512168996 -1.25582839e-24)
(5.94117969 0.522392283 -1.34812249e-24)
(6.8493784 0.538216046 -1.71266075e-25)
(7.83412571 0.560319712 -2.04605061e-24)
(8.8920227 0.589282483 -2.25900046e-24)
(10.0171986 0.6256119 -2.68830206e-24)
(11.200861 0.669066102 -8.81908046e-24)
(12.4314125 0.719501926 -6.21848155e-24)
(13.6935893 0.77721401 -6.50248554e-24)
(14.9695051 0.842680299 -6.93322257e-24)
(16.2377247 0.916007387 0)
(17.4732042 1.00065232 1.76468583e-25)
(18.6542033 1.08917209 -7.17937926e-24)
(19.7682498 1.18371637 -7.78995104e-24)
(20.7866673 1.26522261 -4.00300237e-26)
(21.7057764 1.35784159 0)
(22.4983078 1.43259881 1.08952206e-23)
(23.2274923 1.4361784 1.16944733e-23)
(23.7563246 1.44437196 9.10575056e-25)
(23.8611542 1.51024951 -1.04474739e-24)
(23.9039194 1.55592083 -1.68470637e-26)
(23.9357897 1.55730128 -1.15543793e-24)
(23.9600571 1.52057082 -1.20140149e-23)
(23.9737999 1.50535438 -9.30116823e-24)
(23.9728787 1.49543511 -9.58872561e-25)
(23.9978531 1.46344856 0)
(24.0503991 1.36772264 -6.43117086e-24)
(24.0708529 1.32343927 -8.48637994e-24)
(24.0911334 1.3020897 0)
(24.0807997 1.30675856 -9.71791188e-24)
(-0.0294067611 0.0187945087 -2.72313637e-27)
(-0.0866839922 0.0551292772 -3.71491979e-27)
(-0.143612873 0.0909319405 -4.22985115e-27)
(-0.200415786 0.12634497 -5.33515918e-28)
(-0.257151505 0.16142608 1.67955395e-27)
(-0.313747255 0.196145175 -1.18786392e-27)
(-0.370026168 0.230409601 2.00979637e-27)
(-0.425731628 0.264085348 8.85603513e-28)
(-0.480553768 0.297013611 1.39388654e-27)
(-0.534156702 0.329014435 2.93736486e-27)
(-0.586131888 0.359914747 -5.66691695e-27)
(-0.636124433 0.389554226 -3.00958836e-26)
(-0.683791317 0.417791737 -2.57638356e-26)
(-0.728758594 0.444509267 -2.97853252e-26)
(-0.770662666 0.469599254 1.90917895e-27)
(-0.809141953 0.492974725 4.72299329e-26)
(-0.843854244 0.514530865 0)
(-0.87441815 0.534273173 0)
(-0.900494164 0.552188975 6.67233729e-26)
(-0.921672912 0.568167197 1.62597563e-25)
(-0.93748449 0.582262539 9.11015909e-26)
(-0.947486477 0.594390621 1.02462325e-25)
(-0.951114385 0.604573389 1.68433942e-33)
(-0.947755326 0.612799959 -1.28320407e-25)
(-0.93670889 0.619041356 1.2707128e-25)
(-0.917475882 0.623522736 2.88645626e-25)
(-0.889278192 0.626255029 1.50077052e-25)
(-0.851229458 0.62728804 -6.93800642e-27)
(-0.802345727 0.62667816 7.22759878e-27)
(-0.741534708 0.624489929 -1.50673701e-26)
(-0.667554098 0.62081233 0)
(-0.578921344 0.615746889 2.38038854e-25)
(-0.473940851 0.609402641 -1.69666999e-26)
(-0.351020282 0.601719812 -2.42412713e-25)
(-0.208008933 0.592778815 0)
(-0.043006872 0.584067196 -3.58456241e-25)
(0.141179279 0.576533597 -2.56931386e-25)
(0.357016118 0.568154112 0)
(0.607756202 0.558283787 0)
(0.894254593 0.548690393 -3.76202444e-25)
(1.2208992 0.540291093 -4.11971109e-25)
(1.5917865 0.533196181 9.22684036e-26)
(2.01148292 0.527788191 0)
(2.48495119 0.524598695 4.87467014e-25)
(3.0171262 0.524239864 1.15077996e-24)
(3.61270073 0.52740528 6.30510787e-25)
(4.27594774 0.53481695 4.87371931e-26)
(5.01043707 0.547213207 -2.18385074e-27)
(5.81875368 0.565388535 0)
(6.70214762 0.590176709 -1.26014145e-24)
(7.66011253 0.622398924 -5.84370637e-26)
(8.68992342 0.662808756 1.72460333e-24)
(9.78615955 0.71197669 -1.11894536e-26)
(10.940587 0.770347709 -2.41842587e-24)
(12.1416184 0.837500779 -5.43718405e-24)
(13.3759598 0.912375591 8.05918162e-33)
(14.6274427 0.993422238 2.99112111e-24)
(15.8791885 1.07868504 0)
(17.1101639 1.16618778 0)
(18.3006244 1.25546577 1.43443772e-25)
(19.425849 1.34377404 1.57677586e-25)
(20.4578329 1.43445658 0)
(21.3793604 1.51896178 8.92368768e-24)
(22.1895006 1.60305441 8.12506137e-24)
(22.8546679 1.64762383 -8.2345256e-24)
(23.4341284 1.68973401 -2.26062551e-23)
(23.8178837 1.69515221 -1.01625092e-23)
(23.9082507 1.72648253 -6.71284192e-24)
(23.8976321 1.7646869 -8.88264029e-24)
(23.8751922 1.75329055 -8.65437717e-25)
(23.8801992 1.7219139 8.9519856e-24)
(23.9339192 1.65700596 9.58715614e-24)
(23.970219 1.62280755 -9.76183991e-24)
(23.9913963 1.5799402 -9.66076814e-24)
(23.9892158 1.57392272 -9.05906245e-24)
(23.9893332 1.55276006 -8.25315919e-24)
(24.0366374 1.48625213 -1.11989774e-23)
(24.0565719 1.43044036 1.78208164e-31)
(24.1135892 1.35845503 1.98034188e-23)
(24.1044863 1.34178981 2.33639313e-23)
(-0.0317561055 0.0185791266 1.5211837e-27)
(-0.0933503951 0.0543183811 5.58778804e-28)
(-0.154321573 0.0893633051 3.50587429e-27)
(-0.214915585 0.123869716 -9.76149872e-34)
(-0.27517729 0.157901333 -1.67409193e-27)
(-0.334991353 0.191427098 -1.71709044e-27)
(-0.394118619 0.224350166 2.41421492e-27)
(-0.452227483 0.256531384 1.43642251e-27)
(-0.508922912 0.28780882 4.99713204e-27)
(-0.563771831 0.318014516 7.11526349e-27)
(-0.616328936 0.346979901 9.08676654e-27)
(-0.666127215 0.374542202 9.27068817e-27)
(-0.71268354 0.400562712 1.4269596e-26)
(-0.75554379 0.424945641 2.04940593e-26)
(-0.794280747 0.44756759 2.19966782e-27)
(-0.828419885 0.468372703 2.30974186e-27)
(-0.857468296 0.487337627 6.59082135e-26)
(-0.88096354 0.50437381 7.54549561e-26)
(-0.898363554 0.519445831 -5.3184802e-27)
(-0.909124165 0.532631265 -5.62821927e-27)
(-0.912671096 0.543903314 9.75620795e-26)
(-0.908344296 0.553289863 1.09195642e-25)
(-0.895432287 0.56081475 0)
(-0.873111488 0.566526067 6.77898766e-27)
(-0.840510944 0.570460707 0)
(-0.796639378 0.57269308 0)
(-0.740381321 0.573318395 7.73024763e-27)
(-0.670481166 0.572445464 -2.13191281e-25)
(-0.585494482 0.570195896 -2.03898282e-25)
(-0.483788992 0.566721095 2.02143526e-25)
(-0.363779841 0.562050224 2.28884004e-25)
(-0.223592119 0.556163953 1.85518027e-26)
(-0.0601816312 0.550037104 -1.90723274e-26)
(0.123360094 0.544976683 0)
(0.33550585 0.539762015 2.07635522e-26)
(0.583878003 0.533222833 0)
(0.866975889 0.526947562 0)
(1.1891677 0.52216512 2.33590222e-26)
(1.55435857 0.519069907 0)
(1.96671212 0.518046139 0)
(2.43082711 0.519656753 4.94836783e-25)
(2.95126692 0.524546791 5.97066199e-25)
(3.53241969 0.533420118 0)
(4.1783478 0.547031415 0)
(4.89255929 0.566191323 0)
(5.6777391 0.591755308 4.40127646e-26)
(6.53542125 0.624572214 3.6456926e-26)
(7.4656319 0.665452657 1.23052057e-24)
(8.46650432 0.715132573 1.48382462e-24)
(9.53387898 0.774232134 1.75013045e-24)
(10.6609306 0.843210827 2.06650183e-24)
(11.8377236 0.922405163 2.42953647e-24)
(13.0507991 1.01174047 2.71436321e-24)
(14.2839505 1.11067281 0)
(15.5188764 1.2176186 0)
(16.7381039 1.3305205 -2.86939216e-24)
(17.9192526 1.44552526 -6.14941277e-24)
(19.0477478 1.55827051 -3.31309613e-24)
(20.0991343 1.66511276 -3.50867573e-24)
(21.0633802 1.7648656 -3.19515993e-24)
(21.9226793 1.8622002 6.37251842e-24)
(22.631654 1.93408799 1.25926227e-23)
(23.2535909 2.00653073 3.71123897e-25)
(23.6411819 2.05177998 -1.36475386e-23)
(23.8884395 2.10037238 2.63531776e-25)
(23.939056 2.07307992 -7.84610359e-25)
(23.951001 2.06896794 4.52501539e-24)
(23.9203108 2.05464899 -1.12752612e-31)
(23.9122562 2.01564917 -1.03385188e-23)
(23.9202103 1.99374935 -6.51762669e-25)
(23.9678845 1.95896116 9.41933242e-24)
(24.0037634 1.92576982 8.10631325e-24)
(24.0200012 1.89781818 0)
(24.039981 1.85478916 8.27255693e-25)
(24.0537746 1.81439042 0)
(24.0644624 1.78047224 1.01553473e-23)
(24.0885546 1.75421873 1.65690572e-23)
(24.1085439 1.70864898 1.08096612e-23)
(24.1492257 1.64530273 7.60680431e-24)
(24.1630667 1.59013523 2.04106673e-23)
(-0.0343282397 0.0183140016 1.55138592e-27)
(-0.100545122 0.0533404614 4.71001728e-27)
(-0.165708071 0.0874826494 -6.91376693e-28)
(-0.230060613 0.120897077 -2.58978436e-27)
(-0.293609054 0.153644627 -1.1223438e-27)
(-0.356172563 0.18568898 -3.23605576e-28)
(-0.417428794 0.216928695 -1.71067653e-27)
(-0.476952029 0.247222596 -6.22744122e-27)
(-0.534247569 0.27640973 -8.67955958e-27)
(-0.588780507 0.304325363 -1.14628346e-26)
(-0.639996088 0.33081422 0)
(-0.687325213 0.35575652 -4.42075525e-27)
(-0.730201023 0.379010964 2.32851851e-27)
(-0.768046596 0.400471558 0)
(-0.800246901 0.420095531 0)
(-0.826217941 0.437815833 0)
(-0.8453412 0.453611739 0)
(-0.856963181 0.467479109 -2.98165262e-27)
(-0.860381456 0.479428717 0)
(-0.854839542 0.489494357 -6.11963992e-26)
(-0.839543317 0.497714961 -6.7770844e-26)
(-0.813549182 0.504169941 1.28575118e-25)
(-0.775875202 0.508928449 1.50124702e-25)
(-0.725399322 0.512094317 -1.57176736e-25)
(-0.660868155 0.51378044 -1.88867402e-25)
(-0.580853566 0.51411709 -1.96307653e-25)
(-0.483758964 0.513262522 -1.97230507e-25)
(-0.367976291 0.511269349 -2.36426575e-25)
(-0.231639745 0.508166621 -5.26081674e-25)
(-0.0720006906 0.504791472 -3.05174134e-25)
(0.108905257 0.502299017 0)
(0.317253326 0.500001268 -2.15514773e-26)
(0.560816386 0.497014828 -2.28148558e-26)
(0.838434565 0.494461911 0)
(1.15421767 0.493575467 2.39426704e-26)
(1.51184533 0.494633658 0)
(1.91505432 0.498012092 0)
(2.36806317 0.504326563 5.05038572e-25)
(2.87510242 0.514255593 -2.69452932e-26)
(3.44026655 0.528544812 -5.92017067e-25)
(4.06739312 0.547990274 6.95089772e-25)
(4.75985254 0.573418192 7.56675088e-25)
(5.52032233 0.605674573 2.5462547e-26)
(6.35049755 0.645579075 0)
(7.25078551 0.693894075 1.12441439e-24)
(8.21997574 0.75128247 1.40047074e-24)
(9.2549026 0.818255247 0)
(10.3501207 0.895112624 0)
(11.4976137 0.981907191 -2.22083396e-24)
(12.6864574 1.07842487 -2.57059171e-24)
(13.9027198 1.18421781 2.93183878e-24)
(15.1286595 1.29873693 3.10504453e-24)
(16.3451636 1.42067976 -3.07409823e-24)
(17.5326111 1.54854885 2.40805816e-32)
(18.6687346 1.67951133 3.29437338e-24)
(19.7369693 1.81130501 1.62412459e-26)
(20.7118755 1.93864542 0)
(21.5961232 2.05503295 3.16453687e-25)
(22.3574979 2.15323823 -3.08465301e-24)
(23.0385998 2.22751138 3.97404642e-25)
(23.5327837 2.28473846 6.95498539e-24)
(23.8272701 2.3357018 0)
(23.9105401 2.35703377 4.44863843e-25)
(23.9492594 2.37432161 0)
(23.9628326 2.34536814 4.81943751e-25)
(23.9357391 2.38184679 -2.45047483e-25)
(23.9231729 2.35246918 -8.13354834e-25)
(23.9405216 2.31322906 -8.94714681e-24)
(23.9535235 2.27892581 -1.3184924e-23)
(23.9653839 2.230789 -9.27148273e-25)
(24.0085215 2.17108542 -9.02875087e-24)
(24.0455821 2.09025014 -1.08586474e-23)
(24.060497 2.03447946 -1.3868919e-23)
(24.0623877 2.01101191 -1.04610572e-23)
(24.0639533 1.96875429 -1.03566741e-23)
(24.0979776 1.91314951 -1.29437128e-23)
(24.1380724 1.82686284 1.1899872e-23)
(24.150032 1.85724843 1.1912167e-23)
(24.17553 1.81072142 -2.00515941e-24)
(24.187414 1.78129431 2.37748167e-24)
(-0.0368889333 0.0178595483 1.2815997e-27)
(-0.107549012 0.051815003 -4.52000139e-27)
(-0.176536439 0.0847087327 -8.1176813e-28)
(-0.244059495 0.116689066 -8.34690397e-34)
(-0.310056969 0.147807338 6.3046946e-28)
(-0.374256847 0.178020318 -9.48566461e-28)
(-0.436231742 0.207224296 4.93706163e-27)
(-0.495440158 0.235288625 1.59314019e-33)
(-0.551269321 0.262051953 -1.95661452e-26)
(-0.603048244 0.287368076 -1.42329366e-26)
(-0.650078816 0.311097597 2.45322735e-27)
(-0.691650871 0.333104906 -2.3626759e-26)
(-0.727030432 0.353320106 -2.23450873e-26)
(-0.755490233 0.371663887 -2.96831638e-26)
(-0.776280312 0.388099829 -3.47228677e-26)
(-0.788627413 0.40261912 4.02044854e-26)
(-0.791716836 0.415242379 4.59572331e-26)
(-0.784692523 0.425996198 -3.42120714e-27)
(-0.766608963 0.434963021 0)
(-0.736456323 0.442213531 -6.17362242e-26)
(-0.693114593 0.447857931 -7.28468555e-26)
(-0.635341363 0.452023543 -8.31772113e-27)
(-0.561740487 0.454860374 8.82154988e-26)
(-0.470783129 0.456536346 1.02824184e-25)
(-0.360888904 0.457133987 -1.87627368e-26)
(-0.230204319 0.456779765 0)
(-0.0762746266 0.456229415 1.0241037e-26)
(0.0995143884 0.456359804 1.60133336e-28)
(0.302775321 0.456743423 -2.61349137e-25)
(0.539933612 0.456861217 -2.98515676e-25)
(0.810416923 0.457689838 3.49941579e-25)
(1.11802292 0.46032915 3.3258806e-25)
(1.46619269 0.465142822 -5.14891105e-26)
(1.85839908 0.472559494 -3.95414693e-25)
(2.29851355 0.48322474 -1.95685185e-32)
(2.79045117 0.497828723 5.06878005e-25)
(3.33800931 0.517126901 -5.91358278e-25)
(3.94478153 0.541923436 -6.29152738e-25)
(4.61397387 0.573043681 -5.81863576e-26)
(5.34821422 0.611326881 2.91330998e-26)
(6.14929529 0.657580544 2.7164875e-26)
(7.01790016 0.712549119 -1.05996908e-24)
(7.95329807 0.776868732 -2.44668498e-24)
(8.95303045 0.851012551 -1.44704068e-24)
(10.0126056 0.935227487 -1.73302686e-24)
(11.1252235 1.02946526 -2.0005394e-24)
(12.2815549 1.13331263 0)
(13.469613 1.24592676 2.74589799e-24)
(14.6747742 1.36604462 3.21006228e-24)
(15.8795297 1.49196418 3.47671689e-24)
(17.0646562 1.62167195 7.31290189e-24)
(18.2097589 1.75268777 7.66780361e-24)
(19.2942603 1.88266223 8.08627134e-24)
(20.2981168 2.00827708 8.52458267e-24)
(21.2027092 2.12725398 4.49850395e-24)
(21.9931517 2.23518441 -4.06823014e-25)
(22.655843 2.33067262 0)
(23.1997548 2.39528362 -5.36212319e-24)
(23.616902 2.44903534 -5.34265399e-24)
(23.8020998 2.47527521 0)
(23.8569045 2.50639396 -3.69797039e-24)
(23.8924529 2.51963352 -4.38132e-24)
(23.9095118 2.51369054 0)
(23.9137417 2.50529188 -2.89150973e-25)
(23.9173675 2.50097266 0)
(23.9253774 2.47011018 -8.34516542e-24)
(23.9227763 2.44701055 -1.20706908e-24)
(23.9314938 2.4343008 7.70572422e-24)
(23.9541043 2.39355735 -6.40258506e-25)
(23.963965 2.34436506 -1.05201056e-24)
(23.9706394 2.34095346 -9.7387677e-24)
(23.9943458 2.30828075 -9.01043625e-24)
(24.0100188 2.25352506 -6.84342773e-25)
(24.0221953 2.19763027 -8.50895446e-25)
(24.0303044 2.14513436 -4.19781834e-26)
(24.0461183 2.09023862 -6.77693755e-25)
(24.0907921 2.00205969 1.03898412e-23)
(24.1375404 1.89400522 2.65875246e-23)
(24.1747477 1.81996086 1.3386557e-23)
(24.1820821 1.80604076 -2.3195641e-24)
(-0.0390771773 0.0170665405 0)
(-0.113251855 0.0493163323 -9.02569709e-28)
(-0.184905728 0.0803647177 9.50481435e-28)
(-0.254176781 0.110350768 -3.03469156e-27)
(-0.320903988 0.139312786 1.0547728e-27)
(-0.384688957 0.167204484 1.11041208e-27)
(-0.44496096 0.193925009 -9.53389894e-27)
(-0.50102835 0.219338565 0)
(-0.552106535 0.243315685 2.57812294e-27)
(-0.597368445 0.265721171 -1.9580252e-26)
(-0.635952027 0.286444055 -2.0918392e-26)
(-0.666973638 0.30539857 2.83160329e-26)
(-0.689532245 0.322528895 3.15311499e-27)
(-0.702706263 0.337812006 -7.41780393e-26)
(-0.705538254 0.351263347 -8.89306932e-26)
(-0.697042434 0.362904515 -4.6774085e-26)
(-0.676135429 0.372833432 -3.81223551e-27)
(-0.641692729 0.381129377 -6.41491467e-26)
(-0.592475943 0.387927406 -6.74383984e-26)
(-0.527122889 0.393382061 4.32666652e-27)
(-0.44415034 0.397663997 -4.56528288e-27)
(-0.341994025 0.400885365 -1.89738016e-26)
(-0.218804845 0.403284694 -1.12446582e-25)
(-0.0727433147 0.405611864 -2.48456983e-25)
(0.0956505958 0.408355779 -1.20106962e-25)
(0.292505918 0.411287888 -1.12535362e-26)
(0.521055772 0.414370661 -1.2098602e-25)
(0.782412353 0.418487462 1.21543598e-26)
(1.07992135 0.424485225 -1.25863645e-26)
(1.41674622 0.432788073 -1.7144873e-25)
(1.79612504 0.443893714 0)
(2.22160908 0.4584794 -4.5014985e-25)
(2.69680494 0.477257884 -2.87986219e-26)
(3.22523882 0.500997515 5.54813893e-25)
(3.810278 0.530512353 6.13941266e-25)
(4.45497 0.566635081 6.79408934e-25)
(5.16188352 0.610210367 -3.05089792e-26)