/*--------------------------------*- C++ -*----------------------------------*\
  =========                 |
  \\      /  F ield         | OpenFOAM: The Open Source CFD Toolbox
   \\    /   O peration     | Website:  https://openfoam.org
    \\  /    A nd           | Version:  8
     \\/     M anipulation  |
\*---------------------------------------------------------------------------*/
FoamFile
{
    version     2.0;
    format      ascii;
    class       volScalarField;
    location    "0.024";
    object      p_rgh;
}
// * * * * * * * * * * * * * * * * * * * * * * * * * * * * * * * * * * * * * //

dimensions      [1 -1 -2 0 0 0 0];

internalField   nonuniform List<scalar> 
42400
(
101330.328
101330.319
101330.31
101330.301
101330.293
101330.286
101330.279
101330.272
101330.266
101330.26
101330.255
101330.25
101330.246
101330.242
101330.24
101330.238
101330.236
101330.236
101330.236
101330.236
101330.238
101330.24
101330.244
101330.248
101330.253
101330.259
101330.266
101330.274
101330.283
101330.294
101330.306
101330.319
101330.334
101330.351
101330.37
101330.391
101330.42
101330.459
101330.502
101330.538
101330.567
101330.6
101330.644
101330.7
101330.762
101330.829
101330.903
101330.983
101331.069
101331.157
101331.266
101331.402
101331.527
101331.636
101331.761
101331.908
101332.071
101332.231
101332.389
101332.544
101332.69
101332.827
101332.956
101333.073
101333.163
101333.222
101333.238
101333.195
101333.223
101333.048
101332.365
101332.245
101333.087
101332.66
101330.884
101330.266
101333.837
101338.139
101336.259
101335.006
101330.141
101330.134
101330.127
101330.121
101330.115
101330.109
101330.104
101330.1
101330.096
101330.093
101330.09
101330.088
101330.086
101330.085
101330.085
101330.086
101330.087
101330.089
101330.092
101330.096
101330.1
101330.106
101330.112
101330.119
101330.127
101330.137
101330.147
101330.158
101330.17
101330.183
101330.197
101330.213
101330.233
101330.258
101330.288
101330.32
101330.346
101330.364
101330.383
101330.412
101330.451
101330.494
101330.539
101330.589
101330.642
101330.699
101330.764
101330.846
101330.944
101331.03
101331.102
101331.194
101331.307
101331.425
101331.547
101331.676
101331.809
101331.948
101332.095
101332.256
101332.428
101332.603
101332.776
101332.953
101333.13
101333.319
101333.52
101333.695
101333.987
101334.398
101334.209
101334.11
101335.006
101335.019
101335.641
101338.751
101340.289
101340.208
101340.926
101341.591
101329.887
101329.883
101329.877
101329.873
101329.869
101329.866
101329.863
101329.86
101329.858
101329.857
101329.856
101329.856
101329.857
101329.858
101329.86
101329.863
101329.867
101329.872
101329.878
101329.884
101329.892
101329.9
101329.909
101329.919
101329.931
101329.943
101329.956
101329.97
101329.986
101330.005
101330.027
101330.051
101330.074
101330.093
101330.11
101330.127
101330.151
101330.182
101330.215
101330.249
101330.287
101330.325
101330.363
101330.409
101330.469
101330.544
101330.598
101330.638
101330.707
101330.793
101330.88
101330.97
101331.067
101331.172
101331.285
101331.415
101331.563
101331.725
101331.9
101332.092
101332.308
101332.551
101332.822
101333.13
101333.459
101333.83
101334.26
101334.724
101335.308
101336.109
101336.818
101337.288
101338.968
101341.137
101341.913
101341.89
101342.776
101345.447
101347.474
101348.74
101329.581
101329.577
101329.573
101329.57
101329.568
101329.565
101329.564
101329.562
101329.562
101329.562
101329.563
101329.565
101329.568
101329.571
101329.575
101329.581
101329.587
101329.594
101329.602
101329.612
101329.622
101329.634
101329.646
101329.66
101329.674
101329.69
101329.707
101329.727
101329.747
101329.767
101329.786
101329.805
101329.825
101329.849
101329.878
101329.907
101329.937
101329.969
101330.002
101330.031
101330.07
101330.128
101330.181
101330.211
101330.247
101330.301
101330.368
101330.431
101330.497
101330.571
101330.652
101330.746
101330.854
101330.977
101331.114
101331.269
101331.448
101331.657
101331.899
101332.178
101332.498
101332.866
101333.282
101333.766
101334.297
101334.901
101335.562
101336.352
101337.085
101338.002
101339.887
101342.548
101343.491
101344.056
101346.175
101347.262
101348.29
101349.232
101350.189
101351.09
101329.223
101329.22
101329.217
101329.214
101329.212
101329.21
101329.21
101329.209
101329.209
101329.21
101329.212
101329.216
101329.22
101329.225
101329.231
101329.238
101329.247
101329.256
101329.267
101329.279
101329.292
101329.305
101329.32
101329.337
101329.356
101329.376
101329.398
101329.42
101329.443
101329.468
101329.495
101329.523
101329.552
101329.582
101329.612
101329.644
101329.673
101329.708
101329.76
101329.806
101329.832
101329.865
101329.914
101329.967
101330.018
101330.072
101330.133
101330.201
101330.279
101330.367
101330.468
101330.583
101330.719
101330.88
101331.072
101331.3
101331.567
101331.879
101332.239
101332.656
101333.132
101333.681
101334.297
101335.01
101335.784
101336.663
101337.461
101338.524
101341.045
101343.415
101343.94
101344.185
101345.405
101347.117
101348.416
101349.749
101351.281
101352.898
101355.108
101357.642
101328.814
101328.81
101328.807
101328.804
101328.802
101328.801
101328.8
101328.8
101328.801
101328.803
101328.806
101328.809
101328.815
101328.822
101328.83
101328.839
101328.849
101328.86
101328.873
101328.888
101328.906
101328.926
101328.947
101328.97
101328.993
101329.018
101329.045
101329.073
101329.102
101329.132
101329.163
101329.196
101329.23
101329.262
101329.294
101329.343
101329.392
101329.419
101329.449
101329.497
101329.546
101329.594
101329.644
101329.7
101329.76
101329.827
101329.903
101329.989
101330.09
101330.209
101330.352
101330.523
101330.728
101330.975
101331.269
101331.616
101332.022
101332.494
101333.035
101333.654
101334.351
101335.138
101335.986
101336.939
101337.922
101339.325
101341.869
101343.275
101343.637
101344.538
101346.185
101347.807
101349.484
101351
101352.487
101354.438
101356.873
101358.929
101360.404
101361.613
101328.334
101328.33
101328.326
101328.323
101328.321
101328.32
101328.319
101328.32
101328.322
101328.325
101328.329
101328.334
101328.34
101328.347
101328.357
101328.369
101328.383
101328.4
101328.418
101328.437
101328.457
101328.48
101328.504
101328.53
101328.558
101328.588
101328.619
101328.652
101328.686
101328.722
101328.759
101328.795
101328.845
101328.9
101328.933
101328.964
101329.012
101329.064
101329.113
101329.165
101329.219
101329.278
101329.342
101329.413
101329.493
101329.586
101329.694
101329.821
101329.973
101330.155
101330.374
101330.639
101330.955
101331.329
101331.77
101332.286
101332.885
101333.575
101334.351
101335.237
101336.211
101337.319
101338.452
101339.964
101342.067
101343.217
101343.789
101345.148
101346.72
101348.052
101349.711
101351.507
101353.231
101355
101357.135
101359.192
101360.765
101362.512
101364.345
101366.06
101327.764
101327.76
101327.756
101327.753
101327.751
101327.75
101327.75
101327.752
101327.754
101327.759
101327.764
101327.772
101327.782
101327.794
101327.807
101327.821
101327.838
101327.857
101327.878
101327.901
101327.926
101327.953
101327.982
101328.014
101328.047
101328.083
101328.12
101328.159
101328.196
101328.24
101328.295
101328.341
101328.377
101328.429
101328.485
101328.539
101328.594
101328.653
101328.715
101328.782
101328.856
101328.938
101329.03
101329.134
101329.256
101329.398
101329.566
101329.765
101330.003
101330.286
101330.624
101331.022
101331.485
101332.024
101332.648
101333.365
101334.182
101335.109
101336.135
101337.281
101338.504
101339.893
101341.609
101342.846
101343.768
101345.178
101346.723
101348.198
101349.66
101351.283
101352.925
101355.003
101357.264
101359.277
101360.997
101362.46
101363.86
101365.606
101367.644
101369.191
101327.076
101327.073
101327.069
101327.067
101327.067
101327.067
101327.069
101327.073
101327.078
101327.086
101327.095
101327.106
101327.118
101327.133
101327.15
101327.169
101327.19
101327.214
101327.24
101327.269
101327.3
101327.333
101327.369
101327.407
101327.445
101327.485
101327.53
101327.586
101327.635
101327.677
101327.731
101327.79
101327.849
101327.91
101327.975
101328.044
101328.117
101328.196
101328.283
101328.379
101328.487
101328.61
101328.751
101328.915
101329.106
101329.331
101329.596
101329.907
101330.273
101330.698
101331.189
101331.749
101332.387
101333.103
101333.904
101334.782
101335.752
101336.76
101337.91
101339.489
101341.441
101342.806
101343.875
101345.308
101346.756
101348.24
101349.878
101351.758
101353.8
101355.835
101358.019
101359.419
101360.32
101361.381
101362.986
101365.282
101367.426
101369.72
101372.071
101374.279
101326.25
101326.248
101326.247
101326.247
101326.249
101326.253
101326.258
101326.265
101326.274
101326.284
101326.297
101326.312
101326.33
101326.35
101326.372
101326.397
101326.425
101326.455
101326.488
101326.524
101326.562
101326.601
101326.644
101326.696
101326.752
101326.798
101326.845
101326.902
101326.965
101327.028
101327.094
101327.164
101327.238
101327.317
101327.403
101327.495
101327.596
101327.709
101327.835
101327.978
101328.142
101328.331
101328.551
101328.807
101329.106
101329.455
101329.86
101330.327
101330.863
101331.471
101332.156
101332.918
101333.756
101334.653
101335.615
101336.573
101337.754
101339.533
101341.468
101342.955
101344.1
101345.358
101347.037
101348.701
101350.39
101352.359
101354.531
101356.271
101357.408
101358.699
101360.113
101361.556
101363.644
101365.928
101367.856
101369.684
101371.681
101374.026
101376.095
101377.778
101325.251
101325.253
101325.255
101325.259
101325.265
101325.273
101325.282
101325.294
101325.308
101325.325
101325.344
101325.366
101325.39
101325.418
101325.448
101325.481
101325.517
101325.555
101325.596
101325.641
101325.694
101325.747
101325.797
101325.852
101325.914
101325.98
101326.046
101326.117
101326.191
101326.269
101326.353
101326.442
101326.539
101326.644
101326.759
101326.886
101327.029
101327.191
101327.376
101327.589
101327.835
101328.121
101328.452
101328.838
101329.283
101329.797
101330.385
101331.055
101331.814
101332.666
101333.615
101334.662
101335.817
101337.07
101338.501
101340.212
101341.628
101342.793
101344.046
101345.371
101346.862
101348.632
101350.347
101351.83
101353.509
101355.228
101356.716
101358.052
101359.681
101361.382
101362.998
101364.999
101367.006
101369.002
101371.27
101372.974
101374.626
101376.746
101378.669
101380.31
101324.053
101324.059
101324.066
101324.076
101324.087
101324.101
101324.117
101324.136
101324.157
101324.182
101324.209
101324.24
101324.273
101324.31
101324.35
101324.392
101324.439
101324.493
101324.546
101324.6
101324.66
101324.725
101324.793
101324.864
101324.939
101325.018
101325.101
101325.188
101325.282
101325.381
101325.489
101325.605
101325.732
101325.873
101326.03
101326.207
101326.409
101326.639
101326.903
101327.209
101327.561
101327.969
101328.438
101328.978
101329.595
101330.295
101331.085
101331.972
101332.957
101334.04
101335.214
101336.477
101337.797
101339.232
101340.613
101341.958
101343.6
101345.222
101346.501
101347.777
101349.206
101350.792
101352.471
101354.264
101356.069
101357.456
101358.958
101361.047
101363.072
101364.871
101366.691
101368.67
101370.603
101372.472
101374.367
101376.278
101377.877
101379.042
101380.702
101382.845
101322.609
101322.621
101322.635
101322.652
101322.671
101322.692
101322.717
101322.745
101322.776
101322.81
101322.848
101322.89
101322.934
101322.983
101323.038
101323.094
101323.152
101323.216
101323.285
101323.356
101323.432
101323.511
101323.595
101323.683
101323.776
101323.875
101323.979
101324.091
101324.21
101324.34
101324.481
101324.636
101324.808
101325.001
101325.219
101325.466
101325.747
101326.069
101326.437
101326.859
101327.34
101327.887
101328.506
101329.204
101329.983
101330.844
101331.792
101332.83
101333.959
101335.176
101336.468
101337.795
101339.171
101340.509
101341.784
101343.259
101344.964
101346.613
101348.25
101349.941
101351.69
101353.543
101355.419
101357.42
101359.648
101361.404
101362.926
101364.103
101365.685
101368.062
101369.922
101371.591
101373.256
101374.895
101376.637
101378.724
101380.816
101382.972
101385.366
101387.225
101320.877
101320.896
101320.919
101320.945
101320.974
101321.005
101321.041
101321.08
101321.123
101321.169
101321.22
101321.276
101321.335
101321.397
101321.464
101321.537
101321.613
101321.693
101321.778
101321.867
101321.962
101322.061
101322.166
101322.277
101322.395
101322.521
101322.656
101322.803
101322.962
101323.137
101323.33
101323.546
101323.788
101324.061
101324.371
101324.722
101325.122
101325.575
101326.088
101326.666
101327.314
101328.035
101328.83
101329.699
101330.634
101331.612
101332.624
101333.641
101334.786
101336.325
101338.142
101339.987
101341.842
101343.787
101345.747
101347.373
101348.847
101350.432
101352.122
101353.925
101355.582
101357.026
101358.372
101359.922
101361.457
101363.324
101365.583
101367.735
101369.302
101370.121
101371.613
101373.983
101376.457
101378.815
101380.702
101382.596
101384.525
101386.406
101388.677
101391.094
101318.798
101318.827
101318.861
101318.898
101318.938
101318.982
101319.031
101319.083
101319.14
101319.201
101319.267
101319.337
101319.412
101319.492
101319.577
101319.666
101319.761
101319.861
101319.967
101320.078
101320.196
101320.321
101320.454
101320.596
101320.749
101320.914
101321.094
101321.292
101321.511
101321.755
101322.028
101322.335
101322.682
101323.074
101323.518
101324.021
101324.587
101325.224
101325.936
101326.727
101327.602
101328.562
101329.611
101330.75
101331.986
101333.32
101334.878
101336.737
101338.421
101339.904
101341.488
101343.106
101344.65
101346.139
101347.679
101349.33
101351.114
101352.898
101354.347
101355.686
101357.228
101358.953
101360.669
101362.473
101364.335
101366.393
101368.106
101369.633
101371.372
101373.129
101374.957
101377.395
101379.605
101381.678
101384.297
101386.769
101389.373
101391.194
101392.592
101394.626
101316.329
101316.368
101316.416
101316.467
101316.52
101316.578
101316.641
101316.708
101316.78
101316.857
101316.939
101317.026
101317.118
101317.216
101317.319
101317.428
101317.542
101317.664
101317.792
101317.929
101318.074
101318.229
101318.397
101318.578
101318.776
101318.993
101319.234
101319.501
101319.8
101320.137
101320.516
101320.944
101321.428
101321.974
101322.589
101323.279
101324.048
101324.902
101325.843
101326.874
101327.993
101329.2
101330.489
101331.853
101333.284
101334.777
101336.337
101337.93
101339.685
101341.248
101342.628
101344.043
101345.466
101346.876
101348.515
101350.111
101351.35
101352.73
101354.725
101357.179
101359.61
101361.928
101363.936
101365.542
101366.973
101368.782
101370.896
101372.764
101374.667
101376.603
101378.485
101380.483
101382.724
101385.662
101388.15
101390.082
101392.041
101393.4
101394.992
101397.333
101313.431
101313.484
101313.547
101313.613
101313.681
101313.754
101313.832
101313.915
101314.003
101314.096
101314.194
101314.298
101314.407
101314.522
101314.644
101314.772
101314.908
101315.051
101315.204
101315.368
101315.544
101315.734
101315.942
101316.169
101316.42
101316.698
101317.008
101317.356
101317.746
101318.186
101318.679
101319.234
101319.855
101320.548
101321.317
101322.166
101323.097
101324.11
101325.206
101326.381
101327.63
101328.948
101330.324
101331.748
101333.231
101334.749
101336.177
101337.542
101339.226
101341.155
101343.073
101345.088
101347.106
101349.14
101351.357
101353.48
101355.628
101357.842
101359.358
101360.744
101362.661
101364.284
101365.564
101367.435
101370.172
101372.602
101374.177
101375.405
101376.978
101378.934
101380.843
101382.577
101384.222
101386.567
101389.249
101391.938
101394.007
101395.849
101397.821
101399.664
101310.122
101310.19
101310.27
101310.351
101310.435
101310.524
101310.618
101310.717
101310.821
101310.93
101311.044
101311.165
101311.292
101311.425
101311.567
101311.716
101311.875
101312.046
101312.229
101312.427
101312.642
101312.879
101313.139
101313.429
101313.751
101314.112
101314.516
101314.97
101315.48
101316.051
101316.69
101317.401
101318.189
101319.057
101320.007
101321.042
101322.16
101323.363
101324.652
101326.027
101327.482
101329.017
101330.613
101332.231
101333.895
101335.725
101338.044
101341.031
101343.409
101345.34
101347.24
101348.86
101350.456
101352.025
101353.536
101355.568
101357.548
101358.866
101360.65
101362.927
101364.711
101366.89
101369.564
101371.459
101372.391
101373.323
101375.2
101377.627
101379.803
101382.313
101385.1
101387.626
101389.928
101391.379
101392.71
101394.642
101396.73
101398.519
101400.406
101402.287
101306.465
101306.549
101306.647
101306.745
101306.846
101306.952
101307.063
101307.18
101307.301
101307.429
101307.564
101307.705
101307.855
101308.014
101308.183
101308.364
101308.56
101308.772
101309.003
101309.258
101309.538
101309.85
101310.198
101310.588
101311.024
101311.514
101312.064
101312.678
101313.364
101314.126
101314.969
101315.894
101316.905
101317.999
101319.176
101320.43
101321.747
101323.113
101324.525
101325.947
101327.661
101329.878
101332.231
101334.66
101337.107
101339.469
101341.37
101342.821
101344.563
101346.603
101348.439
101350.297
101352.038
101353.837
101355.65
101357.232
101359.066
101361.622
101363.945
101366.062
101368.266
101370.069
101371.618
101373.276
101375.931
101378.576
101380.198
101381.928
101384.307
101386.4
101388.012
101389.342
101390.576
101393.012
101395.633
101397.168
101399.289
101401.919
101404.305
101406.131
101302.564
101302.664
101302.78
101302.896
101303.014
101303.138
101303.267
101303.402
101303.544
101303.693
101303.851
101304.019
101304.198
101304.39
101304.598
101304.823
101305.069
101305.341
101305.64
101305.974
101306.346
101306.762
101307.228
101307.75
101308.335
101308.989
101309.717
101310.524
101311.416
101312.395
101313.463
101314.622
101315.872
101317.214
101318.646
101320.16
101321.743
101323.528
101325.892
101328.811
101331.268
101333.165
101334.824
101336.39
101337.947
101339.39
101341.145
101343.431
101345.592
101347.181
101348.67
101350.488
101352.864
101355.769
101358.32
101360.774
101362.902
101364.764
101366.579
101368.378
101370.081
101372.048
101374.278
101376.08
101377.941
101380.195
101382.465
101384.396
101386.176
101388.266
101390.62
101393.194
101395.319
101396.512
101398.374
101401.038
101403.794
101406.223
101408.237
101410.159
101364.43
101364.43
101364.43
101364.431
101364.433
101364.435
101364.438
101364.441
101364.446
101364.451
101364.456
101364.462
101364.469
101364.477
101364.486
101364.495
101364.505
101364.515
101364.527
101364.539
101364.553
101364.567
101364.582
101364.598
101364.615
101364.633
101364.653
101364.673
101364.696
101364.719
101364.744
101364.77
101364.799
101364.829
101364.861
101364.895
101364.932
101364.971
101365.014
101365.059
101365.107
101365.158
101365.213
101365.272
101365.334
101365.4
101365.47
101365.544
101365.621
101365.701
101365.784
101365.871
101365.96
101366.051
101366.141
101366.231
101366.317
101366.396
101366.455
101366.491
101366.495
101366.452
101366.352
101366.189
101365.958
101365.613
101365.132
101364.506
101363.741
101362.844
101361.793
101360.591
101359.281
101357.859
101356.271
101354.461
101352.34
101349.897
101347.712
101346.082
101360.714
101360.714
101360.714
101360.714
101360.714
101360.714
101360.715
101360.716
101360.717
101360.718
101360.72
101360.721
101360.723
101360.725
101360.728
101360.73
101360.733
101360.735
101360.738
101360.742
101360.745
101360.749
101360.752
101360.757
101360.761
101360.765
101360.77
101360.775
101360.781
101360.787
101360.793
101360.8
101360.807
101360.815
101360.823
101360.833
101360.842
101360.853
101360.865
101360.878
101360.892
101360.907
101360.923
101360.94
101360.959
101360.979
101361
101361.022
101361.044
101361.068
101361.091
101361.112
101361.132
101361.147
101361.155
101361.154
101361.138
101361.102
101361.04
101360.939
101360.787
101360.566
101360.253
101359.827
101359.267
101358.554
101357.679
101356.645
101355.462
101354.117
101352.6
101350.916
101349.033
101346.884
101344.386
101341.484
101338.212
101334.763
101331.565
101328.747
101356.979
101356.979
101356.979
101356.978
101356.977
101356.975
101356.973
101356.971
101356.969
101356.967
101356.964
101356.96
101356.957
101356.953
101356.948
101356.944
101356.938
101356.932
101356.926
101356.919
101356.912
101356.904
101356.895
101356.886
101356.876
101356.865
101356.854
101356.842
101356.829
101356.815
101356.801
101356.786
101356.77
101356.753
101356.735
101356.717
101356.698
101356.678
101356.658
101356.636
101356.614
101356.591
101356.568
101356.544
101356.518
101356.492
101356.464
101356.435
101356.404
101356.369
101356.33
101356.286
101356.234
101356.171
101356.092
101355.994
101355.867
101355.701
101355.481
101355.189
101354.805
101354.308
101353.673
101352.875
101351.898
101350.736
101349.399
101347.9
101346.231
101344.356
101342.245
101339.842
101337.066
101333.844
101330.16
101326.078
101321.712
101316.923
101311.543
101305.947
101353.292
101353.291
101353.291
101353.289
101353.287
101353.284
101353.28
101353.275
101353.269
101353.263
101353.255
101353.247
101353.238
101353.228
101353.217
101353.204
101353.191
101353.176
101353.16
101353.143
101353.124
101353.104
101353.083
101353.059
101353.035
101353.008
101352.98
101352.95
101352.918
101352.884
101352.848
101352.81
101352.769
101352.727
101352.682
101352.634
101352.584
101352.532
101352.476
101352.418
101352.357
101352.293
101352.225
101352.153
101352.078
101351.997
101351.912
101351.821
101351.722
101351.615
101351.498
101351.367
101351.221
101351.054
101350.859
101350.629
101350.35
101350.008
101349.583
101349.055
101348.402
101347.604
101346.639
101345.484
101344.124
101342.552
101340.776
101338.804
101336.614
101334.159
101331.362
101328.119
101324.351
101320.084
101315.408
101310.303
101304.808
101298.64
101290.378
101282.089
101349.716
101349.716
101349.716
101349.713
101349.71
101349.705
101349.7
101349.692
101349.684
101349.674
101349.662
101349.649
101349.634
101349.618
101349.6
101349.581
101349.559
101349.536
101349.51
101349.483
101349.453
101349.421
101349.387
101349.35
101349.31
101349.268
101349.223
101349.175
101349.124
101349.069
101349.012
101348.95
101348.885
101348.816
101348.743
101348.666
101348.585
101348.498
101348.407
101348.311
101348.208
101348.1
101347.986
101347.864
101347.735
101347.598
101347.45
101347.292
101347.121
101346.936
101346.733
101346.509
101346.259
101345.977
101345.653
101345.274
101344.824
101344.289
101343.649
101342.887
101341.98
101340.908
101339.65
101338.187
101336.508
101334.607
101332.486
101330.128
101327.481
101324.461
101320.961
101316.886
101312.191
101306.857
101300.826
101294.438
101287.616
101279.33
101270.643
101264.006
101346.323
101346.323
101346.323
101346.321
101346.317
101346.311
101346.303
101346.294
101346.282
101346.269
101346.254
101346.236
101346.217
101346.195
101346.171
101346.145
101346.116
101346.084
101346.05
101346.013
101345.973
101345.93
101345.883
101345.834
101345.78
101345.723
101345.662
101345.597
101345.528
101345.454
101345.376
101345.293
101345.204
101345.11
101345.011
101344.905
101344.793
101344.674
101344.548
101344.414
101344.273
101344.122
101343.962
101343.791
101343.61
101343.415
101343.207
101342.983
101342.741
101342.478
101342.192
101341.876
101341.526
101341.129
101340.676
101340.154
101339.549
101338.845
101338.022
101337.058
101335.931
101334.617
101333.092
101331.335
101329.33
101327.072
101324.557
101321.764
101318.642
101315.155
101311.168
101306.552
101301.042
101294.838
101289.088
101282.391
101274.683
101266.68
101256.139
101244.982
101343.175
101343.177
101343.177
101343.174
101343.17
101343.163
101343.154
101343.143
101343.13
101343.114
101343.095
101343.075
101343.051
101343.025
101342.995
101342.963
101342.928
101342.89
101342.848
101342.803
101342.754
101342.701
101342.645
101342.584
101342.519
101342.449
101342.374
101342.295
101342.21
101342.119
101342.023
101341.921
101341.812
101341.696
101341.574
101341.443
101341.305
101341.158
101341.001
101340.836
101340.659
101340.472
101340.272
101340.059
101339.832
101339.588
101339.327
101339.045
101338.74
101338.41
101338.049
101337.65
101337.204
101336.702
101336.134
101335.488
101334.749
101333.902
101332.93
101331.811
101330.526
101329.052
101327.367
101325.449
101323.282
101320.852
101318.133
101315.003
101311.767
101308.366
101304.401
101299.163
101292.621
101285.525
101278.529
101272.178
101264
101250.576
101238.677
101229.834
101340.331
101340.333
101340.334
101340.332
101340.328
101340.321
101340.311
101340.299
101340.284
101340.266
101340.245
101340.222
101340.195
101340.165
101340.132
101340.096
101340.056
101340.012
101339.964
101339.913
101339.857
101339.797
101339.733
101339.664
101339.589
101339.51
101339.425
101339.334
101339.237
101339.134
101339.025
101338.908
101338.784
101338.652
101338.511
101338.362
101338.204
101338.036
101337.858
101337.668
101337.467
101337.253
101337.025
101336.782
101336.523
101336.246
101335.95
101335.632
101335.29
101334.921
101334.52
101334.08
101333.595
101333.057
101332.458
101331.786
101331.028
101330.165
101329.174
101328.028
101326.692
101325.131
101323.311
101321.201
101318.759
101316.344
101313.587
101310.105
101306.461
101302.355
101296.942
101291.7
101286.984
101281.901
101274.843
101263.704
101251.501
101240.433
101229.988
101220.602
101337.837
101337.839
101337.841
101337.839
101337.835
101337.828
101337.818
101337.805
101337.789
101337.77
101337.748
101337.723
101337.694
101337.662
101337.627
101337.588
101337.545
101337.498
101337.447
101337.391
101337.332
101337.267
101337.197
101337.123
101337.043
101336.957
101336.866
101336.768
101336.664
101336.553
101336.434
101336.309
101336.175
101336.033
101335.882
101335.722
101335.552
101335.371
101335.18
101334.977
101334.761
101334.532
101334.288
101334.028
101333.751
101333.455
101333.138
101332.797
101332.429
101332.028
101331.588
101331.1
101330.557
101329.949
101329.266
101328.491
101327.641
101326.721
101325.704
101324.578
101323.335
101321.909
101320.267
101318.428
101316.368
101313.764
101310.942
101308.293
101304.899
101301.332
101297.228
101291.196
101283.401
101274.316
101265.961
101257.821
101247.885
101236.944
101225.75
101216.834
101335.72
101335.723
101335.725
101335.724
101335.72
101335.713
101335.703
101335.69
101335.674
101335.655
101335.633
101335.607
101335.578
101335.545
101335.509
101335.469
101335.425
101335.376
101335.324
101335.267
101335.206
101335.139
101335.068
101334.992
101334.91
101334.822
101334.728
101334.628
101334.522
101334.408
101334.288
101334.159
101334.023
101333.878
101333.724
101333.561
101333.388
101333.205
101333.011
101332.805
101332.588
101332.357
101332.113
101331.855
101331.581
101331.291
101330.984
101330.653
101330.297
101329.914
101329.505
101329.068
101328.602
101328.101
101327.555
101326.959
101326.263
101325.423
101324.445
101323.314
101321.999
101320.563
101319.002
101317.24
101315.259
101313.004
101310.409
101307.376
101303.861
101299.637
101295.056
101290.145
101284.36
101277.794
101269.541
101260.297
101250.982
101241.392
101233.456
101224.986
101333.996
101334
101334.002
101334.001
101333.997
101333.99
101333.98
101333.968
101333.952
101333.933
101333.911
101333.886
101333.857
101333.825
101333.789
101333.749
101333.706
101333.659
101333.607
101333.551
101333.49
101333.425
101333.355
101333.281
101333.2
101333.115
101333.023
101332.926
101332.822
101332.712
101332.595
101332.47
101332.338
101332.199
101332.051
101331.894
101331.727
101331.552
101331.367
101331.172
101330.966
101330.75
101330.522
101330.281
101330.027
101329.757
101329.473
101329.17
101328.844
101328.494
101328.113
101327.696
101327.244
101326.754
101326.222
101325.636
101324.985
101324.254
101323.432
101322.503
101321.452
101320.263
101318.921
101317.398
101315.667
101313.702
101311.466
101308.921
101306.027
101302.509
101298.549
101294.241
101289.228
101283.469
101276.95
101270
101261.822
101252.978
101244.145
101234.932
101332.658
101332.661
101332.662
101332.661
101332.657
101332.651
101332.641
101332.629
101332.614
101332.596
101332.575
101332.55
101332.523
101332.492
101332.458
101332.42
101332.379
101332.334
101332.285
101332.232
101332.175
101332.113
101332.048
101331.977
101331.901
101331.821
101331.735
101331.644
101331.547
101331.444
101331.334
101331.219
101331.096
101330.967
101330.829
101330.684
101330.531
101330.368
101330.198
101330.02
101329.835
101329.64
101329.435
101329.22
101328.995
101328.757
101328.508
101328.246
101327.97
101327.68
101327.372
101327.045
101326.695
101326.318
101325.908
101325.46
101324.964
101324.407
101323.779
101323.066
101322.253
101321.323
101320.257
101319.035
101317.632
101316.024
101314.181
101312.072
101309.661
101306.893
101303.688
101300.042
101295.839
101290.964
101285.354
101278.904
101271.871
101264.179
101255.745
101247.995
101331.684
101331.686
101331.687
101331.685
101331.68
101331.674
101331.664
101331.652
101331.638
101331.621
101331.601
101331.578
101331.552
101331.524
101331.492
101331.457
101331.419
101331.378
101331.333
101331.285
101331.232
101331.176
101331.116
101331.052
101330.984
101330.912
101330.834
101330.753
101330.666
101330.575
101330.479
101330.377
101330.271
101330.159
101330.043
101329.919
101329.789
101329.653
101329.508
101329.355
101329.196
101329.035
101328.869
101328.697
101328.518
101328.332
101328.139
101327.94
101327.733
101327.518
101327.294
101327.06
101326.812
101326.547
101326.262
101325.952
101325.611
101325.231
101324.803
101324.315
101323.754
101323.104
101322.348
101321.468
101320.44
101319.242
101317.846
101316.224
101314.343
101312.163
101309.643
101306.724
101303.31
101299.333
101294.751
101289.455
101283.555
101277.092
101269.654
101262.083
101331.034
101331.034
101331.033
101331.03
101331.025
101331.017
101331.008
101330.996
101330.982
101330.966
101330.948
101330.927
101330.903
101330.877
101330.849
101330.818
101330.784
101330.747
101330.708
101330.665
101330.62
101330.571
101330.52
101330.465
101330.406
101330.344
101330.279
101330.21
101330.137
101330.06
101329.98
101329.895
101329.807
101329.715
101329.619
101329.52
101329.419
101329.316
101329.209
101329.096
101328.974
101328.843
101328.707
101328.574
101328.446
101328.315
101328.182
101328.048
101327.912
101327.776
101327.639
101327.501
101327.361
101327.217
101327.066