/*--------------------------------*- C++ -*----------------------------------*\
  =========                 |
  \\      /  F ield         | OpenFOAM: The Open Source CFD Toolbox
   \\    /   O peration     | Website:  https://openfoam.org
    \\  /    A nd           | Version:  8
     \\/     M anipulation  |
\*---------------------------------------------------------------------------*/
FoamFile
{
    version     2.0;
    format      ascii;
    class       volScalarField;
    location    "0.024";
    object      T;
}
// * * * * * * * * * * * * * * * * * * * * * * * * * * * * * * * * * * * * * //

dimensions      [0 0 0 1 0 0 0];

internalField   nonuniform List<scalar> 
42400
(
472.231007
470.676056
469.080333
467.442955
465.763078
464.039912
462.272735
460.460918
458.60394
456.701418
454.753132
452.759051
450.719363
448.634512
446.50523
444.33257
442.117949
439.863181
437.570519
435.242691
432.882936
430.49504
428.083364
425.65287
423.20914
420.758386
418.307454
415.863811
413.435526
411.031236
408.660095
406.331719
404.056104
401.843547
399.704534
397.649646
395.689443
393.834369
392.094613
390.47998
388.999729
387.662409
386.475681
385.446162
384.579308
383.879295
383.348858
382.989042
382.799191
382.776615
382.915482
383.210363
383.647756
384.213582
384.888094
385.644992
386.444844
387.259914
388.087326
388.794671
389.153478
389.097222
388.574477
387.763791
386.673427
385.224652
383.318597
380.822765
377.682958
374.05767
369.86652
364.484039
358.890386
353.898217
347.633087
340.144151
333.32191
328.141809
321.351902
316.293386
472.261437
470.768029
469.235496
467.663026
466.049848
464.395254
462.698616
460.959403
459.17721
457.351778
455.483025
453.571073
451.616283
449.619285
447.581019
445.502767
443.386196
441.233394
439.046914
436.829805
434.585658
432.318636
430.033502
427.735646
425.431103
423.126561
420.829356
418.547464
416.289469
414.064524
411.882293
409.752879
407.686741
405.694599
403.787334
401.975853
400.270932
398.68304
397.222131
395.89743
394.717203
393.68855
392.817173
392.10711
391.560422
391.176967
390.953933
390.88614
390.962905
391.17505
391.503572
391.924947
392.405717
392.915041
393.425026
393.934439
394.175636
394.111735
393.664405
392.833011
391.766041
390.387249
388.625941
386.333665
383.468309
380.00714
375.950755
371.317232
366.088732
360.509257
354.828419
348.454493
341.576688
335.418503
329.730054
323.415638
317.512083
312.091549
307.90157
303.709022
472.301731
470.889809
469.440945
467.954413
466.42954
464.865724
463.262451
461.61932
459.936066
458.212584
456.44896
454.645503
452.802774
450.921623
449.003223
447.049112
445.06123
443.041954
440.994144
438.921177
436.826982
434.716072
432.593575
430.465249
428.337495
426.217363
424.112535
422.031305
419.982543
417.975643
416.02046
414.127208
412.306353
410.568466
408.924057
407.38336
405.9561
404.651225
403.476653
402.438973
401.543115
400.791983
400.186126
399.723736
399.39975
399.205258
399.126818
399.146577
399.242019
399.385
399.551827
399.729099
399.72748
399.537711
399.031532
398.149831
397.076137
395.738856
394.066984
391.952302
389.319092
386.137651
382.391899
378.09624
373.284633
367.990882
362.283339
356.253666
349.956093
343.506916
337.279326
331.218934
325.053827
319.259195
314.239064
309.917267
305.971225
302.651115
300.481657
300.04748
472.348756
471.031938
469.680727
468.294499
466.872697
465.414842
463.920559
462.389599
460.821861
459.21742
457.576559
455.899798
454.187924
452.44203
450.663548
448.854286
447.016464
445.152754
443.266312
441.360813
439.44048
437.510111
435.575092
433.641415
431.715676
429.80506
427.917321
426.060731
424.24402
422.476288
420.766887
419.125276
417.56084
416.082675
414.699333
413.418556
412.246956
411.189668
410.249981
409.428956
408.725293
408.134464
407.648127
407.254155
406.937119
406.678929
406.461698
406.236524
405.909766
405.432111
404.745862
403.782137
402.655875
401.30742
399.67324
397.672073
395.219797
392.28092
388.830199
384.859909
380.379811
375.426249
370.044007
364.291575
358.257265
352.018206
345.673444
339.325307
333.111286
327.083309
321.436309
316.327937
311.813626
307.80356
304.553709
301.832102
300.26357
299.949441
299.866347
299.857612
472.39894
471.183614
469.936622
468.657458
467.34569
466.000979
464.623104
463.211979
461.767683
460.290486
458.780876
457.23959
455.667646
454.066374
452.43745
450.782927
449.105267
447.407374
445.692616
443.964857
442.228466
440.488334
438.749874
437.019008
435.302144
433.606135
431.938212
430.305904
428.716915
427.178985
425.699707
424.286318
422.945452
421.682847
420.503021
419.40892
418.401492
417.479454
416.638838
415.872661
415.171471
414.523122
413.911416
413.279077
412.590139
411.802532
410.867948
409.771189
408.533056
407.106646
405.441003
403.471867
401.124905
398.362843
395.154821
391.480694
387.334898
382.727849
377.685494
372.258695
366.500859
360.478159
354.269929
347.962432
341.663746
335.472233
329.496375
323.830846
318.595941
313.877843
309.748316
306.29179
303.625084
301.564015
300.230039
299.957518
299.894806
299.872838
299.863263
299.863303
472.448287
471.332769
470.188281
469.014439
467.810945
466.577603
465.314344
464.021244
462.698551
461.346712
459.966395
458.558518
457.124277
455.665173
454.183034
452.680045
451.158766
449.622151
448.073558
446.516761
444.955938
443.395665
441.840882
440.296853
438.769096
437.263298
435.785203
434.340472
432.934512
431.57227
430.258005
428.995015
427.785339
426.629399
425.525763
424.47088
423.458707
422.477046
421.507865
420.528843
419.513752
418.432347
417.253482
415.985095
414.594676
413.046061
411.297453
409.295246
406.987463
404.338418
401.315797
397.893664
394.055405
389.795019
385.118969
380.047887
374.617333
368.883852
362.909703
356.763576
350.52098
344.266869
338.092959
332.095901
326.381539
321.053895
316.199999
311.904979
308.235749
305.262883
302.984491
301.380955
300.276592
299.971551
299.89728
299.877462
299.87125
299.862795
299.849206
299.833324
472.492288
471.465769
470.4127
469.332812
468.22593
467.091982
465.931023
464.743256
463.529048
462.288956
461.023744
459.734407
458.422186
457.088589
455.735403
454.364706
452.97887
451.580563
450.172736
448.758603
447.34161
445.925383
444.513665
443.110225
441.718752
440.342719
438.985221
437.648789
436.335164
435.045052
433.777845
432.531312
431.301352
430.081576
428.861412
427.627108
426.362286
425.052797
423.682909
422.232136
420.676424
418.987375
417.130274
415.063251
412.753992
410.17055
407.282679
404.063465
400.491422
396.551915
392.238613
387.554838
382.514591
377.143435
371.480153
365.578489
359.504664
353.328262
347.126214
340.982209
334.983839
329.221265
323.786941
318.776322
314.273238
310.356849
307.079438
304.478664
302.538656
301.208047
300.384443
300.00243
299.914072
299.890296
299.879494
299.867668
299.850056
299.828191
299.8088
299.80301
472.526098
471.567971
470.585164
469.577499
468.544882
467.48732
466.40493
465.297959
464.166795
463.011982
461.834231
460.634433
459.413663
458.173185
456.91445
455.639089
454.3489
453.045815
451.731873
450.409165
449.079771
447.745675
446.408667
445.070218
443.731331
442.39238
441.052913
439.711451
438.36527
437.010191
435.640319
434.247793
432.822591
431.352256
429.823518
428.220788
426.525039
424.712806
422.759059
420.638487
418.324623
415.790583
413.010101
409.95859
406.61394
402.957983
398.977694
394.66637
390.024723
385.06187
379.796075
374.255605
368.479414
362.517229
356.435724
350.300019
344.184144
338.171992
332.353008
326.81721
321.654884
316.950932
312.780547
309.205917
306.265195
303.97111
302.28922
301.151424
300.460942
300.096574
299.950025
299.912001
299.891842
299.87203
299.843867
299.820601
299.805651
299.803176
299.801876
299.801718
472.545113
471.625453
470.682166
469.715112
468.724219
467.709487
466.671
465.608929
464.52354
463.415196
462.284354
461.131567
459.957469
458.762777
457.548272
456.314767
455.063078
453.793977
452.508135
451.206055
449.887981
448.553792
447.202876
445.833973
444.444995
443.032799
441.592888
440.119023
438.604343
437.040358
435.416852
433.72178
431.941187
430.059242
428.05838
425.91947
423.622094
421.144977
418.466569
415.565767
412.422684
409.018952
405.33898
401.370887
397.107443
392.547016
387.694485
382.56211
377.170335
371.548436
365.735085
359.779588
353.74353
347.697188
341.710616
335.861634
330.234042
324.918989
320.005656
315.573911
311.690733
308.405467
305.741742
303.68754
302.194812
301.185366
300.558978
300.210054
300.037827
299.957637
299.917057
299.870388
299.83405
299.808201
299.80321
299.801685
299.802334
299.801646
299.800238
299.801079
472.545941
471.627948
470.686341
469.720941
468.731607
467.718245
466.680802
465.619266
464.533662
463.424042
462.290474
461.133028
459.951745
458.746612
457.517519
456.264233
454.986332
453.683139
452.353628
450.996323
449.609154
448.1893
446.732981
445.234888
443.689124
442.089506
440.428888
438.699337
436.890735
434.991527
432.988774
430.868217
428.614408
426.210914
423.640616
420.886081
417.930052
414.756069
411.348559
407.693801
403.780666
399.601379
395.152309
390.43478
385.4559
380.229419
374.776604
369.127034
363.319313
357.401553
351.432388
345.484271
339.632632
333.955553
328.533336
323.449312
318.782262
314.604522
310.972325
307.923739
305.466706
303.579519
302.207034
301.267885
300.665326
300.304849
300.098507
299.982508
299.908159
299.855174
299.816835
299.808178
299.806131
299.804049
299.802729
299.802079
299.801846
299.799183
299.796827
299.796331
472.528815
471.57618
470.598996
469.597008
468.56997
467.517634
466.439744
465.336021
464.206151
463.049771
461.866448
460.655657
459.416337
458.146696
456.844888
455.509185
454.137472
452.72719
451.275265
449.778049
448.231286
446.630078
444.968884
443.24196
441.442306
439.561196
437.588857
435.514494
433.326306
431.011559
428.556727
425.947676
423.169928
420.208981
417.050741
413.681683
410.089384
406.26318
402.194783
397.878945
393.31418
388.503536
383.455407
378.184394
372.712179
367.068433
361.29163
355.429619
349.53984
343.689263
337.957447
332.4267
327.177699
322.290763
317.839315
313.885339
310.470881
307.619519
305.327616
303.5643
302.268966
301.362176
300.759056
300.376411
300.139138
299.995337
299.898395
299.843412
299.817206
299.811373
299.808483
299.807055
299.805686
299.804216
299.802387
299.801706
299.802242
299.800947
299.797734
299.796438
472.492373
471.466021
470.413096
469.333191
468.225856
467.09058
465.926771
464.733565
463.509512
462.253358
460.963603
459.638458
458.276207
456.875319
455.433679
453.948307
452.415745
450.832009
449.19253
447.492079
445.724749
443.883896
441.962076
439.951029
437.841665
435.624072
433.287564
430.820763
428.211724
425.448103
422.51738
419.407149
416.10534
412.60045
408.882127
404.94166
400.772548
396.371135
391.737314
386.875306
381.7945
376.510329
371.045168
365.429186
359.701077
353.908597
348.108663
342.367022
336.756874
331.357672
326.252903
321.519836
317.227337
313.430914
310.167331
307.449658
305.265805
303.575893
302.320108
301.425106
300.812251
300.407687
300.149901
299.990169
299.892721
299.839561
299.827676
299.821238
299.814726
299.81086
299.80795
299.805258
299.803794
299.803373
299.802965
299.802325
299.802977
299.807166
299.805364
299.801554
472.437788
471.301016
470.134624
468.937978
467.710341
466.450839
465.15802
463.830645
462.467665
461.067371
459.627765
458.146522
456.620954
455.047968
453.424016
451.745042
450.006433
448.202992
446.328889
444.377622
442.342
440.214137
437.985454
435.646702
433.188009
430.598964
427.868719
424.986146
421.940027
418.719303
415.313129
411.711364
407.90498
403.886527
399.650686
395.194903
390.520097
385.631459
380.539306
375.25998
369.816737
364.240559
358.570798
352.855532
347.151431
341.523027
336.041086
330.780796
325.817568
321.223257
317.061545
313.382194
310.21579
307.569785
305.428426
303.752885
302.488254
301.567233
300.920075
300.481585
300.195307
300.015987
299.909871
299.852937
299.834902
299.829003
299.824326
299.820323
299.81363
299.807809
299.804719
299.802975
299.802262
299.802516
299.802997
299.803244
299.803363
299.808878
299.820314
299.822211
472.369424
471.094375
469.785951
468.443296
467.06539
465.650919
464.19864
462.7069
461.173764
459.59697
457.973891
456.301493
454.576299
452.794348
450.951158
449.041696
447.060337
445.000847
442.856372
440.619425
438.281905
435.835114
433.269813
430.57629
427.744466
424.764031
421.624629
418.31597
414.828103
411.151786
407.278873
403.202781
398.919039
394.425918
389.72515
384.822725
379.729747
374.46331
369.047362
363.513446
357.901248
352.258805
346.642225
341.114792
335.745147
330.604621
325.763444
321.288064
317.234122
313.642708
310.53815
307.926135
305.791339
304.098354
302.796495
301.825898
301.126232
300.638889
300.311759
300.099648
299.969875
299.895885
299.857251
299.840027
299.830038
299.823255
299.817069
299.812875
299.810497
299.808556
299.805004
299.803312
299.803244
299.803495
299.803913
299.804004
299.804131
299.806755
299.820512
299.831985
472.290452
470.855681
469.383237
467.872042
466.320799
464.728002
463.091989
461.410695
459.681702
457.902204
456.068964
454.178281
452.22595
450.207231
448.116827
445.948857
443.696849
441.353735
438.911864
436.363026
433.698502
430.909131
427.985409
424.917625
421.696008
418.310853
414.752846
411.013383
407.084954
402.961607
398.63949
394.117477
389.397877
384.487216
379.397058
374.144849
368.754707
363.258092
357.69425
352.11031
346.560884
341.107054
335.814607
330.751481
325.984289
321.574257
317.572712
314.016957
310.926999
308.307868
306.145453
304.410281
303.058317
302.036222
301.287802
300.757164
300.393593
300.154102
300.004371
299.910817
299.86181
299.837822
299.824383
299.814431
299.807391
299.803839
299.802927
299.803314
299.805204
299.807166
299.807111
299.807164
299.809685
299.813145
299.81296
299.812154
299.811042
299.809119
299.819327
299.828338
472.202826
470.590834
468.936422
467.238298
465.494933
463.704573
461.865125
459.974104
458.028621
456.025336
453.960425
451.829548
449.627821
447.34979
444.989428
442.540122
439.994689
437.345402
434.584032
431.701916
428.690054
425.539241
422.240172
418.783654
415.160884
411.36376
407.385263
403.219912
398.864295
394.317682
389.582711
384.666129
379.579583
374.340397
368.972296
363.505998
357.979572
352.438458
346.935017
341.5275
336.278339
331.251751
326.510678
322.11323
318.108936
314.535316
311.414858
308.752788
306.538646
304.745075
303.332101
302.250895
301.4488
300.873179
300.47515
300.210243
300.040757
299.936667
299.87539
299.853333
299.841443
299.831402
299.819489
299.811457
299.805619
299.803798
299.803258
299.80323
299.804515
299.807272
299.809167
299.810613
299.814686
299.822029
299.828097
299.832529
299.834477
299.832594
299.822853
299.823397
472.107857
470.303802
468.45222
466.551627
464.600251
462.595985
460.536345
458.418427
456.238864
453.993789
451.678809
449.288975
446.818767
444.262093
441.612288
438.862148
436.003961
433.02958
429.930513
426.698045
423.323347
419.797707
416.112785
412.260922
408.23551
404.031438
399.645607
395.077517
390.329926
385.409557
380.327832
375.101604
369.753816
364.314032
358.818744
353.311358
347.841755
342.465317
337.241353
332.230867
327.493747
323.085581
319.054334
315.437073
312.257299
309.523162
307.227124
305.345377
303.842599
302.673989
301.790648
301.142476
300.681282
300.364276
300.153996
300.019943
299.938247
299.891127
299.865312
299.848727
299.838823
299.831043
299.821991
299.814928
299.807592
299.803566
299.803962
299.805307
299.806716
299.810077
299.813911
299.816278
299.818381
299.82273
299.827522
299.830941
299.834095
299.839622
299.840696
299.838743
472.006601
469.997769
467.935955
465.819449
463.646206
461.413797
459.119364
456.759577
454.3306
451.828059
449.247023
446.581988
443.826888
440.975107
438.019519
434.952549
431.766262
428.452474
425.002876
421.409254
417.663734
413.759076
409.689039
405.448806
401.035477
396.448631
391.690947
386.768871
381.693307
376.480293
371.151614
365.735292
360.26586
354.784351
349.337886
343.978787
338.763159
333.748899
328.993216
324.549584
320.464503
316.774474
313.503915
310.663088
308.247246
306.237567
304.60301
303.303844
302.295271
301.532515
300.971214
300.570352
300.29303
300.107214
299.98814
299.915583
299.872787
299.845869
299.830065
299.822405
299.818927
299.818806
299.820552
299.820741
299.819069
299.815323
299.811453
299.812089
299.814883
299.818041
299.823082
299.82572
299.824431
299.823859
299.826587
299.829829
299.830609
299.833319
299.838978
299.842786
471.899959
469.675456
467.392225
465.048325
462.641431
460.16879
457.627175
455.012848
452.321535
449.548406
446.688068
443.734583
440.681492
437.521874
434.248425
430.853559
427.329545
423.668696
419.863612
415.907455
411.794296
407.519516
403.08027
398.476016
393.709096
388.785361
383.714815
378.512251
373.197826
367.797527
362.343447
356.87379
351.43253
346.068628
340.834762
335.785548
330.975275
326.455282
322.271339
318.460656
315.049698
312.050777
309.464382
307.278154
305.468069
304.000917
302.838484
301.94038
301.264539
300.770157
300.419566
300.179978
300.022772
299.923087
299.865587
299.836278
299.820791
299.815221
299.812451
299.811424
299.812303
299.813826
299.816346
299.819135
299.821648
299.822874
299.82423
299.824912
299.826547
299.828938
299.830277
299.833144
299.832782
299.826025
299.824945
299.826773
299.825795
299.826318
299.829894
299.83759
471.788988
469.340059
466.826426
464.245913
461.595923
458.873393
456.074755
453.195912
450.232225
447.178511
444.029064
440.777701
437.417827
433.942533
430.344713
426.617246
422.75321
418.746141
414.590352
410.281306
405.816044
401.193675
396.415915
391.487668
386.417633
381.218902
375.909516
370.512926
365.058294
359.580559
354.120191
348.72256
343.436854
338.314543
333.407394
328.765159
324.433059
320.449348
316.84285
313.63182
310.823961
308.416994
306.39565
304.736104
303.405472
302.365797
301.575563
300.99233
300.575549
300.287723
300.09597
299.973418
299.899239
299.862553
299.846379
299.832255
299.822882
299.816048
299.8119
299.810081
299.810657
299.812713
299.815008
299.817334
299.819798
299.821871
299.823763
299.825183
299.826294
299.82739
299.829774
299.831284
299.833992
299.832912
299.830119
299.830401
299.829675
299.826511
299.824287
299.829077
472.592669
471.769043
470.923917
470.056874
469.167497
468.255362
467.320041
466.361096
465.378083
464.370543
463.338009
462.279998
461.19601
460.085526
458.948005
457.782878
456.589542
455.367355
454.115623
452.833597
451.520455
450.175291
448.797096
447.384743
445.936962
444.452312
442.929155
441.365617
439.759548
438.108473
436.409535
434.65943
432.854328
430.989789
429.060672
427.061011
424.98391
422.821429
420.564504
418.202823
415.724806
413.117557
410.366891
407.457467
404.373044
401.096927
397.612654
393.905022
389.961524
385.774291
381.342603
376.676051
371.798207
366.750554
361.596273
356.422771
351.341826
346.485815
341.998627
338.020409
334.667559
332.013062
330.06837
328.780985
328.042431
327.709696
327.664753
327.728566
327.812327
327.86955
327.884102
327.870254
327.815382
327.736556
327.641262
327.523996
327.37098
327.164976
326.899978
326.585675
472.597824
471.784593
470.950077
470.093821
469.21537
468.314261
467.39002
466.442165
465.4702
464.473611
463.451869
462.40442
461.330689
460.230067
459.101911
457.945536
456.760208
455.545131
454.29944
453.022188
451.712327
450.368692
448.989981
447.574729
446.12128
444.627749
443.091991
441.511549
439.883602
438.204909
436.471739
434.679798
432.824151
430.899126
428.898232
426.814068
424.63823
422.361252
419.97259
417.460114
414.810828
412.010569
409.044199
405.895911
402.549709
398.990135
395.203296
391.178287
386.909087
382.396986
377.653535
372.704004
367.590945
362.377485
357.149583
352.015992
347.104587
342.553917
338.499606
335.056275
332.29825
330.243741
328.846866
328.005629
327.582283
327.479799
327.479411
327.528119
327.568086
327.578013
327.568017
327.529345
327.468347
327.392999
327.300127
327.182739
327.052611
326.898541
326.724209
326.522902
472.599889
471.790808
470.9605
470.108481
469.234257
468.337328
467.417181
466.473291
465.505115
464.512089
463.493624
462.449105
461.37788
460.279257
459.152497
457.996803
456.811311
455.595077
454.347064
453.066126
451.750985
450.400213
449.012202
447.585136
446.116957
444.605324
443.047568
441.440641
439.781062
438.064855
436.287475
434.443741
432.527754
430.532829
428.451438
426.275175
423.994226
421.597794
419.074051
416.410514
413.593301
410.607743
407.438653
404.070773
400.489445
396.681557
392.636848
388.349629
383.821002
379.061588
374.094695
368.959763
363.715581
358.442755
353.244314
348.243203
343.575399
339.377903
335.771622
332.841106
330.616381
329.06353
328.088616
327.559211
327.339177
327.315164
327.358389
327.40922
327.444002
327.45528
327.449996
327.423406
327.387247
327.338368
327.275463
327.189922
327.101368
327.034045
327.025432
327.276766
472.598583
471.786841
470.953762
470.098828
469.221515
468.321285
467.397588
466.449857
465.477504
464.479917
463.456451
462.406427
461.329121
460.223762
459.089514
457.925472
456.730645
455.503947
454.244175
452.949989
451.619897
450.252218
448.845062
447.396292
445.903489
444.363908
442.774425
441.131496
439.431097
437.668671
435.839077
433.93652
431.954247
429.884714
427.719559
425.449366
423.064139
420.552756
417.902964
415.101665
412.135048
408.988839
405.648693
402.100764
398.332511
394.333811
390.09843
385.625948
380.924164
376.011965
370.922556
365.706769
360.435938
355.203446
350.123741
345.327425
340.950952
337.120895
333.934666
331.440093
329.622387
328.410932
327.693177
327.337439
327.254957
327.268582
327.326184
327.385293
327.425983
327.447068
327.450751
327.4378
327.425005
327.423108
327.481536
327.656518
327.976537
328.544311
329.454723
330.741052
472.593483
471.771412
470.9277
470.061797
469.173145
468.261171
467.325287
466.364889
465.379344
464.367993
463.330143
462.265055
461.171945
460.049966
458.898198
457.71564
456.501194
455.253644
453.971648
452.653704
451.298138
449.903069
448.466381
446.985687
445.458291
443.881158
442.250839
440.563433
438.814535
436.999167
435.111701
433.145797
431.094593
428.950391
426.704552
424.347608
421.869249
419.258341
416.502988
413.590663
410.508411
407.243164
403.782195
400.11375
396.227925
392.117844
387.781194
383.222198
378.454043
373.501733
368.40521
363.222366
358.031351
352.931133
348.038946
343.48345
339.392759
335.874505
332.996894
330.780988
329.195481
328.162203
327.569176
327.288865
327.233602
327.25993
327.325546
327.391087
327.440984
327.49625
327.591571
327.741484
327.987556
328.386623
328.938573
329.638484
330.588345
332.013731
334.175059
337.10643
472.584231
471.743437
470.880485
469.994793
469.085769
468.152804
467.195274
466.212535
465.203916
464.168715
463.106192
462.015562
460.895984
459.74655
458.566273
457.354076
456.108776
454.829067
453.513499
452.160461
450.768153
449.334562
447.857429
446.334219
444.762082
443.137802
441.457783
439.717994
437.913902
436.04044
434.091961
432.062193
429.944204
427.730365
425.412341
422.98108
420.426847
417.739275
414.907462
411.920124
408.765822
405.433289
401.911891
398.192264
394.267174
390.132661
385.789532
381.245247
376.516235
371.630562
366.630801
361.576659
356.546668
351.637931
346.96281
342.641303
338.782016
335.471512
332.757546
330.665021
329.159702
328.167254
327.587368
327.313068
327.259225
327.300808
327.410072
327.562128
327.762329
328.020614
328.354766
328.822411
329.490197
330.431744
331.702388
333.340558
335.369223
337.908597
341.110292
344.743271
472.570472
471.701848
470.810318
469.895268
468.95607
467.992084
467.002648
465.987081
464.944677
463.874695
462.776361
461.648849
460.491275
459.302688
458.082056
456.828254
455.54005
454.216087
452.854868
451.454732
450.013835
448.530124
447.00131
445.424842
443.797868
442.117211
440.379327
438.580272
436.715664
434.78065
432.769876
430.677452
428.49694
426.221339
423.843084
421.354072
418.745694
416.008908
413.134342
410.112439
406.933677
403.588858
400.069527
396.368538
392.480827
388.404445
384.141915
379.701962
375.101623
370.368694
365.544291
360.685062
355.86441
351.171752
346.70823
342.576153
338.871881
335.673191
333.04303
330.98592
329.47973
328.465465
327.858743
327.564594
327.503402
327.567649
327.735126
327.980652
328.303297
328.724662
329.29089
330.070125
331.138938
332.570238
334.42476
336.764739
339.62429
342.897662
346.326226
349.451735
472.551892
471.645692
470.715589
469.760939
468.78108
467.775336
466.743013
465.683395
464.595744
463.479293
462.333238
461.156725
459.948848
458.708634
457.435034
456.126912
454.78303
453.402036
451.982447
450.522631
449.020792
447.474945
445.8829
444.242234
442.550269
440.804048
439.000308
437.135455
435.205541
433.206244
431.13285
428.980237
426.742877
424.41483
421.989766
419.460989
416.821477
414.063949
411.18095
408.164973
405.008624
401.704854
398.247282
394.630646
390.851425
386.908699
382.805292
378.549261
374.155763
369.649268
365.065774
360.451043
355.871904
351.406506
347.140354
343.163749
339.564373
336.418368
333.781289
331.677763
330.099192
329.004417
328.326398
327.983623
327.90153
327.979376
328.19492
328.520084
328.948774
329.501765
330.23785
331.256006
332.684827
334.639102
337.148229
340.082219
343.215056
346.347525
349.206764
351.400469
472.528279
471.574331
470.595226
469.590286
468.558817
467.500108
466.413435
465.298052
464.153197
462.978084
461.77189
460.533751
459.262758
457.957943
456.618275
455.242646
453.829864
452.37864
450.887575
449.355153
447.779719
446.159474
444.492455
442.77652
441.009334
439.188355
437.310816
435.373717
433.373811
431.307594
429.171306
426.960925
424.672178
422.300549
419.841297
417.289483
414.640005
411.887638
409.027092
406.053086
402.960446
399.744253
396.400042
392.924113
389.313962
385.568898
381.690876
377.68553
373.563267
369.352496
365.07347
360.76262
356.474901
352.274572
348.233325
344.428648
340.938183
337.83239
335.166485
332.97326
331.258563
330.000802
329.155041
328.661188
328.458235
328.468764
328.663146
329.020059
329.541441
330.252287
331.20239
332.466432
334.106483
336.126509
338.44525
340.936847
343.711045
346.679291
349.300952
351.243844
472.499602
471.487671
470.449067
469.38308
468.288983
467.166034
466.013479
464.830548
463.616467
462.370432
461.091618
459.779168
458.432191
457.049756
455.630882
454.174532
452.679611
451.144953
449.569318
447.951382
446.289736
444.58287
442.829174
441.026927
439.174295
437.269321
435.309928
433.29391
431.218941
429.082572
426.882237
424.615266
422.278892
419.870269
417.386481
414.824566
412.181528
409.454353
406.640022
403.735533
400.737923
397.644322
394.452035
391.158711
387.762594
384.262935
380.660643
376.959327
373.167067
369.301016
365.373513
361.414274
357.461145
353.562176
349.773256
346.156987
342.779174
339.7042
336.98895
334.676541
332.790593
331.332178
330.280253
329.595917
329.230201
329.131641
329.25135
329.578674
330.094763
330.802843
331.717547
332.814974
334.236471
336.152531
338.370131
340.848661
343.442201
345.88982
348.098563
349.940137
472.466117
471.386484
470.278415
469.141167
467.973983
466.776089
465.546707
464.285057
462.990344
461.661765
460.298504
458.89973
457.464595
455.992228
454.481733
452.932189
451.342644
449.712112
448.039579
446.323992
444.564268
442.759289
440.907902
439.008929
437.06116
435.063368
433.014307
430.912728
428.757382
426.547037
424.28049
421.956577
419.574193
417.132299
414.629929
412.066197
409.440284
406.751424
403.998876
401.181879
398.299607
395.351128
392.335368
389.251158
386.09732
382.872877
379.577394
376.211538
372.777881
369.287809
365.752274
362.183424
358.606564
355.055459
351.57187
348.204227
345.005549
342.030291
339.329998
336.948952
334.919566
333.259022
331.967669
331.029994
330.418672
330.10125
330.050274
330.185493
330.545602
331.115096
331.882895
332.846271
334.116717
335.591888
337.318161
339.238588
341.265092
343.306501
345.252042
346.883756
472.428476
471.272741
470.086593
468.869255
467.619941
466.337851
465.02219
463.67216
462.286962
460.865802
459.407887
457.912429
456.378641
454.805741
453.19295
451.539495
449.844612
448.107548
446.327566
444.503951
442.636015
440.723106
438.764617
436.759995
434.708756
432.610491
430.46489
428.271751
426.030998
423.742702
421.407094
419.024585
416.595773
414.121453
411.602613
409.040421
406.436196
403.791355
401.107351
398.385579
395.627264
392.833348
390.004362
387.140363
384.240923
381.305229
378.332306
375.321355
372.272
369.174375
366.056708
362.91387
359.758726
356.61067
353.496306
350.449019
347.507563
344.714229
342.112221
339.742386
337.639617
335.82968
334.327028
333.134184
332.243144
331.638745
331.30392
331.225765
331.302182
331.560639
332.018471
332.620149
333.36812
334.441275
335.67124
337.074279
338.567489
340.081552
341.602692
342.614207
472.387843
471.149959
469.879529
468.575746
467.237793
465.86485
464.456104
463.010746
461.527982
460.007035
458.447147
456.847587
455.207648
453.526657
451.803977
450.039015
448.231229
446.380136
444.485322
442.546456
440.563298
438.535717
436.463705
434.347394
432.187071
429.983203
427.736451
425.447699
423.118064
420.748928
418.341945
415.899061
413.422515
410.914844
408.378859
405.817619
403.234382
400.632528
398.015464
395.386504
392.748714
390.104746
387.45663
384.805612
382.152012
379.495166
376.833434
374.164345
371.484966
368.785276
366.081737
363.378775
360.666699
357.955166
355.25869
352.597184
349.995696
347.483156
345.091081
342.851678
340.795522
338.949133
337.332876
335.959603
334.834425
333.955749
333.317626
332.914559
332.753604
332.766832
332.829492
332.998182
333.423861
333.95437
334.648028
335.484541
336.424141
337.427358
338.535237
339.235164
472.345943
471.023351
469.666011
468.273087
466.843735
465.377116
463.872399
462.328773
460.745451
459.121682
457.456753
455.749998
454.000808
452.208632
450.372996
448.493507
446.569868
444.601893
442.589519
440.532824
438.432046
436.287599
434.100097
431.870373
429.599502
427.28882
424.939953
422.554836
420.135733
417.685258
415.20639
412.702479
410.177244
407.634768
405.079462
402.516023
399.949362
397.384509
394.826496
392.280207
389.750224
387.240642
384.754867
382.295397
379.8636
377.459592
375.082235
372.729311
370.397928
368.085109
365.76379