/*--------------------------------*- C++ -*----------------------------------*\
  =========                 |
  \\      /  F ield         | OpenFOAM: The Open Source CFD Toolbox
   \\    /   O peration     | Website:  https://openfoam.org
    \\  /    A nd           | Version:  8
     \\/     M anipulation  |
\*---------------------------------------------------------------------------*/
FoamFile
{
    version     2.0;
    format      ascii;
    class       volVectorField;
    location    "0.024";
    object      U;
}
// * * * * * * * * * * * * * * * * * * * * * * * * * * * * * * * * * * * * * //

dimensions      [0 1 -1 0 0 0 0];

internalField   nonuniform List<vector> 
42400
(
(-0.017075213 0.0163570957 -6.6520978e-27)
(-0.0511848036 0.048316564 2.17334863e-26)
(-0.0857411002 0.0798114291 2.23588165e-26)
(-0.120610332 0.110636012 0)
(-0.155711449 0.140674193 0)
(-0.19102105 0.169850909 -2.66929242e-28)
(-0.226541394 0.198114444 0)
(-0.262272524 0.225419547 2.88860107e-28)
(-0.29820028 0.251717967 0)
(-0.334293224 0.276955817 3.11321777e-28)
(-0.370503766 0.301074751 3.22644187e-28)
(-0.406771308 0.324014847 -3.33960032e-28)
(-0.443026071 0.345718005 -1.23971881e-26)
(-0.479192744 0.366131149 -1.05820785e-26)
(-0.515193385 0.385208827 -3.67243399e-28)
(-0.550949382 0.402915049 0)
(-0.586382489 0.419224396 0)
(-0.621415063 0.434122537 0)
(-0.655969735 0.447606326 0)
(-0.689968684 0.459683657 0)
(-0.723332672 0.470373196 0)
(-0.755979939 0.479704066 -8.6131886e-28)
(-0.787824992 0.487715537 1.54168152e-26)
(-0.818777277 0.494456706 4.07342893e-26)
(-0.84873969 0.49998613 2.57825585e-26)
(-0.877606854 0.504371393 -8.97644325e-28)
(-0.905263056 0.507688573 -9.01350731e-28)
(-0.93157972 0.510021578 1.80590199e-27)
(-0.956412469 0.511461333 0)
(-0.979598285 0.512104521 0)
(-1.00095266 0.512051085 -7.06173502e-26)
(-1.02026308 0.511398956 -8.18920841e-26)
(-1.03728032 0.510241592 1.75109577e-27)
(-1.05174383 0.508720703 1.07676987e-25)
(-1.06342171 0.506912361 1.2179703e-25)
(-1.07198562 0.504970236 0)
(-1.07671557 0.503259857 0)
(-1.07757578 0.501291732 0)
(-1.07375627 0.499603661 0)
(-1.06546078 0.497684343 2.31014744e-25)
(-1.05027208 0.496680263 2.21626277e-25)
(-1.02759673 0.495489198 2.830994e-25)
(-0.995306516 0.494263443 7.76351966e-25)
(-0.953337764 0.492588661 -6.67192014e-27)
(-0.899895835 0.490995383 -5.2019597e-25)
(-0.833491591 0.489378267 -5.99675752e-25)
(-0.752394519 0.48761447 9.26707685e-27)
(-0.654722684 0.485504692 7.20531493e-25)
(-0.538392755 0.482902402 1.07186865e-26)
(-0.401809664 0.479384155 9.20301452e-25)
(-0.240998975 0.475214358 8.34406478e-34)
(-0.0545872503 0.47268298 -2.46326542e-24)
(0.154190167 0.472093399 -1.20036029e-24)
(0.404767605 0.469696231 5.36717284e-26)
(0.698259333 0.464025802 0)
(1.03882179 0.457210021 0)
(1.43053994 0.450913979 0)
(1.88121024 0.44516904 -1.01270804e-25)
(2.39563659 0.439805947 -1.10757295e-25)
(2.97934619 0.434929651 0)
(3.63780486 0.430288967 3.50632002e-24)
(4.37552438 0.425919122 3.47208682e-24)
(5.19635224 0.422125261 -3.08544749e-24)
(6.10304191 0.420047215 -2.57173617e-24)
(7.09541025 0.420252539 0)
(8.17555128 0.421793828 0)
(9.32831578 0.433284622 2.45395673e-25)
(10.5577309 0.427443592 1.3060356e-25)
(11.9390078 0.355302124 3.57763226e-25)
(13.1309923 0.542901019 0)
(14.1658673 0.964224254 0)
(16.0768887 0.200321082 6.40854623e-25)
(17.8607757 -0.560650445 9.52535738e-25)
(18.1310265 1.20371375 0)
(18.8646621 2.26457323 1.91467781e-24)
(21.1479611 0.0446018404 1.00313561e-23)
(23.0416723 -0.989126116 3.26968541e-23)
(23.4019627 -0.312905437 -2.88415225e-24)
(23.3227354 1.07756473 6.04435738e-24)
(23.7241546 0.817217853 9.82880386e-24)
(-0.0202782498 0.0179729113 0)
(-0.0605863331 0.0531579767 1.67899655e-26)
(-0.101276887 0.0880103487 1.68010784e-26)
(-0.142259489 0.122388806 0)
(-0.183440923 0.156183018 0)
(-0.224774493 0.189305896 1.37736433e-26)
(-0.266212868 0.221673625 1.32588252e-26)
(-0.307698595 0.253198748 4.50778213e-28)
(-0.349157496 0.283788042 0)
(-0.390499798 0.313344299 4.90824825e-28)
(-0.431623812 0.341769916 5.11794906e-28)
(-0.472420083 0.368970696 -6.02842666e-27)
(-0.512775166 0.394859195 -7.40114591e-27)
(-0.552574585 0.419357313 -1.70497067e-27)
(-0.591704743 0.442398048 -1.39983928e-27)
(-0.630053804 0.463926459 -2.28453667e-27)
(-0.667511686 0.483899997 0)
(-0.703969381 0.502288391 1.35475479e-27)
(-0.739317818 0.51907329 0)
(-0.77344646 0.534247793 0)
(-0.806241758 0.547815987 0)
(-0.837585506 0.559792524 2.37426341e-26)
(-0.867353124 0.570202267 5.82322536e-26)
(-0.895411797 0.579079997 3.49100992e-26)
(-0.921618398 0.586470137 0)
(-0.945817176 0.592426369 -3.56106163e-27)
(-0.967836873 0.597010629 -1.82174799e-27)
(-0.987486641 0.600291585 3.75736407e-27)
(-1.00455025 0.602344554 6.67495107e-26)
(-1.01879336 0.603259877 7.41051537e-26)
(-1.02997845 0.603131673 -4.10937638e-27)
(-1.03786939 0.602037168 -4.13554582e-27)
(-1.04193939 0.600295694 1.39566741e-25)
(-1.04214804 0.597537449 1.63826195e-25)
(-1.03789597 0.594273801 -1.94317866e-25)
(-1.02875983 0.590698338 -1.89271812e-25)
(-1.01482431 0.586425095 0)
(-0.993836219 0.582293947 5.73710721e-27)
(-0.965190178 0.57748469 0)
(-0.92698299 0.572268498 1.34364027e-26)
(-0.879212693 0.566294722 3.11243986e-25)
(-0.820289833 0.560152313 3.30811247e-25)
(-0.748908914 0.553836402 1.42990878e-26)
(-0.663340722 0.547207702 -1.54844814e-26)
(-0.561629709 0.540062661 3.37567542e-26)
(-0.441710304 0.532161869 -1.66471512e-26)
(-0.301250183 0.523680304 1.85276992e-26)
(-0.140935 0.515188131 7.72156039e-25)
(0.0467501114 0.508412522 8.373222e-25)
(0.255562362 0.503259234 0)
(0.507279576 0.495808178 -3.03466992e-26)
(0.799810862 0.485910776 6.63289144e-26)
(1.13739742 0.475630141 1.08561905e-24)
(1.52589443 0.465637607 1.32123963e-24)
(1.97042794 0.455955116 9.0169596e-26)
(2.47641092 0.446739877 2.93964949e-24)
(3.04938384 0.438173732 3.14263116e-24)
(3.69473975 0.430244173 -1.01363364e-25)
(4.41701504 0.423165157 -1.00464217e-25)
(5.21996023 0.417648939 3.85218117e-24)
(6.106182 0.414956191 4.00591862e-24)
(7.07609664 0.416331849 5.68370861e-26)
(8.12698869 0.422130373 -3.30829961e-26)
(9.25357572 0.433490729 0)
(10.4417473 0.451560277 -2.9116505e-24)
(11.6913535 0.468344523 -5.66437229e-24)
(12.9750796 0.496342267 -2.15467094e-24)
(14.2597143 0.548578712 0)
(15.6874101 0.469449496 1.79469959e-26)
(17.0705493 0.395079349 6.382754e-25)
(17.9197644 0.965047915 -1.26056774e-24)
(19.0544346 1.27407296 4.04202505e-24)
(20.9491941 0.0663167993 -2.32191832e-24)
(22.086405 -0.284791876 -7.62187307e-25)
(22.3924572 1.19792921 5.17266674e-26)
(22.9677915 1.5995127 1.23924913e-23)
(23.6076626 0.696107405 6.86488429e-24)
(23.8319434 0.214883377 -2.02591116e-24)
(23.9609742 0.233531828 -1.08332964e-23)
(23.9599822 0.428965206 -1.00452203e-23)
(-0.0229447859 0.0187962193 1.85098115e-27)
(-0.0684054908 0.0556548103 2.1832857e-28)
(-0.114195061 0.0923092072 -2.30997018e-28)
(-0.160262821 0.128675037 2.40635261e-28)
(-0.206528336 0.164661791 0)
(-0.252898765 0.200166539 -8.8800169e-27)
(-0.299292348 0.235085362 5.20274466e-34)
(-0.345592492 0.269301275 6.29058127e-27)
(-0.391663289 0.30268663 4.77691953e-27)
(-0.437354094 0.335110145 6.10195762e-27)
(-0.482505077 0.36644287 1.77077697e-27)
(-0.526952529 0.396562773 7.06217001e-28)
(-0.570532844 0.425358105 7.38803832e-28)
(-0.613084987 0.45272956 -6.24614102e-27)
(-0.654451549 0.47859139 -9.21680003e-27)
(-0.694478636 0.502871687 2.53288238e-27)
(-0.733014855 0.525512087 1.42108277e-26)
(-0.769909708 0.546467156 3.9551359e-26)
(-0.805011644 0.565703676 2.38688623e-26)
(-0.838165954 0.583199965 2.00874946e-27)
(-0.869212566 0.598945352 -2.09213285e-27)
(-0.897983671 0.612939856 -2.17725617e-27)
(-0.924300984 0.625194014 0)
(-0.947972822 0.635728875 4.67657754e-27)
(-0.968790651 0.644575733 -5.5115779e-26)
(-0.986526486 0.651772875 3.75170171e-29)
(-1.00093762 0.657360942 6.73567577e-26)
(-1.01176922 0.661382855 7.70273728e-26)
(-1.01868715 0.663958549 9.08448742e-26)
(-1.02143008 0.664999887 -1.01402922e-25)
(-1.01969123 0.664725666 -5.87514576e-27)
(-1.01307232 0.663339074 2.57533792e-25)
(-1.00130995 0.660892409 1.36443746e-25)
(-0.983943105 0.657771131 0)
(-0.959323768 0.653679469 0)
(-0.926649611 0.648332226 -7.57488454e-27)
(-0.884312678 0.642002882 0)
(-0.832282642 0.634586882 1.62433183e-26)
(-0.769170355 0.626562541 2.33279919e-25)
(-0.693736342 0.617987426 3.4597418e-26)
(-0.604350322 0.608839026 -2.59563911e-25)
(-0.499156882 0.599075607 0)
(-0.376717171 0.588412887 0)
(-0.234414015 0.576937503 4.19748445e-25)
(-0.0719377778 0.565443528 5.67689906e-25)
(0.117240072 0.555819495 2.40468955e-26)
(0.324390898 0.547858703 0)
(0.578037521 0.536959268 0)
(0.869803763 0.523793035 7.00677379e-25)
(1.2045679 0.511218301 8.03502067e-25)
(1.58875406 0.499573809 -3.32282935e-26)
(2.0269781 0.488609866 0)
(2.52455115 0.478465181 -9.31987407e-25)
(3.08705422 0.469286102 -1.12317953e-24)
(3.71957029 0.461226555 -2.4982774e-24)
(4.42678087 0.454867239 -2.81801483e-24)
(5.21274106 0.451417507 -3.26363447e-24)
(6.07993807 0.452045827 -6.87852572e-33)
(7.02843083 0.45752786 5.86448989e-33)
(8.0556614 0.468461733 -8.65508844e-24)
(9.1563809 0.485113632 -4.48872311e-24)
(10.3227053 0.508409502 4.43375526e-24)
(11.5429954 0.538072375 4.49883374e-24)
(12.8067188 0.575305995 0)
(14.0840729 0.626103364 4.55377368e-24)
(15.3739601 0.678924286 8.76883978e-24)
(16.6607923 0.719905071 4.46048081e-24)
(17.8736871 0.799120186 0)
(19.0576409 0.88543914 -2.82539735e-26)
(20.3344235 0.705944363 6.43541861e-24)
(21.3736371 0.722421227 5.12806594e-24)
(21.9359967 1.33185869 0)
(22.7701892 1.42123313 0)
(23.6304881 0.631955291 1.31566081e-24)
(23.8639737 0.585925108 -1.69453918e-24)
(23.9074679 0.919657649 1.34693203e-25)
(23.8534896 1.22214339 1.08490825e-23)
(23.8143782 1.09997161 0)
(23.9072275 0.857866055 -2.78040739e-24)
(23.9392959 0.695444609 8.39366339e-24)
(-0.0251363533 0.0190014326 1.66061774e-28)
(-0.074833793 0.0562881076 2.61379526e-28)
(-0.124827565 0.093454395 4.24085774e-27)
(-0.175105929 0.13046364 -3.08817053e-27)
(-0.225588551 0.16724326 -3.17738136e-27)
(-0.276170373 0.203691643 0)
(-0.326698415 0.239678953 -4.14151559e-27)
(-0.376992626 0.275063412 -2.9521687e-27)
(-0.426875168 0.309697501 -1.68920009e-28)
(-0.476125388 0.343429653 1.94481623e-27)
(-0.524519692 0.376108045 5.93662218e-27)
(-0.571835102 0.40759055 2.09786232e-34)
(-0.617851839 0.437748429 9.10390108e-28)
(-0.662355309 0.466467924 1.22242342e-33)
(-0.705136436 0.493650745 -1.00158757e-27)
(-0.745990538 0.519213781 2.2839942e-26)
(-0.784715192 0.543088299 -2.72341659e-26)
(-0.821107371 0.565218969 -2.28122376e-27)
(-0.854960206 0.585563021 3.47684192e-26)
(-0.886059838 0.604089547 2.48618775e-27)
(-0.91418264 0.62077859 -5.21933968e-27)
(-0.93908782 0.635615534 -5.17629335e-26)
(-0.960515281 0.648587973 -5.77883135e-26)
(-0.978189045 0.659686834 2.943892e-27)
(-0.991820588 0.668897684 0)
(-1.00111403 0.676289566 3.1558158e-27)
(-1.00578672 0.681943881 0)
(-1.00551757 0.685982451 1.04321e-25)
(-1.00001867 0.688527163 2.06484364e-25)
(-0.988843251 0.689766359 1.10257452e-25)
(-0.970853492 0.689469916 -1.04950405e-25)
(-0.945332308 0.68757604 -1.18570248e-25)
(-0.911342869 0.684034376 1.66931042e-26)
(-0.867535409 0.679023525 8.75334844e-27)
(-0.813789975 0.672702143 -1.78995517e-25)
(-0.748809776 0.665343345 -1.99356594e-25)
(-0.671352503 0.656999099 0)
(-0.579859593 0.647692403 2.25419454e-25)
(-0.472549463 0.63741083 2.13755528e-25)
(-0.347986978 0.625890238 1.98508361e-26)
(-0.203667987 0.613229387 2.20723356e-26)
(-0.0379786904 0.601356904 0)
(0.14566481 0.591827983 0)
(0.359977249 0.581624967 0)
(0.612871331 0.568794699 2.64452251e-26)
(0.903162201 0.55511404 5.33477566e-25)
(1.23559743 0.542395125 5.552107e-25)
(1.61586983 0.530767769 0)
(2.04799727 0.520011416 0)
(2.53723301 0.510468531 7.17135815e-25)
(3.08911661 0.502411814 8.00754321e-25)
(3.70886396 0.496361628 9.87457754e-25)
(4.40132898 0.493263173 1.13977854e-24)
(5.17041975 0.494116338 -5.23839298e-26)
(6.01849529 0.49974416 -1.50433719e-24)
(6.9458971 0.510865761 -1.6556199e-24)
(7.95057298 0.528214149 -3.86699074e-24)
(9.02802786 0.552676558 -4.4840723e-24)
(10.1706397 0.584851606 0)
(11.3679893 0.625254442 -7.95246943e-26)
(12.6074429 0.673299392 -4.92480924e-24)
(13.8742137 0.729836534 -9.90752159e-24)
(15.1482549 0.79312276 1.62383202e-25)
(16.4181653 0.860956335 1.91546352e-25)
(17.6430074 0.938878152 -5.84203512e-24)
(18.8159784 1.02937972 5.52427466e-24)
(19.91901 1.10258932 5.82088835e-24)
(20.9643952 1.14519419 -5.9907307e-25)
(21.8323292 1.26129158 -4.0209815e-24)
(22.6545386 1.29352427 -8.97029217e-24)
(23.401223 1.14186827 6.20935659e-26)
(23.8039228 1.1571978 -1.10742649e-23)
(23.8869795 1.35555791 -6.28897315e-24)
(23.8580721 1.49664754 0)
(23.8505571 1.35621264 -6.90361061e-24)
(23.8919196 1.16185872 -1.79251403e-23)
(23.9043251 1.11599582 2.06617739e-24)
(23.8956344 1.1585203 3.9806111e-24)
(23.9541379 1.09458428 7.95178254e-24)
(23.8922898 1.06946267 9.1130567e-24)
(-0.0271097433 0.0188702463 1.42074317e-27)
(-0.08061369 0.0558659367 0)
(-0.134375815 0.092746349 0)
(-0.188414217 0.12950824 9.14823767e-31)
(-0.242642167 0.166091984 0)
(-0.296919123 0.202397489 0)
(-0.351055968 0.238293906 0)
(-0.404824834 0.273621306 -1.66060322e-27)
(-0.457933222 0.308201098 0)
(-0.510086791 0.341863851 9.22762278e-28)
(-0.561032739 0.374449316 1.02198193e-26)
(-0.610472524 0.405814359 1.27826952e-33)
(-0.658121777 0.435821465 -1.40995166e-26)
(-0.703704655 0.464350419 0)
(-0.7469507 0.491298731 -1.17952853e-27)
(-0.787592822 0.516580532 2.48131904e-27)
(-0.825364244 0.540124711 0)
(-0.859989976 0.561870512 3.95086036e-26)
(-0.891181272 0.581765996 2.8740803e-27)
(-0.918638551 0.599773439 -9.80548989e-26)
(-0.942074406 0.615829258 -5.72574994e-26)
(-0.961160609 0.630012193 3.21666335e-27)
(-0.97562766 0.642322421 0)
(-0.985158512 0.652838409 -8.46149342e-26)
(-0.989346175 0.661614637 -9.55324738e-26)
(-0.987545354 0.668500395 -1.00040967e-25)
(-0.979157644 0.673535678 -1.10648053e-25)
(-0.963512317 0.676698723 1.18012694e-25)
(-0.939805239 0.677971948 1.253004e-25)
(-0.907087471 0.677426671 0)
(-0.864967205 0.675325046 -1.52874271e-25)
(-0.812396501 0.67176972 -1.62013571e-25)
(-0.748254724 0.666810362 9.46138316e-27)
(-0.671297594 0.660509705 -1.71687927e-25)
(-0.58002553 0.652925265 -1.9289046e-25)
(-0.472640551 0.644123641 -2.10589637e-26)
(-0.347614749 0.633975508 1.0823314e-26)
(-0.202814786 0.622535335 -2.91658159e-25)
(-0.0365315661 0.611590831 -3.31667721e-25)
(0.147749496 0.60247228 2.59103087e-25)
(0.363575834 0.592534069 4.49945542e-25)
(0.615648859 0.580537578 3.36333508e-25)
(0.90450492 0.568324744 0)
(1.23467623 0.557178466 -2.86259182e-26)
(1.61058515 0.547167371 -4.28250739e-25)
(2.03659614 0.538405755 -2.92152411e-26)
(2.51779518 0.531345664 5.70341101e-33)
(3.05955984 0.526478809 -6.11519561e-25)
(3.66691621 0.524534256 0)
(4.34438768 0.526322362 -2.70905719e-26)
(5.09566927 0.532624814 -1.04692281e-24)
(5.92322201 0.544167702 -1.17183404e-24)
(6.82793486 0.561669545 -3.92767477e-26)
(7.80881423 0.585955809 -1.65225911e-24)
(8.86238056 0.617904993 -1.94429094e-24)
(9.98227469 0.658431788 -2.28733907e-24)
(11.1584112 0.708261771 -7.48375092e-24)
(12.3777224 0.767850407 -5.21645291e-24)
(13.6253912 0.836643718 -5.26916298e-24)
(14.8844822 0.914129599 -5.62375806e-24)
(16.1371231 0.996896159 0)
(17.3643197 1.08429069 2.29967558e-25)
(18.54011 1.17337749 -5.62842661e-24)
(19.6557531 1.26199885 -6.30217453e-24)
(20.6742852 1.34378215 -3.20368768e-26)
(21.6017739 1.4313559 0)
(22.3734759 1.51300519 8.31983442e-24)
(23.1028501 1.53628877 1.00647645e-23)
(23.6158705 1.56906718 8.21003958e-25)
(23.8389606 1.60748326 -8.96415762e-25)
(23.8805078 1.6000359 -1.32033274e-26)
(23.8937664 1.56406501 -2.04659764e-24)
(23.8857113 1.54308409 -7.01515383e-24)
(23.8812498 1.53407297 -1.08048966e-23)
(23.8725254 1.52278026 -6.35500301e-25)
(23.8922511 1.52445218 0)
(23.9440895 1.43393891 -6.47268569e-24)
(23.9637184 1.3977782 -1.00867175e-23)
(24.0804826 1.32014519 0)
(24.073818 1.28434593 -9.09088214e-24)
(-0.0291389346 0.018626615 -2.67077767e-27)
(-0.0865169569 0.0550431871 -3.82225987e-27)
(-0.144062499 0.0912631733 -4.23650863e-27)
(-0.20180859 0.127303225 -3.91028105e-28)
(-0.259648955 0.163111793 2.24603671e-27)
(-0.317399925 0.1985862 -8.70104388e-28)
(-0.374812273 0.233587396 6.4189839e-28)
(-0.431582262 0.267952201 -4.09480887e-29)
(-0.487370679 0.301505561 1.02011002e-27)
(-0.541829749 0.334060468 2.14871472e-27)
(-0.594550212 0.365443074 -3.78048475e-27)
(-0.64517169 0.395503467 -2.24647896e-26)
(-0.693379105 0.424106862 -2.01611379e-26)
(-0.738809012 0.451149902 -2.39495161e-26)
(-0.781111714 0.476535059 1.39033054e-27)
(-0.819938988 0.500184816 3.80531965e-26)
(-0.854961219 0.522000421 0)
(-0.885800983 0.541994148 0)
(-0.912126005 0.560159455 5.56959426e-26)
(-0.933537745 0.576388231 1.37352995e-25)
(-0.949564451 0.590741041 7.8243181e-26)
(-0.959751875 0.603121927 8.84836304e-26)
(-0.963522973 0.613550231 1.19806701e-33)
(-0.960254605 0.622001305 -1.09276434e-25)
(-0.949304555 0.628505874 1.09668979e-25)
(-0.930117847 0.633232213 2.47405161e-25)
(-0.901914589 0.636197174 1.29681719e-25)
(-0.863810374 0.637450186 -4.84177961e-27)
(-0.814824376 0.637043939 5.01961476e-27)
(-0.753860122 0.63503771 -1.04123206e-26)
(-0.679646554 0.631519495 0)
(-0.590690291 0.626609321 2.01645022e-25)
(-0.48522944 0.620438129 -1.14894646e-26)
(-0.361681621 0.613000152 -1.92263686e-25)
(-0.218314425 0.604171947 0)
(-0.0518219017 0.595126834 -3.17634057e-25)
(0.133459683 0.587705193 -2.30173489e-25)
(0.347122647 0.58016013 0)
(0.598503207 0.570609364 0)
(0.885471071 0.56082322 -3.28136448e-25)
(1.21250811 0.552362608 -3.53584657e-25)
(1.5837222 0.545384741 5.86536403e-26)
(2.00340561 0.540149568 0)
(2.47647567 0.537177235 4.27737886e-25)
(3.00787903 0.537061075 1.00726772e-24)
(3.60227281 0.540479733 5.66148569e-25)
(4.26387998 0.548171528 2.84122332e-26)
(4.99623983 0.560877379 -1.97042993e-27)
(5.80194438 0.579358116 0)
(6.68230194 0.604408512 -1.15559731e-24)
(7.6369262 0.636818904 -1.30827192e-26)
(8.66327148 0.677316136 1.64798653e-24)
(9.75618187 0.726507353 3.90331595e-26)
(10.9075764 0.784890791 -2.27032499e-24)
(12.105937 0.852685004 -5.28890473e-24)
(13.336783 0.92997414 1.5582439e-32)
(14.5833939 1.01651294 2.83573651e-24)
(15.8268143 1.11170705 0)
(17.0472246 1.21280783 0)
(18.223751 1.31856097 2.29916064e-25)
(19.3358035 1.42267605 2.57629483e-25)
(20.3670025 1.52375759 0)
(21.2942298 1.61175275 7.35937523e-24)
(22.1179785 1.69427385 6.73760546e-24)
(22.8067093 1.7480739 -7.38060284e-24)
(23.3930139 1.79577936 -2.42304541e-23)
(23.7727387 1.83764932 -1.08166276e-23)
(23.8756964 1.84682222 -6.00539821e-24)
(23.883105 1.88329443 -4.47796926e-24)
(23.8858948 1.8914842 -9.34879033e-25)
(23.8688355 1.86599657 1.27844796e-23)
(23.867462 1.84650572 6.59451867e-24)
(23.923745 1.76669854 -1.04753317e-23)
(23.9620349 1.75288677 -7.70406173e-24)
(23.9710896 1.72686166 -1.2280731e-23)
(24.0167519 1.70580405 -1.00346888e-23)
(24.0533461 1.6738239 -1.09932211e-23)
(24.0873353 1.59876487 2.16477194e-31)
(24.1298462 1.54215454 1.84917859e-23)
(24.1213414 1.46358636 1.6267934e-23)
(-0.031427498 0.018389243 1.53720308e-27)
(-0.0930916452 0.0541772906 4.14029621e-28)
(-0.154717197 0.0896110076 3.93525768e-27)
(-0.216333085 0.124715451 -7.23265148e-34)
(-0.277797288 0.159442876 -2.33637978e-27)
(-0.338868527 0.193688027 -2.22855721e-27)
(-0.399224776 0.227306292 2.30587013e-28)
(-0.45848033 0.26012842 5.05404664e-28)
(-0.516207786 0.29197548 3.41896546e-27)
(-0.571958718 0.322672845 5.33678723e-27)
(-0.625282927 0.352056638 7.07630629e-27)
(-0.675735927 0.37996658 7.37688959e-27)
(-0.722832896 0.406281984 1.14559162e-26)
(-0.76614285 0.430910986 1.67663625e-26)
(-0.805260001 0.453747576 1.61725592e-27)
(-0.839728347 0.474744367 1.69550755e-27)
(-0.86906322 0.493893882 5.7441767e-26)
(-0.892809195 0.511105583 6.59940902e-26)
(-0.91042806 0.526347664 -3.87779001e-27)
(-0.921382181 0.539706361 -4.10239152e-27)
(-0.925097116 0.551154913 8.60879186e-26)
(-0.920908657 0.560721042 9.64507011e-26)
(-0.908098848 0.568425729 0)
(-0.885840556 0.57431411 4.89935009e-27)
(-0.853262432 0.578423671 0)
(-0.809373303 0.580828744 0)
(-0.753059926 0.581622009 5.53755666e-27)
(-0.683070093 0.580911626 -1.83034853e-25)
(-0.597992562 0.578818039 -1.78726295e-25)
(-0.496133535 0.575441616 1.83165283e-25)
(-0.375611638 0.5708585 2.00196024e-25)
(-0.234512718 0.564929896 1.29371353e-26)
(-0.0699035607 0.558465054 -1.3312753e-26)
(0.115283403 0.553291884 0)
(0.326167959 0.548530068 1.42143336e-26)
(0.574986837 0.542390632 0)
(0.858252021 0.536188492 0)
(1.18054064 0.531599441 1.59881386e-26)
(1.54590152 0.528808714 0)
(1.95829093 0.52805866 0)
(2.42221116 0.529931347 4.12043386e-25)
(2.9421875 0.535084512 4.90201656e-25)
(3.52253064 0.544232547 0)
(4.16721025 0.558140467 0)
(4.87965345 0.577618376 0)
(5.66249918 0.603501776 2.61046733e-26)
(6.51724585 0.636604414 1.91409679e-26)
(7.44389876 0.677687683 1.13145271e-24)
(8.44058853 0.727414444 1.37233664e-24)
(9.50317797 0.786279802 1.64927865e-24)
(10.6249663 0.854565435 1.98390516e-24)
(11.7962386 0.932311643 2.38942555e-24)
(13.0041468 1.01919395 2.72228195e-24)
(14.232877 1.11439376 0)
(15.4652941 1.21658625 0)
(16.6827203 1.32417673 -3.01648896e-24)
(17.8642764 1.43539855 -6.51398519e-24)
(18.9875763 1.54964843 -3.51820681e-24)
(20.0305914 1.66196104 -3.69527607e-24)
(20.9767777 1.77169532 -3.28914608e-24)
(21.8055145 1.86869132 8.43322786e-24)
(22.5135913 1.95810255 1.65478266e-23)
(23.0849042 2.01027859 3.80980265e-25)
(23.551022 2.05840364 -1.14779996e-23)
(23.8408269 2.07724612 3.79812556e-25)
(23.8874638 2.08192662 -8.9871067e-25)
(23.8947445 2.09550188 7.97295167e-24)
(23.8770505 2.11538704 -7.64292788e-32)
(23.880827 2.05085802 -1.2676755e-23)
(23.8842222 2.04827298 -7.04866128e-25)
(23.9055899 2.00861815 1.04503429e-23)
(23.9438596 1.98857929 9.6171128e-24)
(24.0133288 1.93070356 0)
(24.0387637 1.8850545 1.18370103e-24)
(24.0523897 1.88827818 0)
(24.065296 1.83742358 1.04344489e-23)
(24.0822417 1.79171775 2.306114e-23)
(24.0816679 1.78149393 9.27503999e-24)
(24.0944846 1.71034354 8.59121446e-24)
(24.1130289 1.65415442 2.50577837e-23)
(-0.0339784679 0.018129095 1.60271288e-27)
(-0.10030392 0.0532141598 4.93675193e-27)
(-0.166216356 0.0877489583 -5.21451932e-28)
(-0.231712555 0.12175576 -3.14430934e-27)
(-0.296591062 0.155183961 -1.86048416e-27)
(-0.360531832 0.187923609 -1.05502266e-27)
(-0.423120944 0.219826014 -1.28932023e-27)
(-0.48387317 0.250720569 -4.43353883e-27)
(-0.542259108 0.280430469 -6.63138483e-27)
(-0.597729185 0.308785834 -9.13798785e-27)
(-0.649729337 0.335633872 0)
(-0.697700428 0.360864332 -3.31576371e-27)
(-0.741097724 0.384344793 1.74468024e-27)
(-0.779361172 0.405987036 0)
(-0.811898132 0.425758793 0)
(-0.838140714 0.44360779 0)
(-0.857486908 0.45951662 0)
(-0.869289893 0.473491526 -2.21662019e-27)
(-0.872852684 0.485545861 0)
(-0.867419227 0.49571706 -5.36984293e-26)
(-0.852192182 0.504043412 -5.95551269e-26)
(-0.826226796 0.510605479 1.1620961e-25)
(-0.788543801 0.515472546 1.34365188e-25)
(-0.738025721 0.518750556 -1.41724681e-25)
(-0.673434829 0.520555706 -1.66854668e-25)
(-0.593369464 0.521016182 -1.7511411e-25)
(-0.496239071 0.520289525 -1.82051341e-25)
(-0.380288579 0.518564918 -2.07390983e-25)
(-0.243786003 0.515862972 -4.22807912e-25)
(-0.0844258492 0.512375681 -2.6441033e-25)
(0.100783278 0.509330806 0)
(0.307603685 0.507217015 -1.52497721e-26)
(0.551551946 0.504685391 -1.61583855e-26)
(0.829531558 0.502236715 0)
(1.14565184 0.501458705 1.68043267e-26)
(1.50367096 0.502726664 0)
(1.90718214 0.506365935 0)
(2.36034932 0.51300526 4.23442177e-25)
(2.867384 0.523316706 -1.81985659e-26)
(3.43229591 0.538046582 -4.98685791e-25)
(4.05882035 0.558006489 5.80897973e-25)
(4.75022106 0.584038873 6.39627082e-25)
(5.50910243 0.61699301 1.55159857e-26)
(6.33708566 0.657686105 0)
(7.23450116 0.706877399 9.8374839e-25)
(8.20005682 0.765224576 1.20417506e-24)
(9.230495 0.833227247 0)
(10.3202563 0.911158606 0)
(11.461176 0.999021888 -1.99153088e-24)
(12.6420907 1.09644554 -2.348253e-24)
(13.8490335 1.20273541 2.75215562e-24)
(15.0644976 1.31643664 2.97926604e-24)
(16.2704668 1.43570952 -3.00310139e-24)
(17.4475429 1.55808767 2.27899679e-32)
(18.5759387 1.68014337 3.45185977e-24)
(19.6363744 1.79873536 1.7935899e-26)
(20.6091953 1.91033122 0)
(21.475063 2.01555949 2.30993258e-25)
(22.2149609 2.1087662 -4.01685984e-24)
(22.8285726 2.19298298 3.10120733e-25)
(23.3000658 2.25369738 4.67481683e-24)
(23.6530867 2.30704276 0)
(23.8673343 2.33773864 3.73661377e-25)
(23.9093608 2.34600353 0)
(23.8958564 2.35748114 2.78765508e-25)
(23.8796751 2.3487856 -2.53903131e-25)
(23.8840141 2.31735426 -9.16508716e-25)
(23.8973454 2.28878407 -6.98178035e-24)
(23.9183515 2.27255778 -1.05466636e-23)
(23.9335653 2.25446356 -1.04323436e-24)
(23.9782303 2.21582077 -1.05890726e-23)
(24.012892 2.19595721 -1.12890666e-23)
(24.0322276 2.16842482 -1.10142033e-23)
(24.0540007 2.11034971 -1.10945043e-23)
(24.0564199 2.05534017 -7.99737147e-24)
(24.0677104 1.99324077 -1.41841077e-23)
(24.0702862 1.95741981 8.27720862e-24)
(24.0833462 1.91630112 1.12751594e-23)
(24.1109406 1.87695006 -2.36487251e-24)
(24.1132487 1.81608422 2.66540716e-24)
(-0.036550218 0.0176966654 1.35233112e-27)
(-0.107407208 0.0517433037 -4.62910552e-27)
(-0.177273234 0.0850472918 -6.27193726e-28)
(-0.246080192 0.117621666 -6.44422204e-34)
(-0.313540088 0.149408663 -9.70380951e-29)
(-0.379230722 0.180293907 -7.3144049e-28)
(-0.442626696 0.210128508 3.87534349e-27)
(-0.503123815 0.238754481 1.22628764e-33)
(-0.560076694 0.26599722 -1.72323322e-26)
(-0.612801561 0.291707535 -1.26013335e-26)
(-0.660603775 0.315750558 1.88262546e-27)
(-0.702788019 0.337999674 -2.08780365e-26)
(-0.738641547 0.358398766 -2.0547517e-26)
(-0.767459593 0.376880918 -2.69523886e-26)
(-0.78851247 0.393421942 -3.16703216e-26)
(-0.801044365 0.408023416 3.68041374e-26)
(-0.804254224 0.420714896 4.21933739e-26)
(-0.797294093 0.431529933 -2.58917902e-27)
(-0.779228425 0.440553979 0)
(-0.749048692 0.447863685 -5.74471915e-26)
(-0.705646126 0.453571024 -6.70326681e-26)
(-0.64778691 0.457808374 -6.24339389e-27)
(-0.574085305 0.460732898 8.14817504e-26)
(-0.482994717 0.462543795 9.35958504e-26)
(-0.372929796 0.463375423 -1.38705609e-26)
(-0.242137307 0.463298153 0)
(-0.0883766646 0.46261279 7.64465644e-27)
(0.0911315724 0.462353886 1.6177866e-28)
(0.293211911 0.462928413 -2.4328211e-25)
(0.531036052 0.463519946 -2.55941037e-25)
(0.802167362 0.464480527 3.12707665e-25)
(1.11030601 0.467198431 3.11058428e-25)
(1.45912327 0.472211974 -3.66086621e-26)
(1.85197664 0.479881645 -3.58502552e-25)
(2.29267328 0.490855865 -1.36656511e-32)
(2.78509446 0.505832144 4.49958418e-25)
(3.33297576 0.525576943 -5.17729076e-25)
(3.93983256 0.550912986 -5.5642599e-25)
(4.60877627 0.582687021 -3.76111692e-26)
(5.34237207 0.621748578 1.82817041e-26)
(6.14234824 0.668917149 1.59214698e-26)
(7.00932231 0.724956739 -9.37986847e-25)
(7.94249904 0.790530784 -2.17789262e-24)
(8.9393596 0.866147245 -1.28432219e-24)
(9.99536024 0.952099326 -1.51756336e-24)
(11.1036547 1.04840586 -1.77986119e-24)
(12.2548447 1.15475474 0)
(13.4367816 1.27044707 2.47402377e-24)
(14.634464 1.39447095 2.88727026e-24)
(15.8294339 1.5252674 3.1108628e-24)
(17.0024384 1.66067605 6.45026205e-24)
(18.1338461 1.79779281 6.66212257e-24)
(19.2040907 1.93323224 6.94576422e-24)
(20.193225 2.06366939 7.22982864e-24)
(21.0850221 2.18478954 3.74335442e-24)
(21.864963 2.29213518 -3.59564463e-25)
(22.528251 2.38213787 0)
(23.0635335 2.45473294 -3.78810705e-24)
(23.4747732 2.5104898 -4.37309323e-24)
(23.7438022 2.55998654 0)
(23.898806 2.58433244 -5.23012977e-24)
(23.9336629 2.56736605 -5.39887776e-24)
(23.9248011 2.58833403 0)
(23.9003779 2.58441716 -3.78233004e-25)
(23.904071 2.56193722 0)
(23.9113322 2.55275989 -7.65147698e-24)
(23.9350223 2.53328865 -1.42085416e-24)
(23.9693783 2.50955451 1.06099593e-23)
(23.9977884 2.48208231 -9.34944923e-25)
(24.0079241 2.46518034 -9.0387906e-25)
(24.0154324 2.45285472 -1.02238379e-23)
(24.0451354 2.36597045 -9.04716366e-24)
(24.0547215 2.32588388 -7.94680967e-25)
(24.061678 2.26529802 -1.39086e-24)
(24.0504494 2.28781372 -3.9382313e-26)
(24.0625187 2.24963854 -9.23941296e-25)
(24.0732656 2.2154272 1.2249015e-23)
(24.0877112 2.18141921 2.35134628e-23)
(24.1544833 2.09983476 1.20751162e-23)
(24.1625417 2.07952341 -1.9684727e-24)
(-0.0387708108 0.0169336132 0)
(-0.113257828 0.0493132832 -7.16122772e-28)
(-0.185931221 0.0807884061 7.53492689e-28)
(-0.256624456 0.111364966 -2.25417528e-27)
(-0.324934343 0.140977295 8.35053951e-28)
(-0.390304503 0.169512618 8.78399079e-28)
(-0.452062467 0.196828499 -8.54083842e-27)
(-0.509452992 0.222764243 0)
(-0.561657697 0.247179222 2.03227184e-27)
(-0.607839208 0.269936787 -1.80830035e-26)
(-0.647142243 0.290931954 -1.98426616e-26)
(-0.678701028 0.310089543 2.64312124e-26)
(-0.701638252 0.327366578 2.47377582e-27)
(-0.715057579 0.342753423 -7.02307166e-26)
(-0.71802528 0.3562779 -8.3764369e-26)
(-0.709573955 0.367971752 -4.47167592e-26)
(-0.688637909 0.377942256 -2.96855293e-27)
(-0.654108865 0.386278343 -6.06538435e-26)
(-0.604759877 0.393124162 -6.45430947e-26)
(-0.539240659 0.398646975 3.33771365e-27)
(-0.456048465 0.403026621 -3.518289e-27)
(-0.35359419 0.406365977 -1.45386601e-26)
(-0.229999915 0.408802846 -1.05043465e-25)
(-0.0830210058 0.41100104 -2.4347349e-25)
(0.0864799295 0.4138113 -1.16715049e-25)
(0.282559976 0.41707973 -8.46348897e-27)
(0.512278885 0.420401038 -1.10415641e-25)
(0.774592547 0.424501546 9.08209572e-27)
(1.07289062 0.430530342 -9.38701714e-27)
(1.41057619 0.438997655 -1.6372863e-25)
(1.79085518 0.450301632 0)
(2.21721976 0.46512484 -4.19129047e-25)
(2.69326149 0.484185872 -2.07769558e-26)
(3.22246239 0.508257412 5.13966649e-25)
(3.80812685 0.538162645 5.69709923e-25)
(4.45322179 0.574750138 6.3194792e-25)
(5.16026094 0.618869349 -2.05276854e-26)