/*--------------------------------*- C++ -*----------------------------------*\
  =========                 |
  \\      /  F ield         | OpenFOAM: The Open Source CFD Toolbox
   \\    /   O peration     | Website:  https://openfoam.org
    \\  /    A nd           | Version:  8
     \\/     M anipulation  |
\*---------------------------------------------------------------------------*/
FoamFile
{
    version     2.0;
    format      ascii;
    class       volScalarField;
    location    "0.004";
    object      p;
}
// * * * * * * * * * * * * * * * * * * * * * * * * * * * * * * * * * * * * * //

dimensions      [1 -1 -2 0 0 0 0];

internalField   nonuniform List<scalar> 
42400
(
101313.644
101313.609
101313.57
101313.535
101313.502
101313.472
101313.445
101313.419
101313.396
101313.376
101313.358
101313.343
101313.33
101313.32
101313.313
101313.308
101313.306
101313.307
101313.311
101313.318
101313.328
101313.342
101313.359
101313.38
101313.405
101313.435
101313.469
101313.508
101313.551
101313.604
101313.67
101313.744
101313.815
101313.881
101313.945
101314.021
101314.113
101314.21
101314.311
101314.416
101314.525
101314.633
101314.735
101314.859
101315.028
101315.207
101315.31
101315.382
101315.503
101315.648
101315.777
101315.893
101316.003
101316.108
101316.216
101316.333
101316.447
101316.549
101316.646
101316.758
101316.885
101317.034
101317.215
101317.401
101317.646
101318.005
101318.302
101318.749
101319.279
101319.335
101319.59
101320.965
101322.361
101322.29
101323.078
101325.019
101326.597
101328.057
101328.652
101329.54
101311.987
101311.952
101311.914
101311.879
101311.849
101311.82
101311.795
101311.772
101311.752
101311.736
101311.722
101311.711
101311.704
101311.7
101311.699
101311.701
101311.707
101311.717
101311.73
101311.747
101311.769
101311.795
101311.826
101311.862
101311.903
101311.949
101312.005
101312.072
101312.149
101312.225
101312.293
101312.364
101312.451
101312.553
101312.661
101312.774
101312.895
101313.019
101313.141
101313.262
101313.404
101313.583
101313.732
101313.838
101313.973
101314.136
101314.303
101314.454
101314.598
101314.738
101314.879
101315.024
101315.166
101315.301
101315.424
101315.537
101315.655
101315.787
101315.93
101316.083
101316.252
101316.437
101316.664
101316.88
101317.122
101317.381
101317.478
101318.086
101319.362
101321.011
101322.588
101322.529
101322.69
101324.173
101325.284
101325.918
101326.808
101327.647
101328.819
101329.855
101309.935
101309.902
101309.866
101309.835
101309.807
101309.782
101309.761
101309.742
101309.727
101309.716
101309.708
101309.704
101309.703
101309.706
101309.714
101309.725
101309.741
101309.761
101309.786
101309.816
101309.851
101309.892
101309.937
101309.992
101310.057
101310.132
101310.207
101310.277
101310.351
101310.44
101310.543
101310.654
101310.77
101310.893
101311.022
101311.15
101311.296
101311.475
101311.666
101311.811
101311.939
101312.103
101312.286
101312.461
101312.631
101312.801
101312.973
101313.148
101313.321
101313.491
101313.654
101313.812
101313.966
101314.116
101314.27
101314.435
101314.609
101314.792
101314.996
101315.22
101315.474
101315.734
101316.05
101316.341
101316.751
101317.861
101319.38
101320.269
101320.408
101320.536
101321.455
101322.45
101323.043
101324.089
101325.273
101325.997
101326.764
101327.625
101328.719
101329.717
101307.453
101307.423
101307.392
101307.365
101307.342
101307.322
101307.306
101307.294
101307.285
101307.281
101307.281
101307.284
101307.293
101307.306
101307.323
101307.346
101307.373
101307.406
101307.443
101307.487
101307.538
101307.6
101307.67
101307.741
101307.812
101307.888
101307.977
101308.079
101308.19
101308.308
101308.433
101308.564
101308.696
101308.845
101309.023
101309.187
101309.329
101309.496
101309.684
101309.877
101310.065
101310.254
101310.447
101310.643
101310.839
101311.036
101311.23
101311.422
101311.612
101311.802
101311.991
101312.177
101312.367
101312.57
101312.783
101313.01
101313.26
101313.541
101313.848
101314.216
101314.628
101315.127
101315.617
101316.697
101317.599
101317.87
101318.139
101318.815
101319.626
101320.586
101321.36
101322.026
101322.722
101323.497
101324.406
101325.455
101326.506
101327.321
101328.487
101329.199
101304.526
101304.501
101304.476
101304.455
101304.439
101304.426
101304.417
101304.413
101304.413
101304.417
101304.426
101304.44
101304.458
101304.482
101304.511
101304.545
101304.585
101304.633
101304.688
101304.751
101304.817
101304.884
101304.958
101305.042
101305.139
101305.244
101305.357
101305.476
101305.6
101305.738
101305.89
101306.065
101306.228
101306.374
101306.547
101306.737
101306.927
101307.121
101307.32
101307.525
101307.732
101307.941
101308.152
101308.364
101308.577
101308.791
101309.006
101309.221
101309.438
101309.654
101309.875
101310.111
101310.358
101310.623
101310.91
101311.233
101311.585
101311.993
101312.417
101312.944
101313.481
101314.088
101314.802
101315.304
101315.96
101316.799
101317.476
101318.205
101318.868
101319.516
101320.209
101321.134
101322.247
101323.329
101324.409
101325.641
101326.886
101327.778
101328.985
101329.499
101301.122
101301.104
101301.087
101301.073
101301.064
101301.06
101301.061
101301.066
101301.075
101301.09
101301.11
101301.135
101301.165
101301.201
101301.243
101301.293
101301.349
101301.409
101301.474
101301.545
101301.625
101301.716
101301.815
101301.921
101302.034
101302.151
101302.283
101302.437
101302.585
101302.725
101302.885
101303.059
101303.245
101303.434
101303.628
101303.829
101304.035
101304.246
101304.461
101304.681
101304.904
101305.13
101305.358
101305.59
101305.824
101306.06
101306.301
101306.546
101306.798
101307.062
101307.339
101307.63
101307.944
101308.291
101308.671
101309.088
101309.541
101310.013
101310.558
101311.098
101311.729
101312.291
101312.935
101313.674
101314.465
101315.31
101316.171
101317.083
101318.022
101319.113
101320.037
101320.609
101321.382
101322.303
101323.552
101325.004
101326.567
101328.169
101329.813
101331.734
101297.228
101297.218
101297.209
101297.204
101297.205
101297.209
101297.219
101297.234
101297.254
101297.28
101297.311
101297.349
101297.393
101297.443
101297.499
101297.561
101297.629
101297.705
101297.789
101297.881
101297.98
101298.085
101298.195
101298.317
101298.46
101298.599
101298.733
101298.886
101299.054
101299.227
101299.406
101299.594
101299.789
101299.99
101300.198
101300.413
101300.634
101300.86
101301.092
101301.33
101301.573
101301.822
101302.077
101302.339
101302.609
101302.887
101303.176
101303.478
101303.794
101304.125
101304.475
101304.851
101305.274
101305.739
101306.287
101306.887
101307.522
101308.154
101308.877
101309.471
101309.878
101310.467
101311.063
101311.949
101312.935
101313.976
101314.938
101315.79
101317.104
101318.612
101320.08
101321.435
101322.908
101324.161
101324.983
101325.774
101326.799
101328.022
101329.338
101330.825
101292.78
101292.778
101292.779
101292.785
101292.797
101292.815
101292.837
101292.865
101292.9
101292.941
101292.988
101293.04
101293.099
101293.164
101293.235
101293.313
101293.397
101293.488
101293.586
101293.688
101293.801
101293.931
101294.06
101294.186
101294.328
101294.485
101294.646
101294.815
101294.991
101295.176
101295.369
101295.569
101295.777
101295.992
101296.215
101296.446
101296.686
101296.933
101297.191
101297.458
101297.737
101298.029
101298.335
101298.656
101298.995
101299.353
101299.732
101300.129
101300.541
101300.968
101301.413
101301.845
101302.289
101302.685
101303.111
101303.886
101305.075
101306.077
101306.87
101307.905
101309.081
101310.351
101311.666
101312.544
101313.075
101313.806
101314.813
101315.804
101316.77
101317.876
101319.021
101320.132
101321.544
101323.097
101324.376
101325.464
101326.615
101327.875
101329.069
101330.248
101287.767
101287.774
101287.785
101287.802
101287.825
101287.853
101287.888
101287.928
101287.975
101288.028
101288.088
101288.153
101288.225
101288.303
101288.388
101288.48
101288.577
101288.68
101288.799
101288.919
101289.037
101289.168
101289.313
101289.462
101289.618
101289.782
101289.953
101290.133
101290.32
101290.516
101290.72
101290.933
101291.154
101291.386
101291.628
101291.882
101292.15
101292.433
101292.733
101293.052
101293.392
101293.756
101294.147
101294.567
101295.019
101295.505
101296.026
101296.586
101297.187
101297.842
101298.57
101299.356
101300.206
101301.292
101302.317
101302.896
101303.555
101304.382
101305.394
101306.321
101307.161
101308.052
101309.03
101310.101
101311.192
101312.259
101313.319
101314.45
101315.637
101316.753
101317.962
101319.328
101320.674
101322.022
101323.43
101324.822
101326.185
101327.559
101328.996
101330.005
101282.095
101282.113
101282.136
101282.165
101282.199
101282.24
101282.287
101282.34
101282.4
101282.467
101282.539
101282.618
101282.704
101282.795
101282.89
101282.995
101283.113
101283.231
101283.347
101283.479
101283.617
101283.76
101283.911
101284.069
101284.234
101284.407
101284.587
101284.776
101284.973
101285.18
101285.398
101285.626
101285.868
101286.125
101286.4
101286.693
101287.009
101287.35
101287.72
101288.121
101288.557
101289.032
101289.549
101290.109
101290.717
101291.369
101292.067
101292.814
101293.598
101294.437
101295.273
101296.262
101297.22
101298.053
101299.035
101299.988
101300.869
101301.726
101302.569
101303.574
101304.729
101305.896
101307.133
101308.401
101309.703
101310.914
101311.811
101312.99
101314.692
101316.254
101317.551
101318.873
101320.233
101321.628
101323.03
101324.291
101325.774
101327.75
101329.8
101331.6
101275.74
101275.768
101275.804
101275.845
101275.892
101275.945
101276.005
101276.071
101276.144
101276.222
101276.307
101276.397
101276.494
101276.602
101276.71
101276.82
101276.94
101277.069
101277.203
101277.341
101277.486
101277.638
101277.796
101277.962
101278.135
101278.316
101278.506
101278.706
101278.918
101279.142
101279.382
101279.638
101279.915
101280.214
101280.539
101280.894
101281.282
101281.707
101282.173
101282.682
101283.238
101283.844
101284.5
101285.21
101285.967
101286.77
101287.617
101288.511
101289.451
101290.449
101291.487
101292.417
101293.432
101294.615
101295.77
101296.882
101297.951
101299.045
101300.077
101301.041
101302.12
101303.582
101305.099
101306.526
101308.031
101309.719
101311.681
101313.188
101314.055
101315.098
101316.64
101318.354
101320.057
101321.826
101323.716
101325.682
101327.171
101328.56
101329.77
101330.937
101268.666
101268.706
101268.755
101268.809
101268.869
101268.935
101269.008
101269.086
101269.17
101269.26
101269.358
101269.46
101269.565
101269.677
101269.797
101269.921
101270.05
101270.185
101270.325
101270.472
101270.625
101270.784
101270.952
101271.127
101271.312
101271.508
101271.716
101271.94
101272.18
101272.44
101272.724
101273.034
101273.376
101273.752
101274.167
101274.627
101275.134
101275.692
101276.307
101276.979
101277.712
101278.506
101279.362
101280.279
101281.251
101282.267
101283.332
101284.442
101285.641
101286.678
101287.706
101288.923
101290.233
101291.616
101293.064
101294.541
101295.991
101297.474
101299.053
101300.713
101302.267
101303.446
101304.366
101305.483
101306.882
101308.321
101309.832
101311.307
101312.748
101314.322
101316.003
101317.643
101319.357
101321.201
101322.968
101324.483
101326.401
101328.354
101329.872
101331.286
101260.886
101260.939
101261.002
101261.07
101261.143
101261.222
101261.306
101261.398
101261.495
101261.596
101261.7
101261.813
101261.93
101262.052
101262.179
101262.311
101262.449
101262.593
101262.743
101262.9
101263.065
101263.239
101263.424
101263.62
101263.831
101264.058
101264.306
101264.577
101264.874
101265.203
101265.568
101265.973
101266.423
101266.923
101267.477
101268.091
101268.768
101269.51
101270.32
101271.2
101272.15
101273.169
101274.252
101275.397
101276.593
101277.836
101279.115
101280.461
101281.754
101283.037
101284.494
101285.982
101287.443
101288.911
101290.382
101291.883
101293.492
101295.136
101296.771
101298.384
101299.993
101301.62
101303.326
101304.784
101306.013
101307.305
101308.647
101310.119
101311.732
101313.293
101314.794
101316.471
101318.606
101321.034
101323.238
101324.854
101325.817
101327.238
101329.092
101330.337
101252.444
101252.511
101252.589
101252.671
101252.757
101252.849
101252.946
101253.048
101253.155
101253.268
101253.385
101253.507
101253.634
101253.766
101253.903
101254.047
101254.196
101254.354
101254.519
101254.695
101254.882
101255.082
101255.299
101255.534
101255.793
101256.077
101256.392
101256.742
101257.132
101257.567
101258.052
101258.593
101259.193
101259.857
101260.589
101261.392
101262.267
101263.215
101264.238
101265.334
101266.509
101267.763
101269.093
101270.48
101271.902
101273.307
101274.579
101275.796
101277.129
101278.553
101280.212
101282.022
101283.717
101285.326
101286.983
101288.803
101290.54
101292.345
101294.233
101296.079
101297.959
101299.785
101301.702
101303.455
101305.006
101306.618
101308.143
101309.762
101311.522
101313.435
101315.783
101318.146
101319.549
101320.555
101322.044
101324.303
101326.777
101328.117
101329.164
101331.138
101243.422
101243.502
101243.596
101243.692
101243.791
101243.895
101244.005
101244.118
101244.236
101244.359
101244.486
101244.619
101244.757
101244.901
101245.051
101245.21
101245.378
101245.556
101245.748
101245.954
101246.179
101246.425
101246.697
101246.998
101247.334
101247.709
101248.129
101248.598
101249.123
101249.709
101250.359
101251.079
101251.869
101252.732
101253.668
101254.673
101255.744
101256.873
101258.05
101259.242
101260.454
101261.645
101263.203
101265.257
101267.14
101268.965
101271.017
101273.234
101275.506
101277.79
101279.793
101281.352
101282.838
101284.33
101285.654
101287.003
101288.684
101290.564
101292.419
101294.369
101295.973
101297.508
101299.371
101301.443
101303.583
101305.666
101307.786
101310.081
101312.294
101314.394
101316.426
101318.188
101320.047
101321.994
101323.577
101325.1
101326.82
101328.332
101330.358
101332.666
101233.939
101234.033
101234.142
101234.251
101234.363
101234.48
101234.6
101234.725
101234.854
101234.988
101235.128
101235.274
101235.427
101235.588
101235.76
101235.943
101236.142
101236.357
101236.593
101236.854
101237.144
101237.468
101237.832
101238.241
101238.701
101239.22
101239.803
101240.456
101241.185
101241.996
101242.891
101243.873
101244.943
101246.101
101247.345
101248.671
101250.075
101251.548
101253.07
101254.722
101256.902
101259.692
101261.967
101263.614
101265.221
101266.754
101268.259
101269.914
101271.686
101273.472
101275.192
101277.018
101279.059
101281.284
101283.817
101286.038
101287.739
101289.268
101290.738
101292.234
101294.398
101297.199
101299.817
101301.996
101303.659
101305.386
101307.228
101309.239
101311.436
101313.476
101315.164
101316.735
101318.357
101320.622
101323.064
101325.055
101326.916
101328.643
101330.661
101332.892
101224.155
101224.262
101224.385
101224.507
101224.63
101224.757
101224.889
101225.025
101225.165
101225.312
101225.466
101225.629
101225.802
101225.988
101226.189
101226.41
101226.653
101226.924
101227.227
101227.568
101227.954
101228.391
101228.887
101229.449
101230.085
101230.803
101231.61
101232.513
101233.518
101234.63
101235.853
101237.188
101238.637
101240.2
101241.872
101243.65
101245.523
101247.482
101249.487
101251.497
101253.563
101255.736
101257.555
101259.126
101260.826
101262.717
101264.691
101266.543
101268.342
101270.224
101272.191
101274.192
101276.204
101278.189
101280.166
101282.252
101284.588
101287.132
101289.645
101291.944
101293.928
101295.69
101297.342
101299.256
101301.8
101304.267
101306.532
101308.669
101310.85
101313.123
101315.185
101317.056
101318.694
101320.194
101322.173
101324.559
101326.558
101328.41
101330.073
101331.483
101214.242
101214.361
101214.496
101214.628
101214.761
101214.897
101215.036
101215.181
101215.332
101215.49
101215.658
101215.837
101216.032
101216.245
101216.481
101216.744
101217.039
101217.373
101217.752
101218.184
101218.675
101219.234
101219.869
101220.586
101221.395
101222.302
101223.311
101224.429
101225.658
101227
101228.455
101230.022
101231.7
101233.49
101235.391
101237.403
101239.535
101241.743
101243.982
101246.349
101248.363
101249.878
101251.493
101253.297
101254.833
101256.323
101258.588
101261.439
101263.912
101266.207
101268.515
101270.898
101273.245
101275.553
101278.075
101280.689
101283.195
101285.798
101288.348
101290.763
101293.212
101295.891
101298.293
101300.095
101302.101
101304.352
101306.754
101309.146
101311.358
101313.619
101315.468
101317.572
101320.346
101322.853
101324.709
101326.283
101328.093
101329.785
101331.152
101333.398
101204.475
101204.603
101204.747
101204.886
101205.024
101205.164
101205.308
101205.457
101205.612
101205.777
101205.954
101206.147
101206.36
101206.599
101206.867
101207.172
101207.52
101207.919
101208.377
101208.901
101209.499
101210.181
101210.954
101211.825
101212.799
101213.881
101215.075
101216.379
101217.791
101219.305
101220.91
101222.588
101224.314
101226.092
101227.849
101229.51
101231.61
101234.237
101236.906
101239.882
101242.976
101246.161
101249.425
101252.797
101256.383
101260.039
101262.744
101264.44
101266.099
101267.96
101269.896
101271.808
101273.648
101275.793
101278.253
101280.672
101283.175
101285.557
101288.092
101290.03
101291.303
101292.586
101294.589
101297.634
101301.05
101304.335
101307.437
101310.606
101313.202
101315.759
101319.389
101322.27
101323.626
101324.386
101326.057
101328.865
101331.143
101333.423
101336.063
101337.195
101195.204
101195.341
101195.495
101195.643
101195.79
101195.94
101196.095
101196.258
101196.432
101196.619
101196.826
101197.056
101197.315
101197.61
101197.948
101198.336
101198.784
101199.298
101199.89
101200.567
101201.338
101202.213
101203.199
101204.302
101205.529
101206.884
101208.369
101209.989
101211.745
101213.641
101215.672
101217.823
101220.11
101223.175
101227.196
101231.597
101235.344
101237.76
101239.937
101242.207
101244.38
101246.464
101248.62
101250.863
101253.111
101255.328
101257.506
101259.984
101262.742
101265.275
101267.676
101269.999
101272.844
101275.863
101278.346
101280.643
101282.948
101285.319
101287.169
101289.465
101293.125
101296.163
101298.795
101301.078
101303.619
101306.588
101309.473
101312.55
101315.025
101317.122
101319.48
101322.121
101324.495
101326.417
101328.471
101330.876
101333.169
101334.669
101336.19
101336.923
101310.077
101310.085
101310.095
101310.106
101310.117
101310.129
101310.141
101310.155
101310.169
101310.185
101310.201
101310.218
101310.235
101310.254
101310.273
101310.293
101310.313
101310.334
101310.355
101310.377
101310.398
101310.42
101310.442
101310.464
101310.485
101310.506
101310.527
101310.547
101310.566
101310.585
101310.603
101310.62
101310.636
101310.651
101310.666
101310.68
101310.694
101310.707
101310.72
101310.734
101310.748
101310.764
101310.781
101310.8
101310.821
101310.845
101310.875
101310.91
101310.952
101310.997
101311.046
101311.097
101311.153
101311.216
101311.284
101311.357
101311.435
101311.516
101311.598
101311.682
101311.765
101311.842
101311.911
101311.976
101312.033
101312.073
101312.098
101312.104
101312.088
101312.049
101311.984
101311.891
101311.768
101311.601
101311.389
101311.131
101310.835
101310.515
101310.148
101309.67
101310.964
101310.973
101310.984
101310.995
101311.008
101311.021
101311.035
101311.049
101311.065
101311.082
101311.1
101311.118
101311.138
101311.158
101311.179
101311.2
101311.223
101311.246
101311.269
101311.293
101311.317
101311.342
101311.366
101311.391
101311.415
101311.439
101311.463
101311.486
101311.509
101311.531
101311.553
101311.574
101311.595
101311.615
101311.634
101311.653
101311.672
101311.692
101311.711
101311.732
101311.753
101311.776
101311.803
101311.831
101311.863
101311.902
101311.945
101311.992
101312.042
101312.096
101312.157
101312.224
101312.297
101312.378
101312.464
101312.556
101312.654
101312.756
101312.862
101312.968
101313.075
101313.181
101313.284
101313.381
101313.471
101313.55
101313.617
101313.668
101313.7
101313.71
101313.692
101313.641
101313.555
101313.438
101313.288
101313.096
101312.867
101312.613
101312.338
101311.979
101311.769
101311.779
101311.79
101311.802
101311.815
101311.828
101311.843
101311.859
101311.875
101311.893
101311.911
101311.931
101311.951
101311.973
101311.995
101312.018
101312.041
101312.066
101312.091
101312.116
101312.142
101312.168
101312.195
101312.221
101312.247
101312.274
101312.3
101312.325
101312.35
101312.375
101312.399
101312.423
101312.446
101312.469
101312.491
101312.513
101312.535
101312.559
101312.583
101312.608
101312.634
101312.665
101312.699
101312.732
101312.77
101312.815
101312.863
101312.915
101312.973
101313.038
101313.11
101313.189
101313.276
101313.37
101313.472
101313.58
101313.695
101313.816
101313.943
101314.077
101314.211
101314.345
101314.478
101314.606
101314.729
101314.843
101314.946
101315.036
101315.11
101315.164
101315.194
101315.195
101315.163
101315.1
101315.001
101314.872
101314.712
101314.535
101314.309
101314.054
101312.484
101312.494
101312.506
101312.518
101312.531
101312.545
101312.56
101312.576
101312.593
101312.611
101312.63
101312.65
101312.671
101312.692
101312.715
101312.739
101312.763
101312.788
101312.814
101312.84
101312.867
101312.894
101312.921
101312.948
101312.975
101313.002
101313.029
101313.055
101313.081
101313.106
101313.13
101313.154
101313.178
101313.201
101313.224
101313.247
101313.275
101313.299
101313.319
101313.343
101313.37
101313.4
101313.434
101313.472
101313.513
101313.559
101313.61
101313.667
101313.731
101313.802
101313.88
101313.967
101314.062
101314.165
101314.276
101314.396
101314.527
101314.663
101314.8
101314.945
101315.098
101315.256
101315.415
101315.571
101315.722
101315.867
101316.004
101316.129
101316.241
101316.337
101316.416
101316.477
101316.514
101316.515
101316.484
101316.424
101316.34
101316.243
101316.13
101315.956
101313.109
101313.12
101313.132
101313.145
101313.158
101313.172
101313.188
101313.204
101313.221
101313.239
101313.258
101313.278
101313.299
101313.321
101313.344
101313.367
101313.392
101313.417
101313.442
101313.468
101313.495
101313.521
101313.548
101313.575
101313.601
101313.627
101313.653
101313.678
101313.702
101313.726
101313.749
101313.772
101313.797
101313.819
101313.835
101313.854
101313.872
101313.89
101313.908
101313.932
101313.961
101313.992
101314.024
101314.059
101314.099
101314.145
101314.197
101314.256
101314.322
101314.396
101314.478
101314.569
101314.672
101314.785
101314.902
101315.02
101315.148
101315.295
101315.453
101315.611
101315.77
101315.933
101316.099
101316.268
101316.437
101316.604
101316.769
101316.93
101317.083
101317.228
101317.36
101317.479
101317.572
101317.639
101317.68
101317.696
101317.701
101317.695
101317.677
101317.589
101313.654
101313.665
101313.678
101313.691
101313.705
101313.72
101313.735
101313.752
101313.769
101313.787
101313.806
101313.826
101313.846
101313.868
101313.89
101313.913
101313.936
101313.96
101313.985
101314.01
101314.034
101314.059
101314.084
101314.109
101314.133
101314.156
101314.179
101314.2
101314.221
101314.241
101314.262
101314.279
101314.292
101314.304
101314.315
101314.326
101314.34
101314.36
101314.383
101314.404
101314.425
101314.448
101314.476
101314.508
101314.546
101314.59
101314.642
101314.702
101314.77
101314.848
101314.935
101315.027
101315.126
101315.234
101315.348
101315.483
101315.633
101315.784
101315.936
101316.097
101316.265
101316.439
101316.616
101316.797
101316.979
101317.163
101317.345
101317.525
101317.702
101317.873
101318.035
101318.191
101318.342
101318.471
101318.568
101318.691
101318.786
101318.888
101318.979
101318.973
101314.139
101314.151
101314.164
101314.178
101314.192
101314.207
101314.223
101314.24
101314.257
101314.274
101314.293
101314.312
101314.332
101314.352
101314.373
101314.395
101314.417
101314.439
101314.462
101314.484
101314.507
101314.529
101314.551
101314.572
101314.592
101314.611
101314.629
101314.645
101314.661
101314.673
101314.681
101314.687
101314.692
101314.701
101314.715
101314.73
101314.743
101314.752
101314.763
101314.775
101314.791
101314.81
101314.836
101314.867
101314.903
101314.942
101314.99
101315.05
101315.117
101315.19
101315.268
101315.353
101315.456
101315.58
101315.714
101315.848
101315.985
101316.132
101316.288
101316.451
101316.622
101316.798
101316.98
101317.166
101317.356
101317.547
101317.74
101317.933
101318.125
101318.311
101318.494
101318.709
101318.918
101319.065
101319.281
101319.492
101319.629
101319.834
101320.021
101320.093
101314.586
101314.599
101314.612
101314.626
101314.641
101314.655
101314.671
101314.687
101314.703
101314.72
101314.738
101314.756
101314.774
101314.793
101314.812
101314.832
101314.852
101314.872
101314.892
101314.911
101314.93
101314.949
101314.966
101314.982
101314.996
101315.008
101315.02
101315.028
101315.031
101315.037
101315.046
101315.056
101315.066
101315.072
101315.073
101315.074
101315.076
101315.079
101315.084
101315.093
101315.107
101315.12
101315.132
101315.153
101315.188
101315.235
101315.285
101315.335
101315.395
101315.471
101315.563
101315.666
101315.772
101315.879
101315.997
101316.125
101316.263
101316.409
101316.564
101316.726
101316.895
101317.07
101317.251
101317.437
101317.627
101317.821
101318.018
101318.219
101318.422
101318.627
101318.841
101319.086
101319.318
101319.522
101319.735
101319.911
101320.196
101320.491
101320.737
101320.891
101315.022
101315.034
101315.047
101315.06
101315.073
101315.086
101315.1
101315.115
101315.13
101315.145
101315.161
101315.177
101315.193
101315.21
101315.227
101315.244
101315.261
101315.278
101315.294
101315.309
101315.323
101315.337
101315.349
101315.359
101315.367
101315.375
101315.383
101315.391
101315.4
101315.404
101315.403
101315.4
101315.397
101315.392
101315.388
101315.384
101315.381
101315.381
101315.384
101315.385
101315.384
101315.401
101315.429
101315.461
101315.494
101315.528
101315.576
101315.636
101315.702
101315.773
101315.852
101315.941
101316.041
101316.149
101316.266
101316.392
101316.526
101316.668
101316.818
101316.975
101317.138
101317.308
101317.483
101317.663
101317.847
101318.035
101318.227
101318.423
101318.622
101318.824
101319.042
101319.28
101319.505
101319.717
101319.931
101320.144
101320.396
101320.694
101321.126
101321.343
101315.46
101315.469
101315.479
101315.49
101315.5
101315.511
101315.523
101315.535
101315.547
101315.56
101315.573
101315.586
101315.6
101315.614
101315.628
101315.642
101315.656
101315.669
101315.683
101315.695
101315.706
101315.716
101315.726
101315.735
101315.744
101315.75
101315.753
101315.752
101315.75
101315.747
101315.742
101315.736
101315.729
101315.722
101315.716
101315.712
101315.708
101315.7
101315.695
101315.701
101315.715
101315.733
101315.754
101315.778
101315.811
101315.851
101315.896
101315.95
101316.012
101316.082
101316.16
101316.247
101316.342
101316.445
101316.556
101316.675
101316.802
101316.935
101317.076
101317.224
101317.377
101317.537
101317.701
101317.871
101318.046
101318.226
101318.411
101318.6
101318.795
101318.995
101319.195
101319.387
101319.572
101319.751
101319.924
101320.101
101320.308
101320.6
101321.015
101321.327
101315.902
101315.907
101315.913
101315.92
101315.927
101315.934
101315.942
101315.95
101315.959
101315.968
101315.978
101315.989
101316
101316.012
101316.024
101316.035
101316.045
101316.056
101316.065
101316.075
101316.084
101316.093
101316.099
101316.103
101316.105
101316.106
101316.105
101316.102
101316.098
101316.092
101316.086
101316.078
101316.071
101316.065
101316.055
101316.043
101316.04
101316.041
101316.052
101316.066
101316.074
101316.086
101316.106
101316.131
101316.163
101316.202
101316.248
101316.3
101316.36
101316.426
101316.501
101316.582
101316.671
101316.768
101316.872
101316.984
101317.102
101317.228
101317.361
101317.501
101317.647
101317.801
101317.96
101318.124
101318.292
101318.456
101318.618
101318.783
101318.933
101319.07
101319.207
101319.342
101319.48
101319.632
101319.812
101319.987
101320.103
101320.229
101320.558
101321.016
101316.33
101316.33
101316.331
101316.333
101316.335
101316.338
101316.342
101316.346
101316.351
101316.356
101316.362
101316.368
101316.374
101316.381
101316.388
101316.396
101316.404
101316.412
101316.419
101316.426
101316.431
101316.436
101316.44
101316.442
101316.443
101316.442
101316.44
101316.436
101316.431
101316.426
101316.419
101316.414
101316.405
101316.397
101316.392
101316.388
101316.39
101316.396
101316.397
101316.405
101316.417
101316.434
101316.456
101316.482
101316.515
101316.553
101316.596
101316.647
101316.703
101316.766
101316.836
101316.913
101316.996
101317.087
101317.185
101317.29
101317.401
101317.518
101317.643
101317.773
101317.909
101318.047
101318.185
101318.319
101318.453
101318.59
101318.735
101318.889
101319.067
101319.257
101319.416
101319.53
101319.599
101319.643
101319.679
101319.736
101319.741
101319.625
101319.65
101320.316
101316.71
101316.705
101316.7
101316.696
101316.693
101316.69
101316.688
101316.687
101316.687
101316.688
101316.69
101316.692
101316.695
101316.699
101316.703
101316.708
101316.713
101316.717
101316.721
101316.726
101316.729
101316.732
101316.734
101316.734
101316.734
101316.732
101316.729
101316.725
101316.72
101316.715
101316.709
101316.702
101316.691
101316.692
101316.697
101316.694
101316.69
101316.694
101316.7
101316.71
101316.724
101316.741
101316.763
101316.79
101316.821
101316.857
101316.899
101316.946
101316.998
101317.057
101317.121
101317.19
101317.265
101317.347
101317.434
101317.528
101317.629
101317.737
101317.852
101317.975
101318.108
101318.254
101318.42
101318.602
101318.778
101318.934
101319.077
101319.207
101319.32
101319.425
101319.523
101319.603
101319.614
101319.59
101319.627
101320.015
101320.608
101320.064
101318.714
101318.9
101317.007
101316.997
101316.986
101316.976
101316.967
101316.959
101316.952
101316.946
101316.941
101316.937
101316.935
101316.933
101316.932
101316.932
101316.932
101316.933
101316.935
101316.935
101316.937
101316.939
101316.94
101316.94
101316.939
101316.938
101316.935
101316.932
101316.928
101316.925
101316.922
101316.914
101316.902
101316.901
101316.904
101316.896
101316.895
101316.896
101316.898
101316.903
101316.912
101316.923
101316.937
101316.955
101316.977
101317.002
101317.032
101317.066
101317.104
101317.146
101317.192
101317.244
101317.3
101317.362
101317.435
101317.518