/*--------------------------------*- C++ -*----------------------------------*\
  =========                 |
  \\      /  F ield         | OpenFOAM: The Open Source CFD Toolbox
   \\    /   O peration     | Website:  https://openfoam.org
    \\  /    A nd           | Version:  8
     \\/     M anipulation  |
\*---------------------------------------------------------------------------*/
FoamFile
{
    version     2.0;
    format      ascii;
    class       surfaceScalarField;
    location    "0.004";
    object      phi;
}
// * * * * * * * * * * * * * * * * * * * * * * * * * * * * * * * * * * * * * //

dimensions      [1 0 -1 0 0 0 0];

internalField   nonuniform List<scalar> 
84340
(
-1.9133437e-07
5.45802173e-07
-3.54630344e-07
-7.64154096e-07
1.59111449e-06
-1.01855788e-06
-1.72756875e-06
2.61213031e-06
-1.64904089e-06
-3.08839424e-06
3.59842117e-06
-2.23797506e-06
-4.85119661e-06
4.5444044e-06
-2.78202991e-06
-7.01837582e-06
5.44848266e-06
-3.28177717e-06
-9.59018903e-06
6.31299569e-06
-3.74170174e-06
-1.25647191e-05
7.14431488e-06
-4.17035123e-06
-1.59377931e-05
7.95281579e-06
-4.58035818e-06
-1.97028463e-05
8.75267665e-06
-4.98829373e-06
-2.3850722e-05
9.56154141e-06
-5.41439432e-06
-2.83693921e-05
1.04000488e-05
-5.88217072e-06
-3.32435762e-05
1.12912237e-05
-6.41790038e-06
-3.84542433e-05
1.22597345e-05
-7.05000304e-06
-4.3977977e-05
1.33310259e-05
-7.80830878e-06
-4.97862252e-05
1.45303753e-05
-8.72323134e-06
-5.5844402e-05
1.58818736e-05
-9.82489531e-06
-6.21108347e-05
1.74073685e-05
-1.11422357e-05
-6.85354391e-05
1.91253766e-05
-1.27021805e-05
-7.50580022e-05
2.10499771e-05
-1.45289385e-05
-8.16062675e-05
2.31896892e-05
-1.66430714e-05
-8.81038721e-05
2.55462935e-05
-1.90504676e-05
-9.44636795e-05
2.811402e-05
-2.17561287e-05
-0.00010058798
3.08787545e-05
-2.47565157e-05
-0.000106368383
3.3817614e-05
-2.8039424e-05
-0.000111685943
3.68985446e-05
-3.15833552e-05
-0.000116410244
4.00792017e-05
-3.53574345e-05
-0.000120398791
4.33073085e-05
-3.932147e-05
-0.000123504375
4.65287366e-05
-4.3426019e-05
-0.000125581951
4.96858641e-05
-4.76113165e-05
-0.000126460852
5.26831637e-05
-5.18074748e-05
-0.00012595829
5.54428331e-05
-5.59487854e-05
-0.000123829483
5.78365188e-05
-5.99688224e-05
-0.00011982422
5.97452788e-05
-6.37541528e-05
-0.000113667935
6.1050485e-05
-6.72105995e-05
-0.000105058001
6.16100148e-05
-7.02239903e-05
-9.37169378e-05
6.12898418e-05
-7.2635078e-05
-7.93188066e-05
5.99358719e-05
-7.43383157e-05
-6.15334102e-05
5.73892731e-05
-7.51791004e-05
-3.9978366e-05
5.34663849e-05
-7.50259724e-05
-1.41929849e-05
4.79316852e-05
-7.37216858e-05
1.62719029e-05
4.06298343e-05
-7.10994191e-05
5.15152097e-05
3.17338004e-05
-6.69818695e-05
9.23091578e-05
2.03054859e-05
-6.11041898e-05
0.0001393633
6.30558116e-06
-5.33642859e-05
0.000193405647
-1.02634844e-05
-4.3783338e-05
0.000255343922
-2.97881452e-05
-3.21546731e-05
0.000326101562
-5.34440325e-05
-1.73181745e-05
0.000406721989
-8.10540906e-05
4.29233433e-07
0.000498866547
-0.000112938282
2.07894202e-05
0.000603148097
-0.000149735698
4.54500443e-05
0.000720591605
-0.000191952157
7.45047309e-05
0.00085245616
-0.000240081573
0.000108213367
0.00100007776
-0.000294678371
0.000147053367
0.00116475888
-0.000356432128
0.00019174791
0.00134780356
-0.000425928718
0.000242881124
0.00155068333
-0.000503978322
0.000301095811
0.00177461539
-0.000591140408
0.000367205721
0.00202036538
-0.000687985285
0.000442232817
0.00228806718
-0.000794456532
0.000526752199
0.0025767661
-0.00091031119
0.00062160972
0.00288476961
-0.00103531054
0.000727304328
0.00321052437
-0.00116892986
0.000843172369
0.00354874243
-0.00130588387
0.000967663049
0.00389062251
-0.00144867364
0.00110679107
0.00424013502
-0.00160219114
0.00125267663
0.00459738547
-0.00174196775
0.00138471628
0.00491658471
-0.00186687429
0.00154767551
0.0051985866
-0.00202250444
0.00174050529
0.00551218062
-0.00216336761
0.00184977891
0.00580822256
-0.0022457335
0.00194969937
0.00597980009
-0.00232975813
0.00215819225
0.00608772261
-0.00243829183
0.00233038597
0.00622039369
-0.00254219865
0.00240955012
0.0063877745
-0.00262884698
0.00246148846
0.00654859797
-0.00270902198
0.00254822158
0.00666102709
-0.00278355176
0.00267114654
0.00675606744
-0.00286860297
0.00277358468
0.0068414971
-0.00296557364
0.00288015875
-0.00306753218
0.00294729236
0.00696173884
-1.90547306e-07
7.36032677e-07
-7.5836206e-07
2.15847728e-06
-1.70974766e-06
3.56299289e-06
-3.04834559e-06
4.93643015e-06
-4.77522357e-06
6.27063099e-06
-6.88888993e-06
7.56143626e-06
-9.38523388e-06
8.80856464e-06
-1.22574006e-05
1.00156418e-05
-1.54955817e-05
1.11900888e-05
-1.90867146e-05
1.23428286e-05
-2.30140871e-05
1.34878552e-05
-2.72568627e-05
1.46416821e-05
-3.17895447e-05
1.58226742e-05
-3.6581402e-05
1.70502644e-05
-4.15958752e-05
1.83440693e-05
-4.67899349e-05
1.97228955e-05
-5.21134142e-05
2.12036966e-05
-5.75082897e-05
2.28004629e-05
-6.29079108e-05
2.45230842e-05
-6.823621e-05
2.63762217e-05
-7.34069919e-05
2.83582676e-05
-7.83235612e-05
3.04605007e-05
-8.28783202e-05
3.26662514e-05
-8.69519084e-05
3.49496372e-05
-9.04134612e-05
3.72762756e-05
-9.31252846e-05
3.96072937e-05
-9.49467843e-05
4.18974327e-05
-9.57215914e-05
4.4078629e-05
-9.52649551e-05
4.60684288e-05
-9.3349054e-05
4.77661093e-05
-8.9738237e-05
4.90682513e-05
-8.41753267e-05
4.98755522e-05
-7.63816236e-05
5.00381935e-05
-6.60818888e-05
4.94406679e-05
-5.29702509e-05
4.79337244e-05
-3.67232665e-05
4.53576558e-05
-1.6953197e-05
4.15141666e-05
6.72977768e-06
3.62470682e-05
3.46211223e-05
2.9491876e-05
6.70321025e-05
2.10491073e-05
0.000104739067
1.02183361e-05
0.000148313849
-2.9513949e-06
0.000198402138
-1.83611238e-05
0.000255758194
-3.70573936e-05
0.000321251446
-5.91945581e-05
0.000396008931
-8.50279216e-05
0.000481168216
-0.000114954351
0.000577184249
-0.000149466937
0.000685105331
-0.000188981896
0.000806126382
-0.000233965859
0.000941324886
-0.000284940356
0.00109172705
-0.000342360074
0.00125837819
-0.000406737981
0.00144234212
-0.000478647146
0.00164464907
-0.000558743395
0.00186618791
-0.000647471259
0.00210732388
-0.000745117288
0.00236767271
-0.000851491787
0.00264590857
-0.000966223359
0.00293970103
-0.00108825108
0.00324591005
-0.00121652222
0.0035597195
-0.00134912203
0.00387716215
-0.0014863745
0.00419419366
-0.00162291731
0.00450190226
-0.00175638383
0.00478949127
-0.00188978122
0.00506566393
-0.00201814047
0.00531768592
-0.00211889505
0.00551010461
-0.00221491985
0.00565894704
-0.00231220444
0.00580880389
-0.00239558292
0.00595744548
-0.00247839056
0.00607521883
-0.00255605285
0.00615898943
-0.00262595089
0.0062412674
-0.00271110105
0.00633198843
-0.00279972032
0.00643790197
-0.00288944904
0.00654970812
-0.00298039506
0.00664943722
-0.00306529046
-0.00315855893
0.00674047024
-1.82057116e-07
9.17886693e-07
-7.21433278e-07
2.69756853e-06
-1.62059588e-06
4.46182924e-06
-2.87859904e-06
6.19406765e-06
-4.49184457e-06
7.88347223e-06
-6.45369644e-06
9.52284438e-06
-8.75434683e-06
1.11087297e-05
-1.13806132e-05
1.2641378e-05
-1.43156626e-05
1.41245591e-05
-1.7538662e-05
1.5565195e-05
-2.10243459e-05
1.6972847e-05
-2.47425045e-05
1.83590835e-05
-2.86573996e-05
1.97367409e-05
-3.27271147e-05
2.1119073e-05
-3.69028447e-05
2.25188078e-05
-4.1128146e-05
2.39471128e-05
-4.53381508e-05
2.54125176e-05
-4.94588314e-05
2.69198515e-05
-5.34062934e-05
2.84691388e-05
-5.70862334e-05
3.00546302e-05
-6.03931503e-05
3.16635215e-05
-6.32117985e-05
3.32773451e-05
-6.54200241e-05
3.48725293e-05
-6.68892334e-05
3.64167436e-05
-6.7467652e-05
3.78524368e-05
-6.69796777e-05
3.91169184e-05
-6.52206802e-05
4.01358783e-05
-6.1973617e-05
4.08288221e-05
-5.7000081e-05
4.1091956e-05
-5.00392671e-05
4.08021672e-05
-4.08297794e-05
3.98554569e-05
-2.90760775e-05
3.81183638e-05
-1.44863997e-05
3.54448614e-05
3.29454247e-06
3.16559084e-05
2.4637031e-05
2.65872693e-05
4.97377632e-05
2.02527944e-05
7.9167001e-05
1.20807129e-05
0.000113450245
1.95962108e-06
0.000153119551
-1.01816565e-05
0.000198806571
-2.46422764e-05
0.000251174876
-4.2154391e-05
0.000310963321
-6.27442531e-05
0.000379317185
-8.6719325e-05
0.00045677672
-0.000114521167
0.000544135495
-0.000146557389
0.000642333359
-0.000183229645
0.000752347814
-0.000224972346
0.000875083982
-0.000272206277
0.00101144925
-0.000325349857
0.00116229646
-0.000384815274
0.00132839579
-0.000451041306
0.00151051986
-0.000524485246
0.00170949033
-0.000605708949
0.00192580551
-0.000694962386
0.00215939134
-0.000792328896
0.0024093602
-0.000897439627
0.00267387752
-0.00100963402
0.00295032118
-0.00112793494
0.00323522928
-0.00125113108
0.00352428357
-0.00137730522
0.00381252176
-0.00150476048
0.00409459679
-0.00163119739
0.00436447771
-0.00175625589
0.00461983202
-0.00187827215
0.00485129676
-0.00198784896
0.00504632895
-0.0020848134
0.00520620264
-0.0021780134
0.00534408758
-0.00225677812
0.00546872552
-0.00233955445
0.00557692349
-0.00242039683
0.0056758877
-0.00249453985
0.0057682134
-0.00257070613
0.00586540268
-0.00265322939
0.00596566559
-0.00272619812
0.00605327253
-0.00279868905
0.00613335572
-0.00287978663
0.00621121005
-0.00296729043
0.00629637117
-0.00306553951
0.00639974593
-0.00316865195
-0.00326016839
0.00650136087
-1.6517372e-07
1.08269701e-06
-6.5031621e-07
3.18219408e-06
-1.45285326e-06
5.26376946e-06
-2.56694048e-06
7.30748433e-06
-3.98339736e-06
9.2991894e-06
-5.68959732e-06
1.12282372e-05
-7.66925689e-06
1.30875144e-05
-9.90215694e-06
1.48733333e-05
-1.23637814e-05
1.65851656e-05
-1.50248845e-05
1.82252029e-05
-1.7850969e-05
1.97977544e-05
-2.08016975e-05
2.13085475e-05
-2.38302077e-05
2.27638938e-05
-2.68823828e-05
2.4169792e-05
-2.98960807e-05
2.55309447e-05
-3.2800458e-05
2.6849818e-05
-3.55151609e-05
2.81254311e-05
-3.79511529e-05
2.93539277e-05
-4.00101914e-05
3.05261259e-05
-4.15839911e-05
3.16262393e-05
-4.25565233e-05
3.26337276e-05
-4.27907724e-05
3.35091222e-05
-4.21292401e-05
3.4208357e-05
-4.03900781e-05
3.46747657e-05
-3.73769922e-05
3.48363627e-05
-3.28742896e-05
3.46110322e-05
-2.66438578e-05
3.39020567e-05
-1.84339143e-05
3.26152787e-05
-7.97746405e-06
3.0631693e-05
5.01399382e-06
2.78066733e-05
2.0818505e-05
2.4046691e-05
3.98109412e-05
1.91214366e-05
6.21883245e-05
1.30627457e-05
8.85206401e-05
5.31867881e-06
0.000119260774
-4.15793439e-06
0.000154894669
-1.53864303e-05
0.00019596977
-2.89999633e-05
0.000243095206
-4.51716004e-05
0.000297054063
-6.41464894e-05
0.000358664368
-8.62587435e-05
0.000428384111
-0.000111880431
0.000507012452
-0.000141379018
0.000595424599
-0.000175137957
0.000694441688
-0.000213544741
0.000804882737
-0.000257004795
0.000927542524
-0.000305895613
0.00106314693
-0.000360582641
0.00121235756
-0.000421422446
0.00137574252
-0.000488739913
0.00155374199
-0.000562819418
0.00174678974
-0.0006440932
0.00195500843
-0.000732707392
0.00217796225
-0.00082866543
0.00241442721
-0.000931429387
0.00266226644
-0.00104016967
0.00291864989
-0.00115382432
0.00317988393
-0.00127086912
0.00344171345
-0.00138976548
0.00369915027
-0.00150856896
0.00394793413
-0.00162609027
0.00418207921
-0.0017389069
0.00440029796
-0.00184941764
0.00459313754
-0.001949097
0.00475665742
-0.00204179367
0.00489104689
-0.00212224024
0.00500743287
-0.00220120074
0.00511064749
-0.00228122872
0.00520759874
-0.00235372922
0.00529450314
-0.00242645754
0.00537636864
-0.00250225918
0.00545858873
-0.00257675429
0.00553812577
-0.00265023498
0.00561464316
-0.00272973725
0.0057018263
-0.00281337019
0.00579822067
-0.0028950701
0.00589648663
-0.00297804033
0.00599214556
-0.00306293885
0.00608201176
-0.00315539253
0.00617919135
-0.00326582259
-0.00336320055
0.00628222649
-1.40376342e-07
1.22288727e-06
-5.47029492e-07
3.58858169e-06
-1.21128645e-06
5.92771886e-06
-2.12146846e-06
8.21731887e-06
-3.26151181e-06
1.04388465e-05
-4.61193058e-06
1.25782302e-05
-6.14914087e-06
1.46242572e-05
-7.84508431e-06
1.65687642e-05
-9.66677952e-06
1.8406299e-05
-1.15757811e-05
2.01335886e-05
-1.35275728e-05
2.17488706e-05
-1.54708837e-05
2.32511174e-05
-1.7346957e-05
2.46391547e-05
-1.90896854e-05
2.59116287e-05
-2.06250436e-05
2.70653253e-05
-2.18705677e-05
2.80942753e-05
-2.27344888e-05
2.89881899e-05
-2.31175118e-05
2.97356797e-05
-2.28974518e-05
3.03046801e-05
-2.19356327e-05
3.06629137e-05
-2.00731082e-05
3.07695709e-05
-1.71370034e-05
3.05712509e-05
-1.29338012e-05
3.00032445e-05
-7.24895363e-06
2.89878557e-05
1.39191037e-07
2.74460037e-05
9.4694355e-06
2.52784158e-05
2.10046435e-05
2.23643209e-05
3.50328174e-05
1.85844186e-05
5.17613805e-05
1.39002815e-05
7.16044301e-05
7.96060478e-06
9.49602957e-05
6.87687617e-07
0.000122233509
-8.15501896e-06
0.000153881878
-1.85890207e-05
0.000190408227
-3.12112234e-05
0.000232351007
-4.61043732e-05
0.000280480916
-6.35200943e-05
0.000335264917
-8.37877813e-05
0.000397327484
-0.00010723803
0.000467387
-0.000134209871
0.000546182162
-0.000165057753
0.000634450297
-0.000200152317
0.000732933425
-0.000239865761
0.000842346818
-0.000284554753
0.000963366449
-0.000334567532
0.00109657493
-0.000390216111
0.00124244627
-0.000451769433
0.00140130468
-0.000519443112
0.00157329025
-0.000593409645
0.00175838699
-0.000673837806
0.00195636801
-0.000760801134
0.00216649587
-0.000854221307
0.00238732415
-0.000953535588
0.00261656376
-0.00105790471
0.00285134287
-0.00116620805
0.00308812745
-0.00127695375
0.00332298451
-0.00138868096
0.00355139876
-0.00149928304
0.00376920496
-0.00160757158
0.00397145768
-0.00171082182
0.00415597448
-0.00181060754
0.00431936761
-0.00190230081
0.00446068734
-0.00199073858
0.00457806047
-0.00206647158
0.00467505009
-0.00213878482
0.0047624983
-0.00220969041
0.00484585554
-0.00228455983
0.00492403592
-0.00235941059
0.00500172529
-0.00243141948
0.00507690598
-0.00250163811
0.00515028923
-0.00257564109
0.00522582538
-0.00265228765
0.00530598986
-0.002730395
0.00538605417
-0.00280979653
0.0054695963
-0.00289690659
0.00556541288
-0.00299087983
0.0056709641
-0.00308358439
0.00578396703
-0.00317593481
0.00590163122
-0.00327304942
0.00601565197
-0.00337984037
-0.0034816927
0.00613414334
-1.09331522e-07
1.33180625e-06
-4.17667956e-07
3.89633217e-06
-9.09021042e-07
6.41839677e-06
-1.56386175e-06
8.87140217e-06
-2.35912632e-06
1.1233277e-05
-3.26732439e-06
1.34855203e-05
-4.25651255e-06
1.56124639e-05
-5.28993907e-06
1.7601134e-05
-6.32569454e-06
1.94409198e-05
-7.31621141e-06
2.11228884e-05
-8.20778228e-06
2.26391374e-05
-8.94008672e-06
2.3982028e-05
-9.4458871e-06
2.51434682e-05
-9.64538939e-06
2.61095434e-05
-9.44802204e-06
2.68662637e-05
-8.75088313e-06
2.73953331e-05
-7.43677529e-06
2.76721611e-05
-5.36957943e-06
2.7666436e-05
-2.40204085e-06
2.73349648e-05
1.63108275e-06
2.66274724e-05
6.91555296e-06
2.5482635e-05
1.36466763e-05
2.38375096e-05
2.20361585e-05
2.16109866e-05
3.23179322e-05
1.87031428e-05
4.47523741e-05
1.50084498e-05
5.953278e-05
1.04947122e-05
7.703415e-05
4.85949777e-06
9.76043868e-05
-1.98942784e-06
0.000121616856
-1.01160091e-05
0.000149477031
-1.99036134e-05
0.000181664239
-3.15037589e-05
0.000218631431
-4.51266558e-05
0.000261069305
-6.10315437e-05
0.000309355711
-7.9502485e-05
0.000364080964
-0.000100834677
0.000425898539
-0.00012534292
0.000495461707
-0.000153356374
0.00057343642
-0.000185218314
0.000660495682
-0.000221274802
0.000757296705
-0.00026186452
0.000864451146
-0.000307312523
0.000982499332
-0.000357919708
0.00111188718
-0.000413948287
0.00125291904
-0.000475604985
0.00140572037
-0.000543022859
0.00157019275
-0.000616247049
0.00174598512
-0.000695240526
0.00193254978
-0.00077997905
0.00212893024
-0.000870222473
0.00233358806
-0.0009654626
0.00254418802
-0.0010648244
0.00275791274
-0.00116726306
0.00297153826
-0.00127153268
0.00318152018
-0.00137619226
0.00338407807
-0.00147951385
0.00357578741
-0.00158039251
0.00375307363
-0.00167657158
0.00391372085
-0.00176822127
0.00405544527
-0.001852549
0.00417789205
-0.00193305751
0.00428263558
-0.00200704748
0.0043694359
-0.00207754211
0.00444781256
-0.00214485224
0.00452121757
-0.00221219394
0.00459360245
-0.00228207941
0.00466389491
-0.00235485628
0.0047335555
-0.00242907467
0.00480503816
-0.00250290508
0.004879999
-0.00257660155
0.00495649052
-0.00265213414
0.00503655037
-0.00273234799
0.00512449657
-0.00281834103
0.00521997217
-0.00290527142
0.00531820943
-0.00299514254
0.00541774226
-0.00309041112
0.00552028444
-0.00318612468
0.00562705814
-0.0032827068
0.00573638392
-0.00338237408
0.0058403031
-0.00348376191
-0.0035852487
0.00594385373
-7.35827746e-08
1.40515896e-06
-2.68556316e-07
4.09097328e-06
-5.60426465e-07
6.70987952e-06
-9.21225723e-07
9.23176275e-06
-1.31963924e-06
1.16312027e-05
-1.71973924e-06
1.3885083e-05
-2.08097165e-06
1.59731081e-05
-2.35723002e-06
1.78767506e-05
-2.49635706e-06
1.9579347e-05
-2.43926043e-06
2.10650286e-05
-2.11886254e-06
2.2317908e-05
-1.45885523e-06
2.33211145e-05
-3.72570541e-07
2.40561962e-05
1.23619949e-06
2.44996982e-05
3.477112e-06
2.46241823e-05
6.47472946e-06
2.43964461e-05
1.03694682e-05
2.37760428e-05
1.53208288e-05
2.27135781e-05
2.14949445e-05
2.11592297e-05
2.90749189e-05
1.90457495e-05
3.82640266e-05
1.62916456e-05
4.92908261e-05
1.28086862e-05
6.23340283e-05
8.56561104e-06
7.7721968e-05
3.31289571e-06
9.57607995e-05
-3.03281903e-06
0.000116782021
-1.05291124e-05
0.000141148056
-1.95093099e-05
0.000169256165
-3.01004664e-05
0.000201635672
-4.24985968e-05
0.000238666462
-5.69376341e-05
0.000280825444
-7.36661119e-05
0.000328648559
-9.29532755e-05
0.000382700298
-0.000115086907
0.000443562069
-0.000140367989
0.000511836225
-0.000169112637
0.000588129914
-0.000201640461
0.000673036763
-0.000238267085
0.000767115797
-0.000279301199
0.000870870939
-0.000325033738
0.00098472831
-0.000375725606
0.00110900508
-0.000431592875
0.00124387185
-0.000492789915
0.0013893109
-0.000559390578
0.0015450719
-0.000631369009
0.00171063141
-0.000708585147
0.00188517221
-0.000790790426
0.00206764269
-0.000877713271
0.00225649871
-0.00096883699
0.0024495843
-0.00106330968
0.00264415128
-0.00116003097
0.00283724853
-0.00125792287
0.00302575403
-0.00135576973
0.00320665249
-0.0014524323
0.00337681569
-0.00154635671
0.003533908
-0.00163660754
0.00367672083
-0.00172320696
0.00380302104
-0.00180287371
0.00391347123
-0.00187867383
0.00401016155
-0.00194924182
0.00409411478
-0.00201701355
0.00417004323
-0.00208297965
0.0042410476
-0.00214855067
0.00431173374
-0.00221554279
0.0043819583
-0.0022824226
0.00445027891
-0.00235040433
0.00451770855
-0.00242228999
0.00458524943
-0.00249661882
0.00465539679
-0.00257305569
0.00472780873
-0.00264901676
0.00480288618
-0.00272721425
0.0048788873
-0.00280835135
0.00495406477
-0.00289352075
0.00502996431
-0.00298117325
0.0051056354
-0.00307081587
0.00518058272
-0.00316536108
0.0052584376
-0.00326398224
0.00534051506
-0.00336478723
0.00542432503
-0.003466188
0.00550957151
-0.00356901451
-0.00367374754
0.00559806371
-3.28401063e-08
1.43752343e-06
-9.91749999e-08
4.15663081e-06
-1.65231908e-07
6.77515509e-06
-1.93485331e-07
9.25914022e-06
-1.42191384e-07
1.15789448e-05
3.45909818e-08
1.37072511e-05
3.8815054e-07
1.56184149e-05
9.75854645e-07
1.7287828e-05
1.86205284e-06
1.86918414e-05
3.11935656e-06
1.98063251e-05
4.82957159e-06
2.0606197e-05
7.08560638e-06
2.10634802e-05
9.9930116e-06
2.11470808e-05
1.36663393e-05
2.08245456e-05
1.82330622e-05
2.00555147e-05
2.38348639e-05
1.87925732e-05
3.06285005e-05
1.69802028e-05
3.87861472e-05
1.45535905e-05
4.85073018e-05
1.14355883e-05
5.99579058e-05
7.59250258e-06
7.34079661e-05
2.83880291e-06
8.91301309e-05
-2.9164022e-06
0.00010741111
-9.71847207e-06
0.000128567494
-1.78467828e-05
0.000152944294
-2.74130959e-05
0.000181004493
-3.85929778e-05
0.000213082751
-5.15914255e-05
0.000249606637
-6.66284088e-05
0.000291047645
-8.39438601e-05
0.000337902514
-0.000103796966
0.000390691197
-0.000126459461
0.000449950792
-0.000152217729
0.000516224429
-0.000181365577
0.000590047609
-0.000214196369
0.000671930541
-0.000251000919
0.000762343095
-0.000292058503
0.000861697176
-0.000337626768
0.000970319603
-0.00038792933
0.00108842151
-0.000443141422
0.00121606372
-0.00050337364
0.00135311964
-0.000568654646
0.00149923718
-0.000638913308
0.00165380271
-0.000713961921
0.00181591118
-0.000793483307
0.00198436249
-0.000877042277
0.00215773818
-0.00096417172
0.00233421122
-0.00105419147
0.00251141983
-0.00114605039
0.00268672488
-0.00123861921
0.00285739363
-0.00133070397
0.00302094735
-0.00142148069
0.00317503166
-0.00150985809
0.00331824846
-0.00159565323
0.00344896311
-0.00167707557
0.00356519105
-0.00175283966
0.0036662562
-0.00182427639
0.00375461939
-0.00189124099
0.00383230773
-0.00195636643
0.00390381275
-0.00202075209
0.00397048874
-0.00208369524
0.00403293606
-0.00214543276
0.00409230477
-0.00220792531
0.00414875389
-0.00227199905
0.00420391148
-0.00233758914
0.00425896191
-0.00240546238
0.00431516561
-0.00247849901
0.00437147647
-0.00255293446
0.00442801868
-0.0026296032
0.00448671142
-0.00270771482
0.00454815674
-0.00278866442
0.00461100306
-0.00287120279
0.00467439664
-0.00295691889
0.00473862823
-0.00304540936
0.00480441051
-0.00313660364
0.00487191578
-0.00323287319
0.00494258165
-0.00333465514
0.00501783876
-0.00344005197
0.00509746244
-0.00354582139
0.00517954046
-0.00365110487
-0.0037541166
0.00525989965
1.119716e-08
1.4259978e-06
8.52107076e-08
4.08214286e-06
2.66872796e-07
6.59294056e-06
6.04626274e-07
8.92076231e-06
1.15131446e-06
1.1031564e-05
1.96485923e-06
1.28929465e-05
3.10902262e-06
1.4473423e-05
4.65406217e-06
1.57418876e-05
6.67798602e-06
1.66669404e-05
9.2667029e-06
1.72165489e-05
1.25162981e-05
1.73554529e-05
1.65332232e-05
1.70453092e-05
2.14356406e-05
1.6243314e-05
2.73578011e-05
1.49009244e-05
3.44462968e-05
1.29654396e-05
4.28674588e-05
1.03697041e-05
5.28062024e-05
7.03961576e-06
6.44208665e-05
2.93695036e-06
7.79756083e-05
-2.12126406e-06
9.37191654e-05
-8.15332709e-06
0.00011192021
-1.53646882e-05
0.000132874886
-2.38736965e-05
0.000156977944
-3.38243254e-05
0.000184524455
-4.53962703e-05
0.000215889826
-5.87816281e-05
0.000251484436
-7.41909365e-05
0.00029174355
-9.18540774e-05
0.000337124629
-0.000112013215
0.000388102175
-0.000134925312
0.000445159028
-0.00016085789
0.000508775979
-0.000190080633
0.000579418557
-0.000222864667
0.000657523638
-0.000259475138
0.000743485699
-0.000300163014
0.000837634928
-0.000345154809
0.000940212264
-0.000394640561
0.00105134079
-0.000448760041
0.00117099442
-0.000507587716
0.00129896523
-0.000571116966
0.00143483107
-0.000639244178
0.00157792613
-0.000711754322
0.00172731749
-0.000788309206
0.00188179173
-0.000868440618
0.00203985939
-0.000951555387
0.00219985111
-0.00103703822
0.00235985155
-0.00112417609
0.00251761284
-0.00121195642
0.00267084473
-0.00129928576
0.0028172984
-0.00138507621
0.00295486819
-0.00146827706
0.00308169878
-0.00154831462
0.00319640589
-0.00162456864
0.00329766183
-0.00169691276
0.00338398759
-0.00176340478
0.00345796673
-0.00182682258
0.0035226603
-0.00188897465
0.00358271939
-0.00195130519
0.00363896664
-0.00201261919
0.00369190984
-0.00207370178
0.00374343376
-0.00213522669
0.00379493728
-0.0021969443
0.00384573138
-0.00225872769
0.00389611459
-0.00232239009
0.00394693426
-0.00238841642
0.00399829231
-0.00245682773
0.00404953873
-0.00252975184
0.00410130241
-0.00260470444
0.00415430356
-0.00268261061
0.00421095002
-0.00276436774
0.00427026812
-0.00284798865
0.00433155944
-0.00293249961
0.00439369503
-0.00301906057
0.00445737117
-0.00310909288
0.00452384474
-0.00320308496
0.00459329071
-0.00330232748
0.00466523403
-0.0034066069
0.00474049035
-0.00351531754
0.00481937009
-0.0036247122
0.00490130864
-0.00373305655
-0.00383306187
0.00498024271
5.99717254e-08
1.3654596e-06
2.88073533e-07
3.85323363e-06
7.40213319e-07
6.13986889e-06
1.47614332e-06
8.1837868e-06
2.56024001e-06
9.94631611e-06
4.06231008e-06
1.13896232e-05
6.05851194e-06
1.24758661e-05
8.632358e-06
1.31665836e-05
1.18755084e-05
1.34222253e-05
1.58898869e-05
1.32004917e-05
2.07883913e-05
1.24551493e-05
2.66960095e-05
1.11357656e-05
3.37521198e-05
9.18514605e-06
4.21120515e-05
6.53879311e-06
5.19172829e-05
3.15785652e-06
6.3379809e-05
-1.09531743e-06
7.67073904e-05
-6.29060702e-06
9.21293341e-05
-1.2487815e-05
0.000109898576
-1.98935201e-05
0.000130341018
-2.85989733e-05
0.00015372345
-3.87505208e-05
0.000180361612
-5.05154659e-05
0.000210611085
-6.40776182e-05
0.000244847901
-7.96371291e-05
0.000283470244
-9.74082452e-05
0.000326893254
-0.000117618455
0.000375543021
-0.000140508577
0.000429848363
-0.000166323516
0.000490230809
-0.00019531294
0.000557092794
-0.000227725278
0.000630807672
-0.000263801127
0.000711702152
-0.000303764972
0.000800036146
-0.000347815152
0.00089597942
-0.000396112497
0.000999585522
-0.000448767288
0.00111076382
-0.000505825397
0.00122925104
-0.000567253929
0.00135458361
-0.000632927082
0.00148607338
-0.000702613629
0.00162278942
-0.000775967196
0.00176354911
-0.000852521046
0.00190692248
-0.000931689692
0.00205125392
-0.00101277929
0.00219471635
-0.001095025
0.00233540857
-0.00117773736
0.00247126862
-0.00126004277
0.00260039105
-0.00134108525
0.0027211521
-0.00142005304
0.00283214854
-0.00149607883
0.00293247005
-0.00156860491
0.00302076598
-0.00163661661
0.0030978607
-0.00170166865
0.00316298128
-0.0017620389
0.00321982786
-0.00182025792
0.00327222669
-0.00187922894
0.00332238979
-0.00193914644
0.00337050875
-0.00199943352
0.00341766908
-0.00205978971
0.00346422038
-0.00212026303
0.00351014099
-0.00218115671
0.00355653964
-0.00224335248
0.00360394993
-0.0023061474
0.00365283085
-0.00237128039
0.00370358168
-0.00243917688
0.00375697078
-0.00251022549
0.00381197986
-0.00258476805
0.00386977958
-0.00266251126
0.00392915613
-0.00274199449
0.00398680041
-0.00282201973
0.00404463364
-0.00290583016
0.00410518837
-0.00299306284
0.00416821905
-0.00308209992
0.00423318146
-0.00317406453
0.00430028842
-0.00327020165
0.0043686571
-0.00337070634
0.00443914865
-0.00347710845
0.00450992793
-0.00358610716
0.00458007497
-0.00369486866
0.0046513234
-0.00380431725
-0.00390310664
0.00472135021
1.14096227e-07
1.25090525e-06
5.11872488e-07
3.45479865e-06
1.26043054e-06
5.39054591e-06
2.43101198e-06
7.01234242e-06
4.09993756e-06
8.27643507e-06
6.34951702e-06
9.13899802e-06
9.26884251e-06
9.55540353e-06
1.29556084e-05
9.4785841e-06
1.75169447e-05
8.85955217e-06
2.3071458e-05
7.6445319e-06
2.97491142e-05
5.77592813e-06
3.76786453e-05
3.20454081e-06
4.702974e-05
-1.67771862e-07
5.7976468e-05
-4.40989507e-06
7.07137465e-05
-9.58154113e-06
8.54539794e-05
-1.58378403e-05
0.00010242859
-2.32676829e-05
0.00012193553
-3.19974077e-05
0.000144208325
-4.21691635e-05
0.000169545032
-5.39387361e-05
0.000198269317
-6.74780783e-05
0.000230725064
-8.29747127e-05
0.000267271881
-0.000100628169
0.000308281991
-0.000120651207
0.000354134514
-0.00014326497
0.000405207819
-0.000168696198
0.000461869108
-0.000197174536
0.000524467807
-0.000228927119
0.00059332178
-0.00026417204
0.000668701536
-0.000303110382
0.000750811599
-0.000345916743
0.000839769409
-0.000392728531
0.000935582321
-0.000443633989
0.00103812325
-0.000498659515
0.00114710645
-0.000557756708
0.00126206455
-0.000620789845
0.00138232944
-0.000687525256
0.00150701905
-0.000757623213
0.00163503343
-0.000830634575
0.00176506267
-0.000906003028
0.00189561026
-0.000983075257
0.00202503362
-0.00106111972
0.00215160522
-0.0011393576
0.00227359189
-0.00121701826
0.00238928426
-0.00129343606
0.00249714715
-0.00136791179
0.00259602695
-0.00143997103
0.00268525394
-0.00150928597
0.00276463875
-0.00157546957
0.0028349848
-0.00163895663
0.00289663138
-0.00169826816
0.00295120408
-0.00175624679
0.00300166301
-0.0018125043
0.003050996
-0.00186959781
0.00309920403
-0.0019274443
0.00314635719
-0.00198630736
0.00319319136
-0.00204627587
0.00323989688
-0.0021065038
0.00328683762
-0.00216721281
0.00333484854
-0.00222917692
0.00338413106
-0.00229264413
0.00343406345
-0.00235608829
0.00348371255
-0.00242093709
0.00353270458
-0.00248817609
0.00358219732
-0.00255972614
0.00363169983
-0.0026342782
0.00368049943
-0.00271131794
0.00372865961
-0.0027901643
0.00377798749
-0.00287135913
0.00383056962
-0.00295842188
0.00388550919
-0.00304801046
0.00394349833
-0.0031400979
0.00400363054
-0.00323420698
0.00406424277
-0.00333082424
0.00412283674
-0.00342931119
0.00417608128
-0.00353036625
0.00422374793
-0.00363378757
0.00427512435
-0.00374626023
0.00433389151
-0.00386310733
-0.00397013842
0.00440090236
1.73817198e-07
1.07641732e-06
7.57372248e-07
2.87028867e-06
1.82853064e-06
4.3182858e-06
3.46983897e-06
5.36979786e-06
5.76953878e-06
5.97537422e-06
8.82216179e-06
6.08489319e-06
1.2730748e-05
5.64521326e-06
1.76077453e-05
4.59985622e-06
2.35720862e-05
2.89334865e-06
3.07526963e-05
4.61925294e-07
3.93047225e-05
-2.7782354e-06
4.93878618e-05
-6.88089374e-06
6.11785723e-05
-1.19609456e-05
7.48696645e-05
-1.81036257e-05
9.07023095e-05
-2.541701e-05
0.000108883245
-3.40217965e-05
0.000129663275
-4.40509394e-05
0.000153313581
-5.565116e-05
0.000180124185
-6.89834449e-05
0.000210403181
-8.42216529e-05
0.000244472391
-0.00010155146
0.000282663216
-0.000121169962
0.000325311028
-0.000143280665
0.000372747817
-0.000168092946
0.000425295506
-0.000195817881
0.000483257121
-0.00022666331
0.000546904409
-0.000260827595
0.000616463406
-0.000298492168
0.00069209776
-0.00033981272
0.000773890092
-0.000384909313
0.00086182203
-0.000433855545
0.000955753308
-0.000486666934
0.00105540142
-0.000543289466
0.0011603229
-0.000603588606
0.00126989842
-0.000667340047
0.00138332382
-0.000734223274
0.00149960967
-0.000803819328
0.00161759241
-0.00087561434
0.00173595921
-0.000949009917
0.00185328803
-0.00102334054
0.0019681057
-0.00109790175
0.00207895499
-0.00117197799
0.00218447849
-0.0012448902
0.00228348597
-0.00131603479
0.002375033
-0.00138499195
0.00245844225
-0.00145132989
0.00253363929
-0.00151517701
0.00260059936
-0.00157625411
0.00266099015
-0.00163586716
0.00271574141
-0.00169371518
0.00276764912
-0.00175018427
0.00281673224
-0.00180533859
0.00286464371
-0.00186042466
0.00291080926
-0.0019157725
0.00295457319
-0.0019712176
0.00299586317
-0.00202760698
0.00303501806
-0.00208544068
0.0030731397
-0.00214463558
0.00311079592
-0.00220487915
0.00314751658
-0.00226590816
0.00318274286
-0.00232788242
0.00321846841
-0.00239182686