/*--------------------------------*- C++ -*----------------------------------*\
  =========                 |
  \\      /  F ield         | OpenFOAM: The Open Source CFD Toolbox
   \\    /   O peration     | Website:  https://openfoam.org
    \\  /    A nd           | Version:  8
     \\/     M anipulation  |
\*---------------------------------------------------------------------------*/
FoamFile
{
    version     2.0;
    format      ascii;
    class       volScalarField;
    location    "0.004";
    object      T;
}
// * * * * * * * * * * * * * * * * * * * * * * * * * * * * * * * * * * * * * //

dimensions      [0 0 0 1 0 0 0];

internalField   nonuniform List<scalar> 
42400
(
471.740854
469.196894
466.590721
463.92429
461.199929
458.420357
455.588691
452.708453
449.783575
446.818401
443.817689
440.786601
437.730701
434.655948
431.56868
428.475606
425.383798
422.300672
419.233985
416.191819
413.182581
410.214986
407.298054
404.441093
401.653694
398.945709
396.32722
393.808493
391.399914
389.111902
386.954823
384.938835
383.073745
381.368782
379.832297
378.471544
377.29236
376.298817
375.493053
374.874911
374.44174
374.188016
374.105154
374.180394
374.40074
374.7468
375.197011
375.722921
376.296373
376.895169
377.52441
377.961646
378.136644
378.030098
377.452001
376.686587
375.694461
374.406861
372.734139
370.542219
367.763613
364.357274
360.335416
355.751887
350.66179
345.205476
339.586922
333.819265
328.073566
322.783325
317.912948
313.397443
309.495787
306.389898
304.059908
302.390111
301.255409
300.545262
300.134926
299.998731
471.778644
469.311389
466.784544
464.200562
461.562304
458.873056
456.136538
453.356907
450.53876
447.687134
444.807501
441.905755
438.988201
436.061538
433.132832
430.209499
427.299269
424.410162
421.550455
418.728649
415.953442
413.233693
410.578391
407.99662
405.497523
403.090253
400.783931
398.587598
396.510142
394.560195
392.745986
391.07515
389.554544
388.189944
386.985776
385.944847
385.067991
384.353673
383.797732
383.393361
383.130528
382.995044
382.968645
383.025292
383.147649
383.312202
383.510177
383.572453
383.476897
383.128982
382.446954
381.596771
380.558425
379.273849
377.677917
375.649038
373.142365
370.123891
366.549302
362.414727
357.764346
352.672371
347.238536
341.605234
335.899434
330.260039
324.897942
319.944415
315.413788
311.462762
308.195723
305.598084
303.612062
302.156684
301.156897
300.532108
300.189535
300.009595
299.931193
299.881532
471.820991
469.439681
467.001694
464.510009
461.968041
459.379657
456.749176
454.081376
451.381492
448.655205
445.908634
443.148318
440.381191
437.614555
434.856045
432.113592
429.395376
426.709785
424.065355
421.470724
418.934567
416.465542
414.072226
411.763055
409.546265
407.429809
405.421271
403.527753
401.755742
400.110932
398.598014
397.220471
395.980355
394.877989
393.911676
393.077365
392.368643
391.775725
391.28514
390.88094
390.544823
390.25655
389.997504
389.663539
389.214335
388.599439
387.751378
386.78464
385.657056
384.31884
382.714363
380.752274
378.388964
375.596547
372.354629
368.652891
364.479716
359.842138
354.804953
349.459499
343.912553
338.288833
332.714244
327.336656
322.292181
317.674992
313.575557
310.075678
307.186508
304.892915
303.148313
301.892831
301.041305
300.507897
300.174313
299.993952
299.905027
299.873757
299.864293
299.861744
471.865943
469.575851
467.232143
464.838319
462.39833
459.916583
457.397946
454.847741
452.271736
449.676132
447.06754
444.452954
441.839718
439.23548
436.648149
434.085837
431.556796
429.069352
426.631832
424.252486
421.939408
419.700449
417.54313
415.474536
413.5012
411.62896
409.862807
408.206722
406.663493
405.234514
403.91955
402.716516
401.621317
400.627585
399.726411
398.906547
398.15518
397.457603
396.766449
396.045965
395.262678
394.37866
393.351975
392.234096
390.984681
389.561628
387.915811
385.973534
383.697428
381.059849
378.039646
374.626525
370.819896
366.627168
362.064068
357.131828
351.903513
346.472746
340.946243
335.4408
330.075595
324.965095
320.222523
315.937523
312.180321
308.988712
306.375247
304.317636
302.764624
301.654553
300.901645
300.421476
300.110245
299.947141
299.895904
299.881426
299.873109
299.866455
299.86207
299.861147
471.911008
469.712353
467.46312
465.167292
462.829297
460.45401
458.046739
455.613223
453.159604
450.692408
448.21851
445.745092
443.279596
440.829667
438.403083
436.007691
433.65132
431.341697
429.086359
426.892545
424.767084
422.716267
420.745712
418.860215
417.063585
415.358482
413.746238
412.22667
410.797893
409.456241
408.196002
407.009349
405.886407
404.806728
403.747279
402.684466
401.591578
400.438678
399.228545
397.945369
396.557352
395.029546
393.320158
391.370907
389.151183
386.632781
383.792192
380.613268
377.087819
373.216848
369.011246
364.49216
359.686383
354.61266
349.322315
343.907544
338.471801
333.121945
327.967136
323.105774
318.635379
314.624549
311.141562
308.204515
305.811081
303.933322
302.525492
301.517893
300.830789
300.385185
300.117983
299.955464
299.911437
299.890887
299.883111
299.877764
299.871871
299.864931
299.858836
299.853105
471.953238
469.840258
467.679514
465.475401
463.232729
460.956716
458.65297
456.327466
453.986512
451.636714
449.284928
446.938205
444.603724
442.288727
440.00043
437.745935
435.532125
433.365554
431.252325
429.197952
427.207214
425.284006
423.431177
421.650363
419.941815
418.304224
416.734612
415.228122
413.776891
412.369335
410.991315
409.626221
408.255217
406.866904
405.448899
403.978752
402.431097
400.776744
398.980356
397.000294
394.807069
392.373457
389.674911
386.691384
383.408279
379.81769
375.919462
371.721937
367.242864
362.510038
357.56082
352.43781
347.166901
341.828043
336.518588
331.337799
326.386942
321.755162
317.526023
313.754493
310.490798
307.748466
305.526777
303.787975
302.476562
301.528709
300.876688
300.450334
300.188003
300.031824
299.949199
299.918521
299.900153
299.88633
299.875088
299.866038
299.855437
299.84747
299.841936
299.838828
471.98953
469.950169
467.865426
465.739997
463.578946
461.387681
459.171928
456.937688
454.691199
452.43888
450.187266
447.94294
445.712448
443.502208
441.318407
439.16689
437.053035
434.981619
432.956673
430.981335
429.057687
427.186603
425.367575
423.598588
421.875928
420.193436
418.542676
416.913331
415.294533
413.675116
412.04041
410.373163
408.653194
406.856675
404.952725
402.915251
400.716582
398.330461
395.732883
392.902112
389.81968
386.471465
382.848798
378.949495
374.778795
370.350096
365.685415
360.815825
355.7819
350.633401
345.425202
340.195049
335.030635
330.024256
325.266932
320.839316
316.814938
313.243189
310.160293
307.572843
305.469912
303.817785
302.564824
301.648152
301.001402
300.564369
300.280571
300.106247
300.002363
299.945424
299.913834
299.889133
299.867637
299.851202
299.84018
299.833329
299.831599
299.831566
299.831414
299.831422
472.017162
470.033836
468.006891
465.941188
463.84188
461.714383
459.564328
457.397511
455.219832
453.037228
450.855588
448.680675
446.518014
444.372795
442.249742
440.152997
438.085977
436.051237
434.050321
432.083615
430.15021
428.247753
426.372272
424.518083
422.677601
420.841916
419.000464
417.140266
415.245598
413.297103
411.27538
409.159305
406.926289
404.552469
402.014725
399.291927
396.364463
393.215111
389.829949
386.199305
382.318716
378.189853
373.82137
369.229614
364.439115
359.482794
354.402104
349.247156
344.075878
338.95214
333.92666
329.078588
324.489279
320.233875
316.374781
312.9538
309.998839
307.514018
305.485639
303.881764
302.652917
301.741017
301.086914
300.631359
300.324996
300.128701
299.997862
299.923479
299.884288
299.862212
299.846684
299.837754
299.835383
299.833839
299.832494
299.831795
299.831596
299.831869
299.832712
299.833321
472.033303
470.082686
468.089412
466.058338
463.994523
461.903183
459.789625
457.659182
455.517141
453.368652
451.218638
449.071767
446.932242
444.803724
442.689203
440.590857
438.509902
436.446419
434.399164
432.36557
430.341762
428.322274
426.30005
424.266078
422.2096
420.118038
417.977025
415.770472
413.480715
411.088742
408.574388
405.917287
403.09881
400.10124
396.908482
393.50682
389.885737
386.038757
381.964307
377.666544
373.156132
368.450903
363.57637
358.565983
353.461
348.310235
343.169813
338.102146
333.173478
328.447426
323.98402
319.850786
316.102701
312.779924
309.902741
307.472579
305.478924
303.890333
302.663069
301.745084
301.080761
300.615271
300.301264
300.092337
299.964672
299.892767
299.86984
299.85913
299.851454
299.844772
299.839938
299.837025
299.834723
299.833373
299.832497
299.832586
299.83267
299.833788
299.83606
299.838341
472.035297
470.088682
468.099401
466.072144
464.011712
461.922949
459.810673
457.679589
455.534206
453.378736
451.216985
449.05231
446.887314
444.723793
442.562576
440.403359
438.244709
436.084337
433.918704
431.742861
429.55019
427.332486
425.079946
422.781165
420.423195
417.991627
415.470752
412.843724
410.092692
407.20128
404.15356
400.934579
397.530979
393.931689
390.128659
386.117632
381.898923
377.47819
372.867149
368.084206
363.154936
358.112365
352.996951
347.856153
342.743434
337.717489
332.840846
328.177512
323.78954
319.73248
316.049966
312.779685
309.942303
307.539721
305.558208
303.969349
302.733517
301.801981
301.122705
300.644603
300.320683
300.11071
299.979752
299.916912
299.892093
299.876384
299.863938
299.856063
299.849318
299.842574
299.838419
299.835379
299.833561
299.833553
299.833451
299.8333
299.833985
299.834822
299.83838
299.841064
472.022794
470.050801
468.035222
465.980443
463.890842
461.770712
459.624171
457.455065
455.266861
453.062534
450.844439
448.614179
446.372455
444.118973
441.852888
439.572361
437.274391
434.954401
432.60645
430.223202
427.79591
425.314424
422.767238
420.141581
417.423551
414.598243
411.650886
408.567319
405.333825
401.937635
398.367492
394.614285
390.671714
386.537012
382.21167
377.702164
373.020639
368.185516
363.221965
358.16218
353.045382
347.917464
342.830191
337.839834
333.005154
328.385712
324.03914
320.01832
316.368281
313.122377
310.298967
307.898833
305.908757
304.300859
303.036269
302.07003
301.354117
300.840169
300.482974
300.243612
300.088294
299.99311
299.939297
299.906585
299.882358
299.861854
299.84826
299.839204
299.83353
299.830975
299.82976
299.830459
299.831674
299.832929
299.833288
299.833733
299.833543
299.833196
299.834307
299.838029
471.995347
469.967685
467.894557
465.7799
463.627515
461.440977
459.223534
456.977996
454.706622
452.41099
450.091859
447.749509
445.383468
442.992401
440.573548
438.122989
435.635597
433.104997
430.523555
427.882388
425.17141
422.379421
419.49422
416.502749
413.39261
410.151429
406.76726
403.229033
399.527077
395.65369
391.60377
387.375477
382.970927
378.396881
373.665409
368.79448
363.808434
358.738262
353.621625
348.502544
343.430649
338.459951
333.647063
329.048891
324.719792
320.709038
317.057558
313.795938
310.942317
308.500481
306.46065
304.796483
303.469261
302.436609
301.653319
301.074587
300.65896
300.368377
300.171378
300.042653
299.952941
299.900932
299.869677
299.849426
299.836171
299.8333
299.831914
299.830981
299.830321
299.829916
299.829769
299.830742
299.832154
299.833723
299.835497
299.836255
299.835165
299.833038
299.8322
299.834339
471.953718
469.84165
467.681355
465.476214
463.229347
460.94351
458.620988
456.263473
453.872155
451.447663
448.98997
446.49793
443.969396
441.40119
438.789049
436.127586
433.410275
430.629465
427.776416
424.841374
421.813672
418.682217
415.43612
412.064497
408.556823
404.903348
401.095569
397.126759
392.992554
388.691575
384.226086
379.602655
374.832797
369.933557
364.927975
359.845387
354.721467
349.59796
344.522009
339.545031
334.721078
330.104733
325.748488
321.700001
317.999067
314.675609
311.746585
309.216644
307.076687
305.306183
303.874398
302.743171
301.870597
301.214858
300.735955
300.396944
300.165153
300.01057
299.91628
299.862681
299.850783
299.844815
299.839437
299.835637
299.833629
299.832719
299.831297
299.831133
299.830543
299.830391
299.830538
299.831793
299.833439
299.834831
299.836892
299.838029
299.836883
299.834206
299.831245
299.831872
471.899532
469.677625
467.403984
465.081376
462.712189
460.298382
457.841463
455.342414
452.801458
450.217976
447.590492
444.916601
442.192919
439.415045
436.577542
433.673941
430.696772
427.637628
424.487248
421.236092
417.874555
414.392985
410.781994
407.032843
403.137864
399.090957
394.888132
390.528094
386.012869
381.348441
376.545376
371.619398
366.591868
361.490102
356.347461
351.203144
346.101603
341.091525
336.224379
331.552519
327.126816
322.994294
319.195017
315.759941
312.708968
310.050466
307.779246
305.879681
304.325529
303.084095
302.117855
301.386618
300.850216
300.470054
300.210998
300.042219
299.938186
299.885103
299.860272
299.850479
299.843565
299.839136
299.836718
299.834435
299.832668
299.831588
299.831508
299.831404
299.830912
299.83053
299.829385
299.828903
299.828424
299.828967
299.831264
299.834398
299.836101
299.83612
299.834526
299.835933
471.834809
469.481735
467.07284
464.610302
462.095901
459.530913
456.915986
454.251081
451.535399
448.767317
445.944323
443.062986
440.11892
437.106792
434.02033
430.852383
427.594984
424.239858
420.778518
417.202358
413.502928
409.672274
405.703336
401.590393
397.329576
392.919414
388.361432
383.660766
378.826772
373.873604
368.82071
363.693185
358.521926
353.343516
348.199755
343.136795
338.203831
333.45137
328.929171
324.683927
320.756537
317.180843
313.980181
311.165816
308.738406
306.688088
304.993919
303.626621
302.551157
301.728252
301.117009
300.67749
300.372162
300.167698
300.035998
299.954544
299.90566
299.875408
299.854
299.839926
299.831593
299.826962
299.825508
299.826418
299.828657
299.830704
299.831292
299.830675
299.829326
299.827863
299.826888
299.825989
299.825565
299.824407
299.82462
299.826755
299.830124
299.833492
299.83574
299.840604
471.761593
469.260183
466.698452
464.078003
461.399943
458.664793
455.872418
453.021952
450.111738
447.13928
444.101214
440.993287
437.810373
434.546498
431.19491
427.748413
424.199538
420.540607
416.763978
412.862351
408.829126
404.658814
400.347509
395.893404
391.297359
386.563492
381.699773
376.71861
371.637351
366.478694
361.270906
356.047818
350.8485
345.716577
340.69913
335.845172
331.203737
326.821693
322.741512
318.998976
315.620045
312.620684
310.005637
307.772164
305.904338
304.377658
303.159611
302.211675
301.492941
300.962758
300.582531
300.317358
300.13729
300.018181
299.941098
299.892069
299.860561
299.841829
299.834875
299.831027
299.827566
299.825846
299.825423
299.826123
299.828211
299.830002
299.83112
299.830793
299.829126
299.827996
299.827537
299.827283
299.827547
299.82584
299.824254
299.823688
299.825398
299.828389
299.830972
299.834857
471.681736
469.018561
466.290207
463.497701
460.641522
457.721517
454.736837
451.685884
448.566264
445.374765
442.107348
438.759168
435.324615
431.797493
428.17129
424.439197
420.594318
416.62994
412.539855
408.318734
403.962555
399.469095
394.838452
390.073616
385.181046
380.17124
375.059265
369.86519
364.614383
359.337608
354.070856
348.854861
343.734246
338.756259
333.969134
329.420076
325.153066
321.206697
317.612283
314.391594
311.55609
309.107047
307.033867
305.315878
303.923043
302.819093
301.964279
301.318016
300.841197
300.498048
300.257371
300.093244
299.98471
299.915464
299.87325
299.849406
299.840205
299.835726
299.833002
299.830398
299.828032
299.82616
299.825803
299.825053
299.825364
299.826014
299.827156
299.828225
299.827997
299.827857
299.827998
299.828547
299.830656
299.831256
299.827419
299.82411
299.823408
299.825981
299.828453
299.830193
471.59688
468.761831
465.85649
462.881334
459.836247
456.720459
453.532486
450.270098
446.930296
443.509309
440.002625
436.405036
432.71096
428.914442
425.009327
420.989491
416.849121
412.583054
408.187168
403.658827
398.997376
394.204671
389.285636
384.248825
379.106947
373.87734
368.582322
363.24939
357.911195
352.605258
347.373353
342.260553
337.313889
332.580643
328.106355
323.932432
320.094147
316.618842
313.525065
310.819909
308.49892
306.546177
304.935931
303.635065
302.606139
301.810155
301.208606
300.764342
300.445017
300.222131
300.071438
299.973138
299.911818
299.8756
299.855559
299.844852
299.838367
299.83308
299.828175
299.826635
299.827015
299.827185
299.826818
299.825479
299.823865
299.822402
299.821439
299.82149
299.82267
299.823394
299.824294
299.826425
299.830374
299.833757
299.834206
299.829996
299.827456
299.828504
299.834359
299.837845
471.508476
468.494377
465.404694
462.239374
458.99775
455.678489
452.279563
448.798222
445.231009
441.573784
437.821837
433.970101
430.013206
425.945674
421.762169
417.457788
413.02841
408.471105
403.78458
398.969677
394.0299
388.971952
383.806265
378.547491
373.214904
367.832685
362.430028
357.041009
351.704187
346.461874
341.359065
336.442025
331.756552
327.345996
323.24918
319.49758
316.114596
313.112358
310.494053
308.250992
306.363604
304.804848
303.542518
302.541075
301.763789
301.174427
300.738414
300.425656
300.208053
300.061572
299.966641
299.907301
299.871496
299.850327
299.837614
299.829702
299.825177
299.822812
299.822583
299.821727
299.821537
299.821778
299.822331
299.822385
299.821622
299.820355
299.818928
299.817232
299.81633
299.816581
299.817108
299.818467
299.821938
299.829352
299.837344
299.83989
299.840268
299.841466
299.84902
299.861803
471.417653
468.219615
464.940599
461.580051
458.136805
454.609055
450.994337
447.289539
443.490937
439.59433
435.59519
431.488769
427.270299
422.935249
418.479623
413.900317
409.195519
404.36516
399.411399
394.339133
389.156512
383.875434
378.511996
373.086845
367.6254
362.157873
356.719058
351.347807
346.086181
340.978242
336.068539
331.400359
327.013779
322.943819
319.217976
315.857531
312.873732
310.269982
308.037675
306.159065
304.609303
303.358158
302.371289
301.612218
301.043937
300.630622
300.339202
300.140349
300.009517
299.926817
299.876838
299.847475
299.832424
299.825103
299.821831
299.820696
299.82131
299.822469
299.822866
299.822222
299.821348
299.821198
299.821253
299.820766
299.819632
299.818035
299.816258
299.814305
299.812524
299.809704
299.808635
299.810051
299.814503
299.824381
299.834719
299.845741
299.853229
299.860127
299.865547
299.86964
472.120118
470.344188
468.528372
466.676311
464.791788
462.878699
460.941028
458.98282
457.008148
455.021085
453.025673
451.025892
449.025631
447.028658
445.038594
443.058891
441.0928
439.143363
437.213385
435.30543
433.421802
431.564545
429.735434
427.93598
426.16743
424.430773
422.726752
421.055872
419.418414
417.814452
416.243865
414.706356
413.201466
411.728592
410.286997
408.875825
407.494106
406.140763
404.814608
403.514335
402.238505
400.985526
399.753617
398.540743
397.34454
396.162197
394.990317
393.824742
392.660236
391.490139
390.305951
389.096748
387.848574
386.543748
385.160026
383.669821
382.039623
380.229847
378.19548
375.887954
373.258729
370.264914
366.87689
363.087746
358.92331
354.450296
349.779572
345.061235
340.48577
336.244261
332.507498
329.399904
326.978499
325.226157
324.061485
323.361869
322.995606
322.84785
322.832268
322.877997
472.11562
470.330549
468.505263
466.643337
464.748479
462.824511
460.875338
458.904919
456.917241
454.916287
452.906009
450.890294
448.87294
446.857627
444.84789
442.847101
440.85844
438.884885
436.929191
434.993884
433.081248
431.193323
429.331904
427.498541
425.694549
423.921011
422.178792
420.468551
418.790757
417.145704
415.533526
413.954216
412.407641
410.893557
409.411618
407.961389
406.54235
405.153894
403.795324
402.465831
401.164471
399.890135
398.641499
397.416997
396.214656
395.031985
393.865791
392.712054
391.565579
390.419637
389.26557
388.092232
386.885334
385.626679
384.29335
382.856928
381.282918
379.53061
377.553757
375.302503
372.727003
369.783128
366.440228
362.690646
358.55978
354.114706
349.468375
344.775965
340.222606
336.001189
332.285263
329.199796
326.800594
325.068589
323.920881
323.234178
322.873921
322.721801
322.699197
322.72773
472.100843
470.285839
468.429723
466.535972
464.608192
462.650097
460.66548
458.658187
456.632086
454.591045
452.538893
450.479403
448.416259
446.353031
444.293153
442.239904
440.196385
438.165508
436.149985
434.152313
432.174781
430.219459
428.288207
426.382681
424.504341
422.654465
420.834165
419.044405
417.286015
415.559715
413.866132
412.205816
410.579258
408.986901
407.429148
405.906366
404.418887
402.966997
401.550944
400.170853
398.82669
397.51819
396.244778
395.005634
393.799417
392.624127
391.476884
390.353769
389.249508
388.157097
387.067356
385.96838
384.844892
383.67752
382.442026
381.108615
379.641458
377.998666
376.133041
373.994155
371.531864
368.701739
365.472882
361.837234
357.819432
353.485103
348.948491
344.361595
339.904334
335.765292
332.114808
329.077402
326.710341
324.996845
323.85665
323.17147
322.807982
322.647617
322.616943
322.630853
472.077204
470.214342
468.308979
466.364464
464.38427
462.371975
460.331228
458.26573
456.179201
454.075357
451.957881
449.8304
447.696457
445.55949
443.422812
441.289595
439.162851
437.045425
434.939986
432.849026
430.774859
428.71963
426.68532
424.67376
422.686653
420.725588
418.792062
416.887506
415.013309
413.170837
411.361458
409.586561
407.847566
406.145935
404.483179
402.860827
401.280419
399.743467
398.251486
396.805854
395.407755
394.058074
392.757241
391.50523
390.301333
389.14398
388.030499
386.956856
385.917332
384.904145
383.907
382.912563
381.90387
380.859684
379.753837
378.554732
377.225186
375.722722
374.000257
372.008211
369.698173
367.028111
363.969741
360.517006
356.694791
352.566093
348.228771
343.824576
339.538399
335.544514
332.003469
329.037333
326.710693
325.013977
323.875776
323.185046
322.814268
322.646803
322.611496
322.620088
472.047264
470.123783
468.156039
466.14722
464.100634
462.019679
459.907827
457.76859
455.6055
453.422082
451.221832
449.008188
446.784518
444.554093
442.320073
440.085497
437.85327
435.626162
433.406804
431.197693
429.001204
426.819602
424.655057
422.509674
420.385509
418.284604
416.209016
414.160845
412.142263
410.155544
408.203082
406.287406
404.411199
402.577268
400.788563
399.048103
397.358956
395.724174
394.146769
392.629552
391.175021
389.785228
388.461612
387.204828
386.014548
384.889249
383.825943
382.819888
381.864255
380.949758
380.064246
379.192233
378.314367
377.407182
376.442328
375.38652
374.201666
372.845351
371.271671
369.433567
367.286531
364.793674
361.932035
358.699711
355.122946
351.261686
347.211938
343.104132
339.066257
335.287539
331.912259
329.053819
326.78803
325.114746
323.976565
323.274994
322.892894
322.71719
322.671736
322.675033
472.013102
470.020436
467.981467
465.89918
463.77667
461.617117
459.423764
457.199889
454.948789
452.673751
450.378036
448.064855
445.737355
443.398606
441.051587
438.699184
436.344185
433.989286
431.6371
429.290169
426.950985
424.622015
422.305731
420.00464
417.721325
415.458479
413.218944
411.005746
408.822128
406.671573
404.557824
402.484866
400.456955
398.478575
396.554424
394.689323
392.88811
391.155527
389.496113
387.914041
386.412954
384.995763
383.664455
382.419863
381.261428
380.18693
379.192247
378.271066
377.414559
376.611057
375.845858
375.100703
374.353514
373.578604
372.74579
371.820753
370.765351
369.538356
368.096765
366.398336
364.404858
362.086702
359.428093
356.432806
353.129539
349.575793
345.858964
342.093341
338.412248
334.915647
331.771939
329.080834
326.912281
325.287061
324.162275
323.456726
323.070677
322.900832
322.873942
322.898308
471.975739
469.907378
467.790438
465.627656
463.421863
461.175971
458.892944
456.575784
454.227502
451.851105
449.44958
447.025875
444.582893
442.123481
439.650433
437.166487
434.674338
432.176652
429.676084
427.175308
424.677048
422.184117
419.699455
417.226181
414.767635
412.327424
409.909464
407.518013
405.157701
402.83356
400.551044
398.315987
396.134562
394.013195
391.958488
389.977101
388.075594
386.260249
384.53688
382.910628
381.385753
379.965371
378.651198
377.443332
376.339993
375.337256
374.428803
373.605696
372.856175
372.16549
371.51595
370.886415
370.25239
369.586228
368.856765
368.029824
367.068721
365.935407
364.591985
363.003171
361.139238
358.979668
356.517235
353.762137
350.745566
347.521893
344.168611
340.783221
337.476644
334.363828
331.507751
329.041427
327.021016
325.486269
324.409455
323.73008
323.36843
323.241843
323.260231
323.350112
471.93538
469.785234
467.584014
465.334158
463.038197
460.698729
458.318408
455.899916
453.445956
450.959231
448.442438
445.898258
443.329354
440.738373
438.127956
435.500749
432.859427
430.206718
427.545443
424.878552
422.209173
419.540663
416.876662
414.221146
411.578485
408.953506
406.351539
403.778446
401.240631
398.745013
396.299008
393.910472
391.587605
389.338802
387.172509
385.097036
383.12034
381.2498
379.491941
377.852152
376.334395
374.940982
373.672275
372.526426
371.499245
370.583904
369.770886
369.047862
368.399675
367.808373
367.253291
366.710917
366.155118
365.557263
364.88661
364.110834
363.196821
362.112025
360.826006
359.312453
357.551606
355.532986
353.258231
350.743699
348.022413
345.144815
342.177831
339.201874
336.305714
333.579488
331.107134
328.918269
327.104081
325.707413
324.72254
324.113967
323.825224
323.80305
323.953614
324.175003
471.892276
469.654777
467.363517
465.020609
462.628255
460.188725
457.70434
455.177465
452.610489
450.005826
447.365904
444.693171
441.990099
439.259198
436.503035
433.724262
430.92565
428.110131
425.280844
422.441196
419.594923
416.746158
413.899504
411.060099
408.233661
405.42654
402.645744
399.898955
397.194519
394.541382
391.948999
389.427229
386.986184
384.636038
382.386791
380.247994
378.228438
376.335832
374.576481
372.954991
371.473926
370.133559
368.931823
367.863794
366.921936
366.0958
365.372193
364.735227
364.166458
363.645039
363.147929
362.650142
362.125071
361.544897
360.881261
360.10595
359.191797
358.113826
356.850615
355.38586
353.710102
351.822498
349.732475
347.461028
345.041407
342.518924
339.94963
337.397711
334.931662
332.619654
330.524528
328.699696
327.159539
325.960546
325.131643
324.656187
324.532052
324.674937
325.037612
325.533056
471.847551
469.519412
467.13472
464.695258
462.202893
459.659572
457.067301
454.428144
451.744213
449.01767
446.250731
443.445674
440.604859
437.730751
434.82595
431.893236
428.935619
425.95639
422.959195
419.9481
416.927661
413.903001
410.87988
407.864767
404.864884
401.888236
398.943612
396.040572
393.189398
390.401005
387.686803
385.058508
382.527892
380.106503
377.805332
375.634454
373.602679
371.71717
369.983022
368.403105
366.977539
365.70363
364.576048
363.586236
362.722792
361.971455
361.315367
360.73536
360.210241
359.717137
359.23193
358.72973
358.185366
357.573952
356.871527
356.055769
355.106816
354.008176
352.747737
351.31882
349.721221
347.962165
346.057057
344.02987
341.912983
339.746382
337.5763
335.452952
333.428096
331.552051
329.871167
328.426412
327.224719
326.324039
325.753517
325.525703
325.612577
326.024903
326.666623
327.474516
471.803332
469.38558
466.908517
464.373604
461.782397
459.136542
456.437767
453.687877
450.888762
448.042395
445.150852
442.216328
439.241164
436.227887
433.179246
430.098273
426.988338
423.853222
420.697194
417.525086
414.342376
411.15526
407.970722
404.796591
401.641598
398.515389
395.428509
392.392354
389.419054
386.521325
383.71225
381.005004
378.412536
375.947189
373.620307
371.441769
369.419565
367.559537
365.864731
364.335584
362.969221
361.759586
360.697563
359.770857
358.964337
358.260347
357.639086
357.079099
356.557771
356.051846
355.537972
354.993244
354.395756
353.725165
352.963264
352.094585
351.107015
349.992444
348.747398
347.373626
345.87853
344.275422
342.583724
340.828579
339.040392
337.253842
335.507048
333.840165
332.294536
330.911626
329.68426
328.609732
327.827628
327.344355
327.198029
327.351943
327.832162
328.606818
329.614249
330.757227
471.762188
469.261051
466.698043
464.074335
461.39121
458.650058
455.852379
452.99978
450.093986
447.136856
444.130397
441.076798
437.978463
434.838056
431.658551
428.443298
425.196088
421.921235
418.623652
415.308944
411.983493
408.654542
405.330265
402.01982
398.733377
395.482108
392.278141
389.134455
386.064726
383.083105
380.203931
377.441383
374.809083
372.319612
369.984072
367.811476
365.808448
363.979089
362.324177
360.841324
359.524586
358.36462
357.348874
356.46188
355.685684
355.000362
354.384592
353.816269
353.27312
352.73331
352.176026
351.582011
350.934079
350.217571
349.420783
348.535355
347.556612
346.483893
345.320814
344.075558
342.760769
341.393386
339.9947
338.589973
337.208369
335.882674
334.625811
333.442257
332.326097
331.345624
330.625082
330.213979
330.071569
330.173277
330.584063
331.295616
332.27934
333.520265
335.009981
336.575921
471.726371
469.15265
466.514838
463.813868
461.050801
458.226833
455.343292
452.40165
449.403534
446.350745
443.245287
440.089396
436.885584
433.636691
430.345944
427.017023
423.654144
420.262137
416.846538
413.41368
409.970778
406.526011
403.088588
399.668788
396.277973
392.928553
389.633911
386.408256
383.266416
380.223564
377.294864
374.495022
371.837831
369.335577
366.998829
364.835658
362.851347
361.048126
359.424664
357.976012
356.693643
355.56566
354.577154
353.710687
352.946888
352.265111
351.644135
351.062858
350.500969
349.939555
349.361639
348.752643
348.100759
347.397266
346.636803
345.817476
344.940979
344.012628
343.041527
342.040997
341.028633
340.0219
339.026299
338.045498
337.077475
336.107889
335.303015
334.680844
334.287206
334.119361
334.1285
334.358506
334.818489
335.521701
336.504679
337.770955
339.131514
340.375048
341.983329
344.246229
471.697481
469.065219
466.367089
463.603844
460.776393
457.8858
454.933292
451.920273
448.848338
445.719299
442.53521
439.298407
436.011553
432.677694
429.300315
425.883422
422.43161
418.95016
415.445119
411.9234
408.392863
404.862394
401.341963
397.842659
394.376685
390.957309
387.598759
384.316048
381.124728
378.040547
375.079
372.254881
369.58197
367.072328
364.735999
362.58031
360.609446
358.824141
357.22149
355.794938
354.534441
353.426801
352.456154
351.604591
350.852856
350.181106
349.569664
348.999737
348.454071
347.917513
347.377474
346.824278
346.251463