/*--------------------------------*- C++ -*----------------------------------*\
  =========                 |
  \\      /  F ield         | OpenFOAM: The Open Source CFD Toolbox
   \\    /   O peration     | Website:  https://openfoam.org
    \\  /    A nd           | Version:  8
     \\/     M anipulation  |
\*---------------------------------------------------------------------------*/
FoamFile
{
    version     2.0;
    format      ascii;
    class       volVectorField;
    location    "0.004";
    object      U;
}
// * * * * * * * * * * * * * * * * * * * * * * * * * * * * * * * * * * * * * //

dimensions      [0 1 -1 0 0 0 0];

internalField   nonuniform List<vector> 
42400
(
(-0.0274574291 0.0261408015 -2.7788681e-26)
(-0.0783596215 0.071606571 9.12059575e-26)
(-0.126015801 0.11042187 9.21258134e-26)
(-0.170293811 0.142378798 0)
(-0.21124138 0.167671111 0)
(-0.249147456 0.186676252 -2.93785597e-27)
(-0.284481681 0.199943259 0)
(-0.317854534 0.20818008 3.26984799e-27)
(-0.349986547 0.212224141 0)
(-0.381674794 0.213007296 3.63339369e-27)
(-0.413756648 0.211520284 3.82751311e-27)
(-0.447072337 0.208777063 -4.03010463e-27)
(-0.48242715 0.205779357 -3.58993303e-26)
(-0.520554366 0.20348252 -2.78397329e-26)
(-0.562080893 0.202764798 -4.68987279e-27)
(-0.607497341 0.204401581 0)
(-0.657133653 0.2090456 0)
(-0.711139982 0.217212817 0)
(-0.769471939 0.22927394 0)
(-0.831878453 0.245451921 0)
(-0.897892685 0.265823869 0)
(-0.966846646 0.290305267 -1.3033282e-26)
(-1.03789001 0.318655225 7.63151562e-26)
(-1.10999016 0.350500355 2.07292022e-25)
(-1.18195004 0.385350094 1.34009269e-25)
(-1.25242603 0.422611284 -1.54054276e-26)
(-1.31995165 0.461607014 -1.59982552e-26)
(-1.3830061 0.501613827 3.31151436e-26)
(-1.44006893 0.541890128 0)
(-1.4893795 0.581948139 0)
(-1.52966465 0.620707422 -3.93811629e-25)
(-1.55931576 0.658110633 -4.21719877e-25)
(-1.57776384 0.693198909 3.87842014e-26)
(-1.58099635 0.725872692 3.89761584e-25)
(-1.56860692 0.754199795 3.91870391e-25)
(-1.53652758 0.779197585 0)
(-1.48492651 0.799006209 0)
(-1.41130126 0.814293496 0)
(-1.31399785 0.824884331 0)
(-1.1911403 0.830569453 7.80861866e-25)
(-1.04023563 0.831130568 8.17719837e-25)
(-0.85895515 0.826434539 8.12605689e-25)
(-0.646275023 0.815836861 1.89110041e-24)
(-0.397969906 0.799387218 -1.03983064e-25)
(-0.113608528 0.781068572 -1.25871041e-24)
(0.202298743 0.764464021 -1.19069053e-24)
(0.551425227 0.745540227 1.02676435e-25)
(0.969231043 0.716244588 8.05182922e-25)
(1.43808597 0.680226135 1.16136071e-25)
(1.96157918 0.642865769 1.31220703e-24)
(2.54764203 0.604038948 6.15761847e-33)
(3.19698084 0.563173245 -2.05587743e-24)
(3.91149083 0.520436365 -1.3674923e-24)
(4.69390331 0.475628463 2.50791076e-25)
(5.54696128 0.428383746 0)
(6.47246758 0.379556326 0)
(7.47206479 0.330095574 0)
(8.54565585 0.279326373 -2.4031231e-25)
(9.69422446 0.224991708 -2.08476094e-25)
(10.9049944 0.167384127 0)
(12.1616658 0.107401273 2.03282425e-24)
(13.447341 0.0431321968 2.28853563e-24)
(14.732503 -0.0185706386 -2.16162713e-24)
(15.9711508 -0.0532384251 -2.33389324e-24)
(17.1915064 -0.125273254 0)
(18.3564811 -0.24371583 0)
(19.261451 -0.148504259 -3.03125296e-24)
(20.081341 -0.0298676078 -3.57349802e-24)
(21.0125793 -0.433744089 -9.37097419e-27)
(21.6413307 -0.566416238 0)
(21.8461752 -0.0628538673 0)
(21.9769304 0.128181871 1.99310801e-25)
(22.1112834 -0.260652331 -2.34075117e-26)
(22.1717124 -0.479659615 0)
(22.1459414 -0.333915675 2.54065711e-25)
(22.13404 -0.184507974 7.16202202e-24)
(22.0476634 -0.0630073508 1.08348194e-23)
(22.0272603 -0.136760637 -3.81462701e-25)
(22.1071099 -0.298997694 -6.19662684e-24)
(22.1295708 -0.390240218 -1.54761288e-23)
(-0.0405938277 0.0358209039 0)
(-0.116150665 0.0996282299 9.00645196e-26)
(-0.187085744 0.155974666 8.82670084e-26)
(-0.253138483 0.204570261 0)
(-0.314258046 0.245538454 0)
(-0.370662358 0.279195771 6.8856564e-26)
(-0.422771199 0.306038165 6.67341334e-26)
(-0.471160905 0.326726064 4.10029423e-27)
(-0.516527394 0.342052313 0)
(-0.559646395 0.352905001 4.54333937e-27)
(-0.60133182 0.360230949 4.77970701e-27)
(-0.642394765 0.365000881 -2.74225751e-26)
(-0.683604319 0.368176454 -2.9591129e-26)
(-0.725650791 0.370679469 -6.60894943e-27)
(-0.769112068 0.373363812 -1.09935669e-26)
(-0.814423892 0.376990825 -5.770119e-27)
(-0.861854769 0.382208836 0)
(-0.911486097 0.389537453 1.34781797e-26)
(-0.963197863 0.399356983 0)
(-1.01666 0.411903074 0)
(-1.07132938 0.427265989 0)
(-1.12645232 0.445393343 1.11478899e-25)
(-1.181073 0.466097921 2.89432563e-25)
(-1.23404452 0.489066625 1.80634042e-25)
(-1.28408137 0.51388257 0)
(-1.32980916 0.540049248 -3.80804645e-26)
(-1.36958976 0.567221483 -1.95825491e-26)
(-1.4021099 0.594523961 4.07835426e-26)
(-1.4257009 0.621841282 4.05492572e-25)
(-1.43935953 0.648438346 3.89525622e-25)
(-1.43985188 0.673619787 -4.56792856e-26)
(-1.42557865 0.697122256 -4.82226225e-26)
(-1.39301247 0.717449471 6.64291841e-25)
(-1.34152213 0.734286122 6.43781128e-25)
(-1.26868018 0.747696807 -7.53338314e-25)
(-1.17244173 0.757331083 -8.15788027e-25)
(-1.05053299 0.76285478 0)
(-0.90055282 0.764061184 5.83167249e-26)
(-0.720687643 0.760651964 0)
(-0.509110583 0.751983523 1.22925222e-25)
(-0.261567595 0.738110613 1.31978639e-24)
(0.0246723982 0.72300195 1.21909446e-24)
(0.334640071 0.708546749 1.26934556e-25)
(0.702390728 0.687528958 -1.3401074e-25)
(1.12106368 0.658302247 2.84028395e-25)
(1.59232972 0.625330938 -1.4728905e-25)
(2.12023494 0.590427343 1.49889082e-25)
(2.70805829 0.553361011 1.17887452e-24)
(3.3567563 0.514098697 1.47313723e-24)
(4.06883698 0.472943705 0)
(4.84726894 0.429905673 -1.65999203e-25)
(5.69382431 0.385806952 3.27220834e-25)
(6.60891375 0.341811178 1.0265372e-24)
(7.59175605 0.29868095 1.58934075e-24)
(8.64029279 0.256499573 3.30808703e-25)
(9.75191814 0.214061383 2.48332642e-24)
(10.9234779 0.169734813 2.36769353e-24)
(12.1405514 0.124098919 -2.3627915e-25)
(13.385539 0.078942776 -2.03884715e-25)
(14.6338454 0.0362355766 1.97349312e-24)
(15.8607805 -0.00249053195 2.00793332e-24)
(17.041325 -0.0385390933 1.3082121e-25)
(18.1613352 -0.0823312362 -1.16780834e-25)
(19.1619557 -0.0996495245 0)
(20.0363264 -0.0814124838 -2.42212248e-24)
(20.8432474 -0.139759354 -2.94383158e-24)
(21.5009483 -0.221163795 -2.23727689e-24)
(21.9229853 -0.0669025771 0)
(22.153663 -0.0140742905 3.90897915e-26)
(22.3366299 -0.100482398 1.40746055e-25)
(22.3459263 -0.126742421 3.59642619e-24)
(22.3206318 -0.054616563 1.5560728e-24)
(22.2765707 0.0841001468 -3.62855849e-24)
(22.1964941 0.0743172827 -7.15623329e-24)
(22.1819458 -0.0582708117 3.13105503e-26)
(22.183181 -0.113277709 6.57572507e-24)
(22.1877455 -0.130915665 4.62083176e-24)
(22.163831 -0.0933711349 8.74731581e-26)
(22.1363744 -0.0241201837 -4.71854336e-24)
(22.1325085 -0.110781738 -5.95073418e-24)
(-0.0542138087 0.0442559784 1.29597739e-26)
(-0.155121539 0.123993412 1.80720815e-27)
(-0.249777568 0.195541424 -1.9198748e-27)
(-0.337754445 0.258525317 2.01180518e-27)
(-0.418891362 0.313003464 0)
(-0.493321276 0.359234537 -6.26414471e-26)
(-0.561398582 0.397662243 4.39853494e-33)
(-0.623649789 0.428898849 4.70966037e-26)
(-0.680731734 0.453691948 3.80562124e-26)
(-0.733387046 0.472886402 5.63742565e-26)
(-0.782398237 0.487387233 2.32392377e-26)
(-0.828543118 0.498124582 6.09843458e-27)
(-0.87255275 0.506021087 6.40885181e-27)
(-0.915072531 0.511962077 -2.08064628e-26)
(-0.956627056 0.516769098 -3.59385077e-26)
(-0.997589496 0.521177314 2.22702549e-26)
(-1.03815617 0.525817223 5.50774188e-26)
(-1.07832694 0.53120079 1.81263676e-25)
(-1.11789056 0.537711796 1.12678205e-25)
(-1.15641476 0.545600674 1.79869933e-26)
(-1.19324397 0.554982015 -1.88283204e-26)
(-1.22753101 0.565835697 -1.96771021e-26)
(-1.25827328 0.578013501 0)
(-1.2841738 0.591425905 4.25519422e-26)
(-1.30410035 0.605594741 -3.34887592e-25)
(-1.31656015 0.620569043 2.23041174e-28)
(-1.32052706 0.635750178 3.57321263e-25)
(-1.31334596 0.650998847 3.7048579e-25)
(-1.29257749 0.665308717 4.36116352e-25)
(-1.25515891 0.677719352 -4.72303447e-25)
(-1.20008588 0.687929184 -5.69717473e-26)
(-1.12490444 0.695914078 1.19683607e-24)
(-1.02741938 0.701258364 8.39315092e-25)
(-0.905186362 0.703514793 0)
(-0.755616579 0.702305489 0)
(-0.576769064 0.69692156 -6.79154227e-26)
(-0.365149275 0.687034372 0)
(-0.118520858 0.674567315 1.45155313e-25)
(0.160148358 0.66168251 1.10318434e-24)
(0.472886431 0.646246556 3.0522032e-25)
(0.84381624 0.62316477 -9.44869753e-25)
(1.26181482 0.594552507 0)
(1.73047026 0.563817065 0)
(2.25511231 0.53089017 1.38994095e-24)
(2.83742053 0.495449295 1.5930685e-24)
(3.47956894 0.457816505 1.93512823e-25)
(4.18417324 0.418418063 0)
(4.95404074 0.377758491 0)
(5.7897756 0.336859219 1.53386531e-24)
(6.69069878 0.296679959 1.496048e-24)
(7.65476696 0.257895663 -2.06704897e-25)
(8.67846734 0.220896218 0)
(9.75778332 0.185838484 -9.42781605e-25)
(10.8884344 0.15212228 -1.30472673e-24)
(12.0652721 0.118631282 -2.09784533e-24)
(13.2717197 0.0863278025 -1.7112036e-24)
(14.4879819 0.0569300489 -1.94939251e-24)
(15.6900583 0.030824028 -2.86803371e-32)
(16.8553233 0.00911761822 3.10926341e-32)
(17.9549911 -0.00693283747 -4.49884053e-24)
(18.9706213 -0.0168055784 -2.24840461e-24)
(19.8706666 -0.0198033409 2.35736603e-24)
(20.6692211 -0.0240169519 2.20074582e-24)
(21.3285394 -0.0432342079 0)
(21.8707011 -0.0337399849 5.29133829e-24)
(22.2255529 -0.0107809174 1.54943685e-23)
(22.4216456 -0.0179969146 7.13491161e-24)
(22.431418 0.0167832367 0)
(22.4387472 0.0295344652 -4.66916093e-27)
(22.4154372 0.0612162068 4.12317709e-24)
(22.3488681 0.102695561 5.54555086e-24)
(22.3235483 0.0760029844 0)
(22.3121915 0.0420302316 0)
(22.2505317 0.152179119 -9.31520072e-26)
(22.1947244 0.1732596 1.17506387e-25)
(22.1831517 0.141956417 5.72082572e-24)
(22.1927721 0.089445012 3.73983792e-24)
(22.2265517 -0.00892822341 0)
(22.2509348 -0.0231115693 1.75558348e-25)
(22.2299055 -0.00476393611 5.53379584e-24)
(-0.0677059492 0.0510400014 1.37462466e-27)
(-0.19346412 0.143538986 2.16504915e-27)
(-0.311067487 0.227223976 3.64041877e-26)
(-0.419877405 0.301638332 -2.72395594e-26)
(-0.519668201 0.366806353 -2.79848667e-26)
(-0.610477763 0.422939549 0)
(-0.692585726 0.47043322 -3.88760458e-26)
(-0.766457922 0.509851717 -3.4723249e-26)
(-0.832699609 0.541894963 -1.77650587e-26)
(-0.892006297 0.567360296 -5.70002911e-27)
(-0.945113771 0.587105631 2.12123562e-26)
(-0.992750101 0.602015136 1.75353906e-33)
(-1.03559093 0.612967731 7.61540375e-27)
(-1.0742186 0.620808775 1.02543919e-32)
(-1.1090854 0.626325082 -8.4099836e-27)
(-1.14048112 0.630223556 1.11018975e-25)
(-1.16850654 0.633113833 -1.3390601e-25)
(-1.19306301 0.635493476 -1.93692413e-26)
(-1.21384847 0.637732322 1.6392113e-25)
(-1.23036623 0.640075309 2.12403595e-26)
(-1.24182766 0.642776052 -4.44325091e-26)
(-1.24754305 0.64585421 -2.86751547e-25)
(-1.24655063 0.649607476 -3.15195411e-25)
(-1.23790706 0.653776051 2.54051437e-26)
(-1.21884486 0.658125611 0)
(-1.18744785 0.661804462 2.77999954e-26)
(-1.1411161 0.664574121 0)
(-1.07861401 0.66608983 5.82684053e-25)
(-0.997524609 0.666300885 1.21780158e-24)
(-0.895488034 0.664804195 7.3109973e-25)
(-0.770166267 0.661218111 -7.18707298e-25)
(-0.619111114 0.655165128 -8.31640581e-25)
(-0.44011951 0.646030722 1.49090228e-25)
(-0.229697859 0.633542258 7.8497633e-26)
(0.0155124849 0.619627187 -1.05104667e-24)
(0.2867538 0.60540949 -1.05377416e-24)
(0.607047763 0.586374066 0)
(0.972469748 0.561732667 1.30007304e-24)
(1.38461561 0.534110104 1.33130489e-24)
(1.84759402 0.504363975 1.96515759e-25)
(2.36441944 0.472324157 2.06095371e-25)
(2.93704884 0.437996792 0)
(3.56835647 0.401916995 0)
(4.26114373 0.364557421 0)
(5.01740647 0.326430443 2.36360953e-25)
(5.83733678 0.288363519 1.84298782e-24)
(6.719906 0.251203971 1.60101372e-24)
(7.6626226 0.215679001 0)
(8.66163885 0.182528923 0)
(9.71163921 0.15240447 1.58511403e-24)
(10.8069056 0.12560569 1.30939907e-24)
(11.9404608 0.101759355 1.52796671e-24)
(13.1071231 0.0792197138 1.43130806e-24)
(14.2891592 0.0590668941 -3.97005174e-25)
(15.4654736 0.0428920766 -1.67247849e-24)
(16.6125608 0.0314913926 -9.93243083e-25)
(17.7063892 0.025198589 -2.65416907e-24)
(18.7244247 0.0238895731 -2.48034918e-24)
(19.6465755 0.0252259261 0)
(20.455266 0.0322714584 1.82624392e-25)
(21.1373807 0.042228216 -3.39464797e-24)
(21.6887511 0.0515626522 -7.34234993e-24)
(22.1157029 0.0552578302 -9.26595035e-26)
(22.4339679 0.0604685895 -7.69113508e-26)
(22.5102432 0.0737843283 -4.14080383e-24)
(22.5018041 0.118668637 2.12842988e-24)
(22.5030743 0.1218112 2.60170465e-24)
(22.4434658 0.155830538 3.07027154e-25)
(22.4144963 0.163628433 -5.17322224e-24)
(22.3938459 0.146260958 -4.58399723e-24)
(22.3519569 0.146560977 2.61051792e-26)
(22.305388 0.174722859 -4.86059116e-24)
(22.2946134 0.14915171 -5.60322593e-24)
(22.2904978 0.13035555 0)
(22.2586344 0.188865326 -6.06001836e-24)
(22.2374301 0.232037709 -1.54620124e-23)
(22.2315849 0.26281274 -5.32879618e-26)
(22.2470843 0.233213558 6.03302759e-24)
(22.3416513 0.180089274 7.15406982e-24)
(22.3162118 0.138595734 5.80519438e-24)
(-0.0803161582 0.0557957298 1.11535173e-26)
(-0.228937244 0.15715971 0)
(-0.367235748 0.249222343 0)
(-0.49446231 0.33152415 7.32446964e-30)
(-0.610228837 0.404017928 0)
(-0.714479263 0.466874778 0)
(-0.807413338 0.520450339 0)
(-0.889428112 0.56526638 -1.37920145e-26)
(-0.961066504 0.601977335 0)
(-1.02296362 0.631332948 7.63883339e-27)
(-1.07579281 0.654142435 5.35821616e-26)
(-1.12021407 0.671241351 1.05659302e-32)
(-1.1568258 0.6834613 -6.40182488e-26)
(-1.18612275 0.691599289 0)
(-1.20846564 0.696389062 -9.78297667e-27)
(-1.22406048 0.698494082 2.0570904e-26)
(-1.23290022 0.698518725 0)
(-1.2349692 0.696991285 1.99477861e-25)
(-1.22995514 0.694406177 2.37643724e-26)
(-1.21722927 0.69118871 -5.05967773e-25)
(-1.19626449 0.687468369 -3.07294804e-25)
(-1.16498443 0.683288832 2.72121186e-26)
(-1.1218014 0.678251615 0)
(-1.06461538 0.672338218 -4.49892294e-25)
(-0.99223129 0.665475464 -5.10383896e-25)
(-0.902608866 0.657682098 -5.30783969e-25)
(-0.793513173 0.648716627 -6.16959963e-25)
(-0.662585405 0.638285745 6.6229485e-25)
(-0.507581069 0.625821584 6.94964052e-25)
(-0.325190557 0.611082468 0)
(-0.115731297 0.594892278 -9.20680152e-25)
(0.129243934 0.577707364 -9.40072091e-25)
(0.398632247 0.559894571 8.68265482e-26)
(0.717558928 0.53725051 -8.85787863e-25)
(1.07824886 0.510650341 -1.13734399e-24)
(1.48364305 0.4823658 -2.0352699e-25)
(1.93802309 0.452380221 1.06410646e-25)
(2.44391216 0.420426839 -1.33885947e-24)
(3.00414653 0.386825122 -1.41354732e-24)
(3.6215858 0.352013402 1.60015205e-24)
(4.29873522 0.316314137 3.31352113e-24)
(5.03722371 0.28022116 1.83034192e-24)
(5.83725985 0.244480019 0)
(6.69794953 0.209879915 -2.72125993e-25)
(7.6170682 0.177264375 -1.65667003e-24)
(8.59087581 0.147509947 -2.83114589e-25)
(9.61400658 0.1214469 5.52747295e-32)
(10.6794993 0.0997199533 -1.39891885e-24)
(11.7792174 0.0827742698 0)
(12.9034879 0.070530024 -2.90715879e-25)
(14.0465483 0.060765001 -2.1560612e-24)
(15.1923991 0.0534771344 -1.56706777e-24)
(16.3201589 0.0496878122 -8.73313765e-25)
(17.4070242 0.0502917558 -2.30135479e-24)
(18.4294406 0.055165943 -1.53755585e-24)
(19.3675533 0.064906913 -1.59103827e-24)
(20.1999716 0.0782356852 -4.74683091e-24)
(20.9170866 0.09688143 -3.22773676e-24)
(21.5010882 0.11386338 -3.82969762e-24)
(21.9704295 0.130586533 -3.84911851e-24)
(22.2900149 0.149027578 0)
(22.5438912 0.14384913 -1.87071731e-25)
(22.6110407 0.187277444 -5.24190936e-24)
(22.5839781 0.203641988 -2.96004566e-24)
(22.5335055 0.237652229 -2.37668882e-26)
(22.5112753 0.219592022 0)
(22.4969142 0.214421013 3.99106412e-24)
(22.4558885 0.223872572 5.5970932e-24)
(22.4097756 0.249467745 -2.91174841e-25)
(22.386719 0.248839143 2.89792384e-25)
(22.3676826 0.252640998 -2.629118e-26)
(22.3485702 0.272641571 4.27707557e-25)
(22.339729 0.294510311 -7.8581912e-24)
(22.343855 0.279098911 -5.20011927e-24)
(22.3849204 0.278734702 1.79423376e-25)
(22.4173179 0.30890507 0)
(22.4385161 0.358840243 -6.71980353e-24)
(22.4564764 0.399050754 -6.62969131e-24)
(22.5819914 0.434947581 0)
(22.5596941 0.381481258 -4.76868858e-24)
(-0.0913917586 0.0583569827 -1.4009072e-26)
(-0.259604384 0.164367938 -1.8694792e-26)
(-0.415082458 0.260734234 -2.2334984e-26)
(-0.556941358 0.346994133 -3.22584688e-27)
(-0.68462126 0.423066964 8.34301014e-27)
(-0.798039883 0.489109027 -7.1593475e-27)
(-0.897304743 0.545456667 1.17555946e-26)
(-0.982735137 0.592595736 3.35244451e-27)
(-1.05479956 0.631137103 8.36001346e-27)
(-1.11405599 0.661779195 1.75816535e-26)
(-1.16109715 0.685273949 -2.67408462e-26)
(-1.19649864 0.702392555 -1.35684645e-25)
(-1.22077419 0.713888829 -1.10912354e-25)
(-1.23440203 0.720580965 -1.24687515e-25)
(-1.23773319 0.723230063 1.12640997e-26)
(-1.23092934 0.72257075 2.17241079e-25)
(-1.21393338 0.719213034 0)
(-1.18663205 0.713786246 0)
(-1.14744419 0.706264653 2.70178886e-25)
(-1.09539802 0.69679241 6.50310156e-25)
(-1.02903011 0.685625692 3.62786018e-25)
(-0.947544041 0.67304543 4.12063174e-25)
(-0.849337013 0.659250201 1.0118322e-32)
(-0.732517927 0.644221586 -5.39390898e-25)
(-0.595001455 0.627872501 5.09553496e-25)
(-0.43469585 0.60984056 1.21158191e-24)
(-0.248823719 0.589923228 6.72336587e-25)
(-0.0347814846 0.569229527 -4.141999e-26)
(0.202938963 0.548708581 4.32595575e-26)
(0.480057432 0.525297113 -9.18318947e-26)
(0.794918077 0.498790173 0)
(1.1495405 0.470493915 1.1386633e-24)
(1.54772612 0.440865546 -1.0578415e-25)
(1.99269196 0.409872217 -1.16247044e-24)
(2.48689766 0.377469938 0)
(3.03334255 0.344017719 -1.42698051e-24)
(3.63488452 0.309826728 -1.25221045e-24)
(4.29391448 0.275209164 0)
(5.01200976 0.240640045 0)
(5.78960103 0.206817598 -1.40558478e-24)
(6.6261196 0.174526186 -1.58857636e-24)
(7.51974874 0.144591398 5.87197892e-25)
(8.46723524 0.117860936 0)
(9.46370725 0.0951846014 1.38769366e-24)
(10.50252 0.0773681635 3.12843197e-24)
(11.5752111 0.0651134625 1.43273751e-24)
(12.6716621 0.0588736032 3.18034567e-25)
(13.7809563 0.0585935309 -4.44488675e-27)
(14.8930092 0.0630657108 0)
(15.9957521 0.0707605868 -2.00185813e-24)
(17.0695006 0.0819790556 -5.10331299e-25)
(18.0931686 0.0967683446 1.65070445e-24)
(19.0459428 0.114648818 -4.27224448e-25)
(19.9091247 0.135123618 -2.12320531e-24)
(20.6655632 0.158799975 -3.23278846e-24)
(21.3065383 0.183388093 -4.10938925e-32)
(21.8205022 0.213191438 1.89133463e-24)
(22.2127117 0.237106811 0)
(22.4773549 0.277427412 0)
(22.6476698 0.285915517 -2.52879314e-25)
(22.7231722 0.322633204 -2.79946665e-25)
(22.7170653 0.32438966 0)
(22.6608087 0.358422966 4.5192629e-24)
(22.5950748 0.371004382 5.2163185e-24)
(22.5594796 0.38502771 -5.71372478e-24)
(22.548738 0.379055767 -1.08228723e-23)
(22.5437889 0.376420303 -6.23381167e-24)
(22.5291617 0.384392953 -6.12564057e-24)
(22.5049576 0.408268367 -6.69764436e-24)
(22.4993812 0.443156391 4.07966822e-25)
(22.5004249 0.439023566 4.06114379e-24)
(22.5373416 0.457774906 4.98533183e-24)
(22.5703183 0.491560192 -5.58000533e-24)
(22.6325159 0.514381813 -5.43440827e-24)
(22.7149888 0.521358908 -6.82872093e-24)
(22.7658504 0.533757427 -7.63022407e-24)
(22.8084069 0.566756266 -7.99956887e-24)
(22.8591623 0.584250752 3.85675128e-33)
(22.8998574 0.614726579 1.75963043e-23)
(22.904953 0.637664436 1.58704016e-23)
(-0.100308566 0.0586818349 4.0896599e-27)
(-0.283550362 0.165006207 3.31635595e-27)
(-0.451349503 0.261452821 4.53463805e-27)
(-0.602701829 0.347610342 -5.76614591e-33)
(-0.737068168 0.423421706 3.48225464e-27)
(-0.854167682 0.489016805 2.1175121e-27)
(-0.954043768 0.544729596 3.60022531e-26)
(-1.03698577 0.590977481 1.66184963e-26)
(-1.10338613 0.628415747 3.40856019e-26)
(-1.15377957 0.657711501 4.39234708e-26)
(-1.18872545 0.679618728 5.49476789e-26)
(-1.20876848 0.694931713 5.58955425e-26)
(-1.21441336 0.70446824 7.93858873e-26)
(-1.20556299 0.708721165 1.03923742e-25)
(-1.1822276 0.708339971 1.27988035e-26)
(-1.14420348 0.70389171 1.34447004e-26)
(-1.09101996 0.695859281 2.70600602e-25)
(-1.02181166 0.684713993 3.11405497e-25)
(-0.936333497 0.671056387 -3.12179157e-26)
(-0.833402045 0.655233825 -3.30039798e-26)
(-0.711612821 0.63745778 3.96263219e-25)
(-0.569320617 0.6178821 4.30761052e-25)
(-0.404785914 0.596402601 0)
(-0.215653345 0.572997408 4.00418275e-26)
(0.000603589086 0.548677192 0)
(0.239527135 0.524533064 0)
(0.515945734 0.497845708 4.61218822e-26)
(0.827674501 0.468748941 -9.20576325e-25)
(1.1774086 0.438460815 -8.49825096e-25)
(1.56845722 0.407228099 8.50960732e-25)
(2.00352441 0.374979241 1.02360343e-24)
(2.48555366 0.341899515 1.15386707e-25)
(3.01748287 0.308283512 -1.20931036e-25)
(3.60206034 0.274392512 0)
(4.24166625 0.240542836 1.33609087e-25)
(4.93797587 0.20721636 0)
(5.69167655 0.175081381 0)
(6.50254107 0.144863574 1.48243578e-25)
(7.36921736 0.117316685 0)
(8.2890489 0.0932189236 0)
(9.25789656 0.0733623441 1.66341725e-24)
(10.2699724 0.0585266097 2.03841492e-24)
(11.3177121 0.0494433643 0)
(12.3917186 0.0467472383 0)
(13.4808227 0.0509116039 0)
(14.5723778 0.0621371312 3.36783172e-25)
(15.6531843 0.0801551064 3.30159174e-25)
(16.7126053 0.102955463 1.65306282e-24)
(17.7337419 0.130048997 1.89675528e-24)
(18.6969239 0.161147024 1.85230428e-24)
(19.5842124 0.195355398 1.84883714e-24)
(20.3791499 0.230678197 1.67481423e-24)
(21.0701415 0.26789514 1.78757647e-24)
(21.6469512 0.303237141 0)
(22.1068045 0.343204125 0)
(22.4531896 0.374334872 -2.81965707e-24)
(22.6902979 0.417341572 -5.24310105e-24)
(22.8273722 0.439919532 -2.58067427e-24)
(22.8820748 0.492625844 -2.62118941e-24)
(22.8737245 0.506966818 -1.83109493e-24)
(22.8408413 0.544530377 3.72824574e-24)
(22.7880593 0.57057846 9.22468331e-24)
(22.747596 0.588090633 -1.29002398e-25)
(22.7308422 0.630888256 -5.83931791e-24)
(22.7128209 0.631638663 -7.674008e-26)
(22.7323881 0.656317691 1.9155748e-25)
(22.7347755 0.63571504 4.20627208e-24)
(22.7586758 0.651246547 2.28059532e-32)
(22.767611 0.664634128 -7.60481202e-24)
(22.7747315 0.686614168 1.46282696e-25)
(22.789742 0.694015058 6.86751996e-24)
(22.8233348 0.690470682 8.52517341e-24)
(22.8478136 0.689831305 0)
(22.8519985 0.683347598 8.96309494e-26)
(22.8700339 0.668218572 0)
(22.8898429 0.654269808 5.91690254e-24)
(22.9050349 0.648714337 1.37212294e-23)
(22.908071 0.64980081 7.53071167e-24)
(22.9055489 0.644259321 1.02037375e-23)
(22.9074332 0.646009534 1.62529268e-23)
(-0.106560612 0.0568878685 7.57327768e-28)
(-0.299273309 0.15945952 4.76033265e-28)
(-0.47355435 0.252067406 -3.95734156e-27)
(-0.628322856 0.334374574 1.19423181e-26)
(-0.762967079 0.406364937 1.96234454e-26)
(-0.87721545 0.468213762 2.28186314e-26)
(-0.971063193 0.520227127 -9.73504179e-27)
(-1.04462848 0.562906342 -5.60850623e-26)
(-1.09824905 0.596759981 -6.72298529e-26)
(-1.1322547 0.622435946 -7.85395922e-26)
(-1.14697785 0.640592229 0)
(-1.14266396 0.651906014 -2.50646277e-26)
(-1.11946493 0.657023358 1.32452901e-26)
(-1.07764914 0.656788736 0)
(-1.01709929 0.651794537 0)
(-0.937464554 0.642619495 0)
(-0.838163455 0.629778213 0)
(-0.718367724 0.613723667 -1.70282856e-26)
(-0.576952184 0.594836145 0)
(-0.412636498 0.57328599 -2.57378318e-25)
(-0.223623468 0.549274942 -2.95609915e-25)
(-0.00792102508 0.523815738 5.14624516e-25)
(0.230485918 0.498051215 5.60471205e-25)
(0.504601837 0.469819889 -5.6960822e-25)
(0.812324304 0.439481658 -7.53336148e-25)
(1.1562744 0.40812549 -7.7079166e-25)
(1.53943675 0.376031609 -7.69851317e-25)
(1.96438664 0.343216337 -9.95121313e-25)
(2.43393085 0.309920267 -1.90482917e-24)
(2.95090946 0.276429588 -1.02187461e-24)
(3.51795733 0.243066012 0)
(4.13745996 0.2101799 -1.34143909e-25)
(4.811228 0.178232502 -1.39595596e-25)
(5.54018224 0.14784158 0)
(6.32444118 0.119671134 1.48564352e-25)
(7.16313464 0.0944099058 0)
(8.05423459 0.0727735237 0)
(8.99437805 0.0554948529 1.75178158e-24)
(9.97869437 0.0432993897 -1.68373272e-25)
(11.0006654 0.0368748576 -1.74906915e-24)
(12.0520384 0.0368345549 2.0098684e-24)
(13.1228105 0.0436765764 1.92740168e-24)
(14.2013067 0.0577421501 1.77009936e-25)
(15.2743777 0.079162308 0)
(16.3278513 0.107777037 1.88944528e-24)
(17.3475998 0.142999828 2.69831952e-24)
(18.3225932 0.182873037 0)
(19.234731 0.227305439 0)
(20.0676211 0.275989406 -2.4569735e-24)
(20.8068108 0.327517977 -2.395984e-24)
(21.4444098 0.38048859 2.05954654e-24)
(21.9732077 0.430584779 1.78536427e-24)
(22.4004338 0.482652486 -2.01433143e-24)
(22.7176092 0.527610137 -4.30161075e-32)
(22.9437489 0.575860029 2.32443234e-24)
(23.0871969 0.614981796 1.53276723e-26)
(23.1212116 0.66755729 0)
(23.1103229 0.689430206 -1.79214421e-25)
(23.0834818 0.726263218 -2.93295145e-24)
(23.0345314 0.762102893 -1.84877585e-25)
(22.9823596 0.790458934 3.59867924e-24)
(22.944154 0.811281578 0)
(22.9171461 0.823247784 -1.39623348e-25)
(22.8747448 0.814284382 0)
(22.8483365 0.820898006 -1.79966195e-25)
(22.8532743 0.8268222 1.14482715e-25)
(22.8541697 0.816668583 1.99231753e-25)
(22.8570356 0.80568765 -4.97699339e-24)
(22.842633 0.798196897 -7.4192577e-24)
(22.8482437 0.798831638 2.24210894e-25)
(22.8417457 0.788257184 -7.40720634e-24)
(22.8424249 0.784500314 -7.80833744e-24)
(22.8469594 0.776743838 -8.07975051e-24)
(22.8460839 0.760872862 -8.22552656e-24)
(22.8501714 0.738795479 -9.39667924e-24)
(22.8702242 0.713086367 -9.02344645e-24)
(22.89722 0.698050426 9.7881277e-24)
(22.9120515 0.688104382 9.92723162e-24)
(22.9160117 0.685204373 1.25741261e-25)
(22.9060711 0.684673448 -2.11904288e-25)
(-0.109546492 0.0531048622 -2.84378867e-27)
(-0.30491088 0.148093349 7.32422711e-27)
(-0.478490431 0.233159661 -4.46259886e-27)
(-0.62916838 0.308077378 -4.59311923e-33)
(-0.756304102 0.372882687 3.40385502e-26)
(-0.859577794 0.427791115 -5.21716807e-27)
(-0.938906081 0.473157812 5.30118395e-26)
(-0.994381902 0.509451865 8.77293314e-33)
(-1.02620938 0.537230196 -1.37488148e-25)
(-1.0346341 0.557117384 -8.65499643e-26)
(-1.01993366 0.569747003 1.35378526e-26)
(-0.982216431 0.575808479 -1.2591753e-25)
(-0.921527047 0.575919403 -1.10900769e-25)
(-0.837729489 0.570727521 -1.40817799e-25)
(-0.73048002 0.560841527 -1.56587642e-25)
(-0.599188706 0.546804318 1.72463309e-25)
(-0.443020869 0.529105859 1.88197035e-25)
(-0.260978713 0.508102135 -1.91937043e-26)
(-0.0514533486 0.484619522 0)
(0.182316164 0.459916867 -2.19501947e-25)
(0.449871808 0.432686563 -2.62133101e-25)
(0.750924196 0.403193204 -4.7266633e-26)
(1.08680721 0.372536468 3.27010614e-25)
(1.46031977 0.341092197 4.01627595e-25)
(1.87379656 0.308985208 -1.09132364e-25)
(2.3298011 0.27653712 0)
(2.83095683 0.244098685 6.0505072e-26)
(3.37975399 0.21204672 5.76925613e-28)
(3.97849482 0.180772245 -1.07399164e-24)
(4.62909292 0.15072249 -1.07419197e-24)
(5.33265976 0.122485726 1.14334213e-24)
(6.08963128 0.0966872394 9.90713491e-25)
(6.89959458 0.0739714322 -3.10713232e-25)
(7.7611232 0.0550035359 -1.20923126e-24)
(8.67160532 0.0404624725 -1.17999064e-31)
(9.62707185 0.0310198914 1.55042439e-24)
(10.6220482 0.0273132529 -1.82751097e-24)
(11.6494465 0.0299124387 -1.76211925e-24)
(12.7005142 0.039282423 -3.62444385e-25)
(13.7648586 0.0557440248 1.8451652e-25)
(14.830566 0.0794354083 1.83115005e-25)
(15.8844331 0.110276639 -2.30787865e-24)
(16.9123244 0.147942922 -4.75936181e-24)
(17.8996877 0.191809639 -2.64463458e-24)
(18.8327441 0.24081584 -3.17930111e-24)
(19.7014514 0.29277218 -2.82655201e-24)
(20.4908901 0.347385577 0)
(21.1882385 0.40424794 2.58436383e-24)
(21.7845162 0.462061476 2.67924888e-24)
(22.2747651 0.520664011 2.82588295e-24)
(22.6624756 0.576042936 6.14050873e-24)
(22.9488202 0.624263023 6.82973295e-24)
(23.1527566 0.659441025 8.25551069e-24)
(23.2669798 0.703991614 8.64636239e-24)
(23.2706066 0.726622081 2.64649751e-24)
(23.233651 0.759998655 3.95935605e-25)
(23.1964896 0.779136684 0)
(23.147224 0.801225487 -3.58201598e-24)
(23.1031357 0.819087882 -3.7130572e-24)
(23.0550466 0.821788665 0)
(23.004869 0.846720208 -3.54413216e-24)
(22.9517633 0.868027254 -3.74905272e-24)
(22.9093701 0.889579518 0)
(22.8742964 0.901196977 3.07980928e-25)
(22.8446971 0.91313851 0)
(22.842465 0.905036559 -7.44177761e-24)
(22.841889 0.899639814 6.68188239e-25)
(22.8425658 0.893453911 7.90377169e-24)
(22.849592 0.882908289 3.13063015e-25)
(22.8528689 0.877712513 2.60771225e-25)
(22.8549337 0.884371782 -7.46892482e-24)
(22.8570738 0.882763543 -7.32538368e-24)
(22.8609223 0.87572104 2.43379268e-25)
(22.8708434 0.870981971 2.60817935e-25)
(22.8982653 0.859886677 -4.68531157e-26)
(22.9354076 0.842619512 1.74235836e-25)
(22.9794242 0.827017731 9.17877968e-24)
(23.0101229 0.821006411 1.87996522e-23)
(23.0190319 0.839399535 9.86647564e-24)
(22.9681606 0.832836889 -2.29422942e-25)
(-0.108862143 0.0476327571 0)
(-0.299210878 0.131830774 -4.75930648e-27)
(-0.464027543 0.206298555 5.02547243e-27)
(-0.602225218 0.27095082 -4.61369348e-26)
(-0.713187126 0.325900994 5.58351283e-27)
(-0.796587948 0.371426269 5.88408184e-27)
(-0.852310386 0.407923602 -7.08628008e-26)
(-0.880384409 0.435884214 0)
(-0.880917522 0.455884083 1.36861493e-26)
(-0.854125504 0.468512908 -1.06428004e-25)
(-0.799975713 0.474438816 -1.0456365e-25)
(-0.718487702 0.474265963 1.3387716e-25)
(-0.609481636 0.468645848 1.69185567e-26)
(-0.472587032 0.458201891 -3.04732047e-25)
(-0.307588122 0.443507266 -3.56263489e-25)
(-0.113371894 0.425086361 -1.83754239e-25)
(0.111280468 0.403836055 -2.05774764e-26)
(0.363102966 0.380728564 -2.23382349e-25)
(0.652085882 0.354695573 -2.23908318e-25)
(0.975871138 0.326671054 2.40221756e-26)
(1.33626861 0.297633916 -2.54298691e-26)
(1.73539818 0.267850371 -1.06582605e-25)
(2.17555795 0.237671223 -3.4357094e-25)
(2.65906095 0.207521145 -7.40624582e-25)
(3.18815329 0.177847532 -3.97606417e-25)
(3.76496255 0.149102435 -6.5374565e-26)
(4.39143332 0.121739833 -3.21866803e-25)
(5.06879116 0.0963435749 7.07876319e-26)
(5.79771539 0.0735238076 -7.37888493e-26)
(6.57817725 0.0539004497 -4.82828647e-25)
(7.40928218 0.0381049151 0)
(8.28910557 0.0267765888 -1.370991e-24)
(9.21452371 0.0205447329 -1.70513866e-25)
(10.1810594 0.02000525 1.67017399e-24)
(11.182756 0.0256914571 1.7979344e-24)
(12.2120943 0.0380406669 1.93730014e-24)
(13.2599688 0.0573580433 -1.87393452e-25)