/*--------------------------------*- C++ -*----------------------------------*\
  =========                 |
  \\      /  F ield         | OpenFOAM: The Open Source CFD Toolbox
   \\    /   O peration     | Website:  https://openfoam.org
    \\  /    A nd           | Version:  8
     \\/     M anipulation  |
\*---------------------------------------------------------------------------*/
FoamFile
{
    version     2.0;
    format      ascii;
    class       volScalarField;
    location    "0.074";
    object      p;
}
// * * * * * * * * * * * * * * * * * * * * * * * * * * * * * * * * * * * * * //

dimensions      [1 -1 -2 0 0 0 0];

internalField   nonuniform List<scalar> 
42400
(
101626.407
101626.395
101626.381
101626.368
101626.356
101626.344
101626.333
101626.323
101626.314
101626.306
101626.298
101626.291
101626.285
101626.28
101626.275
101626.272
101626.269
101626.267
101626.266
101626.265
101626.265
101626.266
101626.267
101626.269
101626.271
101626.273
101626.276
101626.28
101626.283
101626.287
101626.291
101626.295
101626.299
101626.304
101626.308
101626.312
101626.316
101626.321
101626.334
101626.358
101626.385
101626.393
101626.38
101626.363
101626.346
101626.344
101626.359
101626.377
101626.397
101626.417
101626.438
101626.457
101626.497
101626.554
101626.631
101626.691
101626.73
101626.808
101626.919
101627.054
101627.2
101627.368
101627.572
101627.818
101628.105
101628.423
101628.82
101629.249
101629.608
101630.531
101631.516
101631.306
101632.525
101635.383
101636.957
101636.422
101634.822
101636.703
101641.23
101646.13
101625.589
101625.579
101625.568
101625.557
101625.548
101625.539
101625.53
101625.522
101625.515
101625.509
101625.503
101625.498
101625.494
101625.49
101625.487
101625.485
101625.484
101625.483
101625.484
101625.484
101625.486
101625.488
101625.49
101625.493
101625.497
101625.5
101625.504
101625.509
101625.513
101625.518
101625.522
101625.527
101625.53
101625.533
101625.541
101625.556
101625.574
101625.592
101625.595
101625.579
101625.562
101625.557
101625.565
101625.574
101625.583
101625.593
101625.602
101625.606
101625.628
101625.667
101625.72
101625.752
101625.757
101625.79
101625.851
101625.931
101626.013
101626.107
101626.22
101626.36
101626.531
101626.731
101626.959
101627.222
101627.536
101627.874
101628.293
101628.851
101629.172
101629.823
101631.213
101631.531
101631.94
101633.642
101633.481
101635.624
101639.447
101643.343
101645.893
101647.23
101624.675
101624.667
101624.658
101624.65
101624.643
101624.636
101624.63
101624.625
101624.62
101624.616
101624.612
101624.609
101624.607
101624.606
101624.606
101624.606
101624.607
101624.609
101624.612
101624.616
101624.62
101624.625
101624.63
101624.637
101624.643
101624.651
101624.659
101624.667
101624.675
101624.684
101624.694
101624.708
101624.725
101624.743
101624.758
101624.762
101624.759
101624.756
101624.761
101624.775
101624.79
101624.804
101624.819
101624.833
101624.84
101624.864
101624.914
101624.944
101624.942
101624.957
101624.995
101625.051
101625.106
101625.165
101625.234
101625.322
101625.429
101625.555
101625.704
101625.879
101626.083
101626.324
101626.609
101626.942
101627.349
101627.807
101628.312
101629.014
101629.618
101630.272
101631.352
101631.782
101632.112
101635.324
101638.17
101639.661
101640.921
101643.425
101646.82
101648.926
101623.684
101623.678
101623.671
101623.665
101623.66
101623.655
101623.651
101623.647
101623.645
101623.643
101623.642
101623.642
101623.643
101623.645
101623.647
101623.651
101623.656
101623.662
101623.669
101623.677
101623.686
101623.696
101623.707
101623.719
101623.732
101623.745
101623.76
101623.776
101623.794
101623.815
101623.834
101623.85
101623.863
101623.875
101623.888
101623.907
101623.931
101623.955
101623.979
101624.003
101624.026
101624.043
101624.073
101624.127
101624.16
101624.166
101624.191
101624.236
101624.281
101624.327
101624.378
101624.439
101624.513
101624.599
101624.699
101624.817
101624.958
101625.128
101625.331
101625.571
101625.859
101626.193
101626.587
101627.049
101627.617
101628.303
101629.101
101629.946
101630.418
101631.11
101633.579
101636.843
101638.229
101638
101639.38
101642.764
101645.268
101647.146
101648.934
101650.746
101622.622
101622.616
101622.611
101622.606
101622.602
101622.598
101622.595
101622.594
101622.593
101622.593
101622.595
101622.597
101622.601
101622.606
101622.612
101622.62
101622.629
101622.639
101622.651
101622.665
101622.679
101622.695
101622.711
101622.729
101622.749
101622.772
101622.795
101622.819
101622.844
101622.869
101622.896
101622.925
101622.958
101622.991
101623.024
101623.058
101623.093
101623.127
101623.156
101623.196
101623.258
101623.298
101623.315
101623.351
101623.403
101623.452
101623.5
101623.553
101623.613
101623.679
101623.754
101623.84
101623.94
101624.059
101624.205
101624.38
101624.589
101624.839
101625.138
101625.486
101625.902
101626.372
101626.923
101627.539
101628.248
101628.905
101629.948
101631.937
101634.934
101637.575
101638.011
101637.651
101639.09
101641.028
101642.473
101644.593
101646.807
101648.015
101649.464
101651.2
101621.467
101621.462
101621.457
101621.452
101621.449
101621.447
101621.445
101621.445
101621.446
101621.448
101621.452
101621.458
101621.465
101621.473
101621.484
101621.496
101621.51
101621.525
101621.541
101621.558
101621.579
101621.604
101621.631
101621.66
101621.691
101621.723
101621.757
101621.793
101621.831
101621.87
101621.911
101621.952
101621.996
101622.041
101622.086
101622.126
101622.176
101622.247
101622.298
101622.328
101622.378
101622.44
101622.497
101622.554
101622.614
101622.678
101622.745
101622.818
101622.899
101622.992
101623.099
101623.226
101623.377
101623.559
101623.777
101624.039
101624.352
101624.723
101625.163
101625.67
101626.27
101626.94
101627.668
101628.502
101629.649
101631.705
101633.91
101635.176
101635.399
101636.197
101638.123
101639.598
101640.615
101642.003
101644.33
101645.924
101646.868
101648.447
101650.743
101652.445
101620.198
101620.193
101620.187
101620.183
101620.18
101620.179
101620.179
101620.181
101620.183
101620.188
101620.194
101620.203
101620.213
101620.226
101620.24
101620.256
101620.275
101620.298
101620.324
101620.352
101620.383
101620.415
101620.449
101620.486
101620.526
101620.568
101620.612
101620.659
101620.708
101620.76
101620.813
101620.864
101620.914
101620.974
101621.052
101621.114
101621.159
101621.221
101621.294
101621.362
101621.43
101621.501
101621.574
101621.649
101621.73
101621.816
101621.911
101622.017
101622.137
101622.276
101622.439
101622.633
101622.864
101623.139
101623.466
101623.854
101624.318
101624.874
101625.525
101626.276
101627.133
101628.145
101629.161
101630.481
101632.316
101633.773
101634.575
101635.509
101636.605
101637.906
101639.468
101640.928
101642.364
101643.859
101645.511
101647.1
101649.111
101650.721
101652.13
101654.006
101618.768
101618.763
101618.758
101618.755
101618.753
101618.753
101618.755
101618.759
101618.764
101618.772
101618.781
101618.793
101618.808
101618.825
101618.846
101618.87
101618.895
101618.924
101618.955
101618.99
101619.027
101619.068
101619.111
101619.158
101619.208
101619.261
101619.316
101619.374
101619.431
101619.491
101619.569
101619.653
101619.713
101619.767
101619.84
101619.923
101620.002
101620.082
101620.165
101620.25
101620.338
101620.43
101620.528
101620.633
101620.746
101620.871
101621.012
101621.172
101621.357
101621.573
101621.826
101622.121
101622.463
101622.859
101623.32
101623.854
101624.486
101625.229
101626.109
101627.04
101628.11
101629.025
101630.71
101632.726
101633.694
101634.271
101635.23
101636.998
101638.537
101639.577
101641.015
101642.672
101644.078
101645.721
101647.383
101649.424
101651.266
101652.424
101653.97
101655.846
101617.139
101617.135
101617.131
101617.129
101617.129
101617.132
101617.136
101617.143
101617.152
101617.164
101617.179
101617.197
101617.217
101617.239
101617.265
101617.295
101617.327
101617.363
101617.402
101617.445
101617.491
101617.541
101617.594
101617.65
101617.709
101617.769
101617.836
101617.916
101617.995
101618.061
101618.132
101618.217
101618.306
101618.393
101618.482
101618.574
101618.67
101618.769
101618.873
101618.983
101619.099
101619.224
101619.36
101619.509
101619.676
101619.865
101620.081
101620.329
101620.616
101620.946
101621.326
101621.758
101622.249
101622.806
101623.439
101624.1
101624.846
101625.587
101626.565
101628.193
101629.745
101631.315
101632.702
101633.022
101633.768
101635.242
101636.589
101637.76
101639.337
101640.866
101642.152
101644.221
101645.962
101647.328
101648.695
101650.295
101651.983
101653.542
101655.52
101657.156
101615.268
101615.266
101615.265
101615.266
101615.269
101615.275
101615.284
101615.295
101615.31
101615.326
101615.346
101615.369
101615.396
101615.426
101615.459
101615.496
101615.537
101615.581
101615.63
101615.682
101615.738
101615.797
101615.858
101615.926
101616.006
101616.08
101616.149
101616.23
101616.319
101616.41
101616.502
101616.598
101616.698
101616.801
101616.909
101617.022
101617.141
101617.266
101617.401
101617.545
101617.703
101617.877
101618.072
101618.29
101618.538
101618.821
101619.146
101619.517
101619.939
101620.418
101620.958
101621.563
101622.236
101622.983
101623.847
101624.709
101625.834
101627.701
101629.373
101630.108
101630.826
101631.583
101632.175
101633.484
101635.25
101636.993
101638.464
101639.661
101640.848
101642.079
101643.362
101644.836
101646.295
101647.906
101649.497
101651.126
101652.924
101654.833
101656.925
101658.894
101613.122
101613.123
101613.126
101613.131
101613.139
101613.15
101613.164
101613.181
101613.2
101613.224
101613.251
101613.281
101613.316
101613.354
101613.396
101613.442
101613.492
101613.546
101613.605
101613.665
101613.733
101613.81
101613.885
101613.957
101614.039
101614.129
101614.22
101614.315
101614.414
101614.517
101614.624
101614.736
101614.853
101614.977
101615.107
101615.246
101615.395
101615.557
101615.733
101615.929
101616.147
101616.393
101616.671
101616.987
101617.349
101617.762
101618.233
101618.768
101619.376
101620.062
101620.841
101621.703
101622.677
101623.702
101624.773
101626.367
101627.869
101628.682
101629.408
101630.353
101631.497
101632.678
101634.146
101635.859
101637.133
101638.014
101639.189
101640.708
101642.228
101643.446
101644.749
101646.512
101648.272
101649.767
101651.325
101653.002
101654.675
101656.482
101658.689
101661.027
101610.653
101610.658
101610.667
101610.678
101610.692
101610.709
101610.729
101610.753
101610.781
101610.813
101610.848
101610.888
101610.931
101610.979
101611.032
101611.088
101611.148
101611.214
101611.289
101611.363
101611.436
101611.519
101611.608
101611.7
101611.796
101611.896
101612
101612.109
101612.223
101612.342
101612.468
101612.6
101612.74
101612.889
101613.051
101613.226
101613.418
101613.631
101613.868
101614.134
101614.435
101614.775
101615.16
101615.595
101616.085
101616.633
101617.238
101617.901
101618.624
101619.391
101620.2
101621.02
101622.206
101623.936
101625.473
101626.455
101627.5
101628.882
101630.18
101631.454
101632.623
101633.843
101635.226
101636.678
101638.049
101639.637
101641.494
101642.803
101643.779
101645.228
101646.694
101647.446
101648.756
101651.023
101653.143
101655.177
101657.73
101660.543
101662.145
101663.427
101607.83
101607.842
101607.857
101607.876
101607.897
101607.923
101607.952
101607.985
101608.022
101608.063
101608.109
101608.159
101608.213
101608.272
101608.336
101608.408
101608.481
101608.555
101608.637
101608.725
101608.817
101608.912
101609.013
101609.117
101609.227
101609.342
101609.462
101609.587
101609.72
101609.86
101610.009
101610.169
101610.342
101610.531
101610.738
101610.969
101611.227
101611.518
101611.846
101612.218
101612.64
101613.117
101613.657
101614.264
101614.943
101615.697
101616.532
101617.448
101618.457
101619.549
101620.662
101622.355
101623.781
101624.542
101625.402
101626.538
101627.703
101628.83
101630.034
101631.466
101632.914
101634.398
101636.021
101637.475
101639.013
101640.753
101642.285
101643.468
101644.663
101646.235
101648.001
101649.76
101651.612
101653.508
101655.669
101657.972
101660.265
101661.988
101663.48
101665.325
101604.608
101604.627
101604.652
101604.68
101604.711
101604.746
101604.786
101604.83
101604.878
101604.931
101604.989
101605.053
101605.12
101605.191
101605.267
101605.349
101605.437
101605.528
101605.624
101605.725
101605.831
101605.941
101606.057
101606.178
101606.305
101606.438
101606.579
101606.728
101606.886
101607.057
101607.242
101607.444
101607.667
101607.914
101608.191
101608.502
101608.852
101609.249
101609.697
101610.203
101610.773
101611.412
101612.126
101612.917
101613.784
101614.723
101615.738
101616.796
101617.944
101619.105
101620.581
101621.861
101622.789
101623.985
101625.367
101626.87
101628.306
101629.54
101630.794
101632.386
101634.263
101635.728
101636.791
101638.042
101639.737
101640.915
101642.129
101643.934
101645.739
101647.804
101649.746
101651.593
101653.426
101655.295
101657.397
101659.334
101660.953
101662.976
101665.465
101667.934
101600.963
101600.993
101601.029
101601.069
101601.112
101601.159
101601.211
101601.268
101601.33
101601.397
101601.467
101601.544
101601.626
101601.713
101601.804
101601.901
101602.003
101602.11
101602.222
101602.34
101602.463
101602.592
101602.728
101602.87
101603.021
101603.18
101603.351
101603.535
101603.734
101603.951
101604.19
101604.455
101604.75
101605.08
101605.45
101605.866
101606.333
101606.857
101607.442
101608.093
101608.814
101609.608
101610.48
101611.429
101612.452
101613.536
101614.665
101615.75
101617.179
101619.198
101620.271
101621.13
101622.501
101623.988
101625.386
101626.522
101627.774
101629.16
101630.602
101631.973
101633.4
101635.465
101637.203
101638.66
101640.295
101641.941
101643.761
101645.673
101647.417
101649.007
101650.744
101652.604
101654.377
101656.177
101658.366
101660.977
101663.421
101665.581
101667.263
101669.013
101596.859
101596.901
101596.951
101597.003
101597.06
101597.122
101597.188
101597.259
101597.336
101597.418
101597.505
101597.597
101597.694
101597.797
101597.906
101598.02
101598.14
101598.265
101598.397
101598.536
101598.682
101598.837
101599
101599.175
101599.362
101599.564
101599.784
101600.024
101600.29
101600.583
101600.91
101601.275
101601.684
101602.14
101602.651
101603.219
101603.85
101604.547
101605.311
101606.144
101607.043
101607.997
101609.003
101610.022
101611.253
101612.937
101614.885
101616.881
101617.976
101618.441
101619.309
101620.854
101622.385
101623.866
101625.423
101626.937
101628.239
101629.679
101631.364
101633.027
101634.545
101635.769
101637.429
101639.782
101641.82
101643.602
101645.323
101647.141
101648.997
101650.65
101652.563
101654.642
101656.475
101658.324
101661.033
101663.245
101664.705
101666.547
101668.541
101670.342
101592.298
101592.353
101592.419
101592.487
101592.559
101592.636
101592.719
101592.807
101592.9
101592.998
101593.103
101593.213
101593.329
101593.451
101593.579
101593.714
101593.857
101594.007
101594.166
101594.335
101594.514
101594.707
101594.914
101595.139
101595.385
101595.654
101595.952
101596.282
101596.649
101597.059
101597.517
101598.027
101598.596
101599.228
101599.926
101600.695
101601.535
101602.449
101603.435
101604.491
101605.599
101606.754
101608.313
101610.35
101612.227
101613.439
101614.094
101614.722
101615.86
101617.631
101619.389
101621.002
101622.575
101624.152
101625.736
101627.355
101629.102
101630.851
101632.58
101634.453
101636.653
101638.878
101640.485
101641.472
101642.681
101644.567
101646.471
101648.291
101650.253
101652.26
101654.252
101656.487
101658.926
101660.832
101662.104
101663.636
101665.783
101667.718
101669.595
101671.475
101587.271
101587.342
101587.424
101587.509
101587.597
101587.69
101587.789
101587.893
101588.002
101588.118
101588.239
101588.367
101588.502
101588.644
101588.794
101588.953
101589.121
101589.301
101589.494
101589.702
101589.926
101590.172
101590.441
101590.738
101591.067
101591.434
101591.843
101592.301
101592.814
101593.387
101594.026
101594.738
101595.526
101596.394
101597.346
101598.384
101599.506
101600.714
101602.003
101603.367
101604.771
101606.383
101607.785
101608.862
101609.902
101611.186
101612.903
101614.574
101616.246
101617.923
101619.635
101621.38
101623.205
101625.199
101627.317
101629.54
101631.246
101632.575
101634.091
101635.631
101636.962
101638.127
101639.324
101641.01
101643.287
101645.851
101648.285
101650.362
101652.363
101654.504
101656.562
101658.57
101660.799
101663.127
101664.115
101665.453
101667.631
101669.703
101671.769
101673.825
101581.842
101581.928
101582.028
101582.129
101582.233
101582.342
101582.456
101582.576
101582.701
101582.833
101582.971
101583.116
101583.27
101583.433
101583.606
101583.79
101583.988
101584.202
101584.435
101584.689
101584.968
101585.276
101585.619
101586.001
101586.427
101586.904
101587.437
101588.032
101588.694
101589.429
101590.24
101591.131
101592.104
101593.158
101594.293
101595.506
101596.791
101598.143
101599.55
101600.998
101602.538
101604.088
101605.969
101607.79
101609.406
101611.081
101612.751
101614.449
101616.14
101617.841
101619.579
101621.281
101622.961
101625.174
101627.139
101628.46
101629.898
101631.505
101633.138
101635.294
101637.852
101640.435
101643.256
101645.909
101648.1
101649.792
101651.326
101653.629
101656.162
101657.706
101659.25
101660.865
101662.161
101663.236
101664.771
101668.055
101670.836
101672.906
101675.012
101677.511
101576.102
101576.204
101576.321
101576.437
101576.556
101576.679
101576.807
101576.941
101577.081
101577.227
101577.381
101577.544
101577.717
101577.902
101578.101
101578.316
101578.551
101578.809
101579.094
101579.41
101579.762
101580.156
101580.598
101581.095
101581.651
101582.274
101582.97
101583.744
101584.601
101585.545
101586.578
101587.701
101588.913
101590.213
101591.596
101593.055
101594.582
101596.171
101597.802
101599.445
101601.135
101603.36
101605.075
101606.459
101608.247
101610.037
101611.803
101613.541
101615.25
101617.373
101620.034
101622.17
101623.657
101625.13
101627.28
101630.209
101633.074
101635.129
101636.683
101638.423
101640.755
101643.097
101644.764
101646.807
101649.212
101651.348
101654.012
101655.898
101657.513
101659.289
101661.078
101662.927
101664.829
101666.831
101669.306
101671.913
101674.442
101677.14
101679.385
101681.262
101614.471
101614.476
101614.484
101614.492
101614.501
101614.511
101614.522
101614.534
101614.546
101614.56
101614.575
101614.591
101614.608
101614.626
101614.645
101614.665
101614.687
101614.71
101614.734
101614.759
101614.786
101614.814
101614.843
101614.874
101614.907
101614.941
101614.976
101615.013
101615.052
101615.093
101615.136
101615.18
101615.227
101615.275
101615.325
101615.378
101615.433
101615.489
101615.548
101615.61
101615.673
101615.739
101615.808
101615.878
101615.951
101616.027
101616.103
101616.18
101616.257
101616.336
101616.415
101616.492
101616.565
101616.637
101616.712
101616.792
101616.879
101616.959
101617.022
101617.073
101617.11
101617.13
101617.128
101617.098
101617.034
101616.929
101616.773
101616.559
101616.278
101615.926
101615.482
101614.908
101614.174
101613.229
101612.081
101610.75
101609.28
101607.85
101606.533
101604.563
101616.237
101616.244
101616.252
101616.26
101616.269
101616.28
101616.291
101616.303
101616.316
101616.33
101616.345
101616.361
101616.377
101616.395
101616.414
101616.434
101616.455
101616.477
101616.5
101616.524
101616.549
101616.576
101616.604
101616.633
101616.664
101616.696
101616.729
101616.763
101616.799
101616.837
101616.876
101616.916
101616.958
101617.002
101617.047
101617.094
101617.142
101617.192
101617.243
101617.297
101617.351
101617.408
101617.466
101617.525
101617.586
101617.648
101617.711
101617.776
101617.841
101617.907
101617.974
101618.039
101618.099
101618.157
101618.212
101618.261
101618.301
101618.337
101618.369
101618.389
101618.394
101618.378
101618.338
101618.266
101618.155
101617.996
101617.777
101617.484
101617.098
101616.62
101616.11
101615.576
101614.988
101614.275
101613.386
101612.184
101610.589
101608.793
101606.867
101604.602
101617.872
101617.879
101617.887
101617.896
101617.906
101617.916
101617.928
101617.94
101617.953
101617.967
101617.981
101617.997
101618.013
101618.031
101618.049
101618.068
101618.088
101618.109
101618.132
101618.155
101618.179
101618.204
101618.231
101618.258
101618.287
101618.317
101618.348
101618.38
101618.413
101618.448
101618.483
101618.52
101618.558
101618.598
101618.638
101618.68
101618.723
101618.767
101618.813
101618.859
101618.907
101618.956
101619.005
101619.056
101619.107
101619.159
101619.212
101619.265
101619.318
101619.371
101619.423
101619.475
101619.525
101619.573
101619.619
101619.661
101619.693
101619.715
101619.729
101619.733
101619.724
101619.698
101619.651
101619.578
101619.473
101619.328
101619.134
101618.881
101618.56
101618.135
101617.547
101616.792
101615.844
101614.84
101613.925
101613.013
101612.049
101610.835
101609.052
101607.036
101619.377
101619.384
101619.393
101619.402
101619.411
101619.422
101619.433
101619.445
101619.458
101619.472
101619.487
101619.502
101619.518
101619.535
101619.553
101619.572
101619.592
101619.612
101619.634
101619.656
101619.679
101619.704
101619.729
101619.756
101619.783
101619.811
101619.841
101619.871
101619.902
101619.935
101619.968
101620.003
101620.039
101620.075
101620.113
101620.151
101620.191
101620.231
101620.272
101620.315
101620.358
101620.402
101620.446
101620.491
101620.537
101620.584
101620.63
101620.677
101620.724
101620.771
101620.817
101620.862
101620.907
101620.949
101620.988
101621.025
101621.056
101621.083
101621.103
101621.116
101621.118
101621.108
101621.081
101621.033
101620.959
101620.852
101620.705
101620.507
101620.251
101619.923
101619.5
101618.951
101618.273
101617.42
101616.295
101614.986
101613.47
101612.092
101611.028
101610.072
101620.763
101620.77
101620.778
101620.787
101620.797
101620.807
101620.819
101620.831
101620.844
101620.857
101620.872
101620.887
101620.903
101620.919
101620.937
101620.955
101620.974
101620.995
101621.015
101621.037
101621.06
101621.084
101621.108
101621.134
101621.16
101621.188
101621.216
101621.246
101621.276
101621.307
101621.339
101621.373
101621.407
101621.442
101621.478
101621.515
101621.553
101621.592
101621.631
101621.672
101621.714
101621.756
101621.799
101621.843
101621.888
101621.934
101621.98
101622.027
101622.074
101622.121
101622.169
101622.217
101622.265
101622.313
101622.359
101622.405
101622.448
101622.489
101622.526
101622.56
101622.587
101622.606
101622.614
101622.607
101622.58
101622.527
101622.439
101622.308
101622.122
101621.869
101621.532
101621.099
101620.557
101619.893
101619.079
101618.029
101616.733
101615.119
101612.966
101611.151
101622.029
101622.035
101622.044
101622.052
101622.062
101622.072
101622.084
101622.095
101622.108
101622.122
101622.136
101622.151
101622.166
101622.183
101622.2
101622.218
101622.237
101622.257
101622.278
101622.3
101622.322
101622.346
101622.37
101622.395
101622.421
101622.449
101622.477
101622.506
101622.536
101622.567
101622.599
101622.632
101622.666
101622.701
101622.738
101622.775
101622.813
101622.852
101622.893
101622.935
101622.977
101623.021
101623.067
101623.113
101623.161
101623.21
101623.26
101623.312
101623.365
101623.42
101623.476
101623.534
101623.593
101623.654
101623.716
101623.78
101623.845
101623.91
101623.976
101624.042
101624.106
101624.168
101624.225
101624.273
101624.309
101624.327
101624.318
101624.275
101624.185
101624.035
101623.811
101623.496
101623.074
101622.524
101621.828
101620.971
101619.937
101618.719
101617.253
101615.289
101623.179
101623.186
101623.194
101623.202
101623.211
101623.221
101623.232
101623.244
101623.256
101623.269
101623.283
101623.298
101623.313
101623.329
101623.347
101623.364
101623.383
101623.403
101623.423
101623.445
101623.467
101623.49
101623.515
101623.54
101623.566
101623.593
101623.621
101623.651
101623.681
101623.712
101623.745
101623.778
101623.813
101623.849
101623.886
101623.925
101623.965
101624.006
101624.049
101624.094
101624.14
101624.188
101624.237
101624.289
101624.343
101624.399
101624.457
101624.518
101624.582
101624.649
101624.719
101624.792
101624.868
101624.949
101625.034
101625.123
101625.216
101625.314
101625.417
101625.523
101625.634
101625.747
101625.862
101625.976
101626.086
101626.187
101626.271
101626.33
101626.353
101626.327
101626.237
101626.067
101625.798
101625.413
101624.894
101624.23
101623.411
101622.43
101621.247
101619.88
101624.213
101624.219
101624.226
101624.234
101624.243
101624.252
101624.263
101624.274
101624.286
101624.298
101624.312
101624.326
101624.341
101624.357
101624.374
101624.391
101624.41
101624.429
101624.45
101624.471
101624.493
101624.516
101624.54
101624.566
101624.592
101624.619
101624.648
101624.677
101624.708
101624.74
101624.773
101624.808
101624.844
101624.881
101624.92
101624.961
101625.004
101625.048
101625.094
101625.142
101625.193
101625.246
101625.301
101625.36
101625.422
101625.487
101625.555
101625.628
101625.705
101625.786
101625.873
101625.965
101626.063
101626.167
101626.278
101626.397
101626.523
101626.658
101626.801
101626.954
101627.115
101627.285
101627.463
101627.648
101627.836
101628.026
101628.21
101628.381
101628.529
101628.642
101628.704
101628.698
101628.608
101628.412
101628.099
101627.66
101627.08
101626.349
101625.429
101624.323
101625.131
101625.136
101625.143
101625.15
101625.158
101625.166
101625.176
101625.186
101625.197
101625.209
101625.222
101625.236
101625.25
101625.265
101625.281
101625.298
101625.316
101625.335
101625.355
101625.376
101625.397
101625.42
101625.444
101625.469
101625.495
101625.522
101625.55
101625.58
101625.611
101625.644
101625.677
101625.713
101625.75
101625.789
101625.829
101625.872
101625.917
101625.964
101626.014
101626.066
101626.122
101626.18
101626.242
101626.308
101626.378
101626.452
101626.532
101626.617
101626.708
101626.805
101626.909
101627.021
101627.142
101627.271
101627.41
101627.559
101627.72
101627.893
101628.078
101628.277
101628.49
101628.717
101628.958
101629.214
101629.481
101629.759
101630.043
101630.328
101630.604
101630.86
101631.084
101631.258
101631.363
101631.377
101631.289
101631.091
101630.773
101630.315
101629.68
101628.89
101625.933
101625.937
101625.942
101625.948
101625.955
101625.963
101625.971
101625.98
101625.991
101626.001
101626.013
101626.026
101626.039
101626.053
101626.068
101626.084
101626.101
101626.119
101626.138
101626.158
101626.179
101626.201
101626.224
101626.248
101626.274
101626.3
101626.328
101626.358
101626.389
101626.421
101626.455
101626.491
101626.528
101626.569
101626.61
101626.654
101626.7
101626.75
101626.803
101626.858
101626.917
101626.981
101627.048
101627.12
101627.198
101627.281
101627.37
101627.466
101627.57
101627.682
101627.803
101627.933
101628.074
101628.227
101628.392
101628.571
101628.764
101628.973
101629.198
101629.441
101629.703
101629.984
101630.285
101630.607
101630.948
101631.309
101631.686
101632.076
101632.473
101632.868
101633.25
101633.604
101633.911
101634.148
101634.295
101634.346
101634.293
101634.105
101633.768
101633.248
101626.621
101626.624
101626.627
101626.632
101626.637
101626.643
101626.65
101626.658
101626.666
101626.676
101626.686
101626.697
101626.709
101626.721
101626.735
101626.75
101626.765
101626.782
101626.799
101626.817
101626.837
101626.857
101626.879
101626.902
101626.926
101626.952
101626.978
101627.006
101627.036
101627.067
101627.101
101627.136
101627.173
101627.212
101627.253
101627.297
101627.345
101627.396
101627.45
101627.508
101627.57
101627.636
101627.708
101627.784
101627.867
101627.957
101628.053
101628.158
101628.272
101628.395
101628.529
101628.675
101628.833
101629.006
101629.193
101629.397
101629.618
101629.859
101630.12
101630.402
101630.706
101631.034
101631.387
101631.766
101632.17
101632.602
101633.059
101633.539
101634.04
101634.555
101635.075
101635.59
101636.083
101636.534
101636.918
101637.209
101637.4
101637.465
101637.399
101637.023
101627.191
101627.192
101627.194
101627.196
101627.199
101627.203
101627.208
101627.213
101627.22
101627.227
101627.235
101627.244
101627.253
101627.264
101627.275
101627.287
101627.3
101627.314
101627.33
101627.346
101627.363
101627.382
101627.402
101627.423
101627.445
101627.469
101627.494
101627.521
101627.549
101627.58
101627.612
101627.646
101627.682
101627.721
101627.762
101627.807
101627.854
101627.904
101627.958
101628.016
101628.078
101628.144
101628.217
101628.296
101628.382
101628.476
101628.578
101628.689
101628.81
101628.942
101629.086
101629.244
101629.415
101629.601
101629.803
101630.022
101630.261
101630.522
101630.807
101631.117
101631.453
101631.817
101632.211
101632.634
101633.089
101633.575
101634.093
101634.644
101635.225
101635.833
101636.463
101637.108
101637.755
101638.389
101638.99
101639.529
101639.972
101640.29
101640.489
101640.394
101627.653
101627.652
101627.651
101627.651
101627.651
101627.653
101627.655
101627.658
101627.662
101627.667
101627.672
101627.679
101627.686
101627.694
101627.703
101627.713
101627.724
101627.736
101627.749
101627.763
101627.778
101627.794
101627.812
101627.83
101627.85
101627.871
101627.894
101627.919
101627.944
101627.971
101628
101628.032
101628.067
101628.103
101628.142
101628.184
101628.229
101628.278
101628.331
101628.389
101628.451
101628.519
101628.592
101628.671
101628.756
101628.849
101628.951
101629.061
101629.181
101629.313
101629.456
101629.613
101629.783
101629.968
101630.169
101630.387
101630.641
101630.932
101631.243
101631.579
101631.941
101632.331
101632.751
101633.2
101633.679
101634.19
101634.737
101635.324
101635.951
101636.614
101637.312
101638.041
101638.797
101639.565
101640.333
101641.085
101641.796
101642.43
101642.944
101643.212
101627.996
101627.992
101627.988
101627.985
101627.982
101627.98
101627.98
101627.98
101627.98
101627.982
101627.984
101627.988
101627.992
101627.997
101628.003
101628.01
101628.018
101628.027
101628.037
101628.048
101628.06
101628.074
101628.088
101628.104
101628.12
101628.138
101628.157
101628.177
101628.199
101628.225
101628.251
101628.279
101628.308
101628.34
101628.375
101628.413
101628.453
101628.496
101628.543
101628.593
101628.648
101628.709
101628.776
101628.849
101628.931
101629.02
101629.119
101629.229
101629.351
101629.486
101629.637
101629.805