/*--------------------------------*- C++ -*----------------------------------*\
  =========                 |
  \\      /  F ield         | OpenFOAM: The Open Source CFD Toolbox
   \\    /   O peration     | Website:  https://openfoam.org
    \\  /    A nd           | Version:  8
     \\/     M anipulation  |
\*---------------------------------------------------------------------------*/
FoamFile
{
    version     2.0;
    format      ascii;
    class       volScalarField;
    location    "0.074";
    object      p_rgh;
}
// * * * * * * * * * * * * * * * * * * * * * * * * * * * * * * * * * * * * * //

dimensions      [1 -1 -2 0 0 0 0];

internalField   nonuniform List<scalar> 
42400
(
101626.223
101626.21
101626.196
101626.183
101626.171
101626.16
101626.15
101626.14
101626.131
101626.123
101626.115
101626.109
101626.103
101626.098
101626.094
101626.091
101626.089
101626.087
101626.087
101626.087
101626.087
101626.089
101626.091
101626.093
101626.097
101626.1
101626.104
101626.108
101626.113
101626.118
101626.123
101626.128
101626.134
101626.139
101626.145
101626.15
101626.155
101626.163
101626.179
101626.205
101626.233
101626.243
101626.231
101626.217
101626.202
101626.202
101626.219
101626.239
101626.261
101626.284
101626.308
101626.329
101626.371
101626.43
101626.509
101626.572
101626.614
101626.695
101626.81
101626.948
101627.096
101627.268
101627.476
101627.727
101628.016
101628.338
101628.734
101629.146
101629.536
101630.446
101631.236
101631.086
101632.462
101634.865
101635.898
101635.163
101633.955
101636.998
101642.391
101645.932
101625.37
101625.36
101625.348
101625.338
101625.328
101625.319
101625.311
101625.303
101625.296
101625.29
101625.285
101625.28
101625.276
101625.273
101625.27
101625.269
101625.268
101625.268
101625.268
101625.27
101625.272
101625.274
101625.277
101625.281
101625.285
101625.29
101625.295
101625.3
101625.305
101625.31
101625.316
101625.321
101625.326
101625.33
101625.34
101625.356
101625.375
101625.394
101625.396
101625.381
101625.366
101625.363
101625.372
101625.382
101625.393
101625.405
101625.415
101625.421
101625.443
101625.484
101625.538
101625.571
101625.578
101625.613
101625.676
101625.757
101625.841
101625.937
101626.053
101626.195
101626.368
101626.571
101626.801
101627.067
101627.379
101627.717
101628.14
101628.666
101628.993
101629.726
101630.978
101631.226
101631.855
101633.426
101633.385
101635.656
101639.393
101642.795
101645.157
101646.847
101624.417
101624.409
101624.401
101624.393
101624.386
101624.379
101624.373
101624.368
101624.363
101624.359
101624.356
101624.353
101624.351
101624.35
101624.35
101624.351
101624.352
101624.355
101624.358
101624.362
101624.366
101624.372
101624.378
101624.384
101624.392
101624.4
101624.408
101624.417
101624.426
101624.435
101624.446
101624.461
101624.478
101624.497
101624.512
101624.517
101624.515
101624.512
101624.518
101624.533
101624.549
101624.564
101624.58
101624.595
101624.603
101624.628
101624.679
101624.709
101624.709
101624.725
101624.764
101624.821
101624.877
101624.937
101625.008
101625.096
101625.205
101625.333
101625.483
101625.659
101625.865
101626.107
101626.392
101626.726
101627.129
101627.579
101628.088
101628.77
101629.346
101630.043
101631.1
101631.549
101632.122
101635.336
101637.948
101639.274
101640.47
101643.076
101646.3
101648.137
101623.387
101623.38
101623.374
101623.368
101623.362
101623.358
101623.353
101623.35
101623.348
101623.346
101623.345
101623.345
101623.346
101623.348
101623.351
101623.355
101623.36
101623.366
101623.373
101623.381
101623.391
101623.401
101623.412
101623.425
101623.438
101623.451
101623.466
101623.483
101623.501
101623.522
101623.542
101623.558
101623.572
101623.585
101623.598
101623.617
101623.642
101623.666
101623.69
101623.715
101623.738
101623.756
101623.787
101623.842
101623.875
101623.881
101623.907
101623.953
101623.999
101624.046
101624.098
101624.16
101624.235
101624.322
101624.424
101624.543
101624.686
101624.857
101625.06
101625.301
101625.588
101625.92
101626.31
101626.769
101627.332
101628.013
101628.804
101629.643
101630.132
101630.861
101633.287
101636.353
101637.708
101637.677
101639.318
101642.44
101644.672
101646.48
101648.242
101649.98
101622.282
101622.276
101622.271
101622.266
101622.262
101622.259
101622.256
101622.254
101622.253
101622.254
101622.255
101622.258
101622.262
101622.267
101622.273
101622.281
101622.29
101622.301
101622.313
101622.326
101622.341
101622.356
101622.373
101622.391
101622.411
101622.434
101622.458
101622.482
101622.507
101622.532
101622.558
101622.588
101622.621
101622.654
101622.688
101622.722
101622.757
101622.791
101622.82
101622.86
101622.922
101622.963
101622.98
101623.017
101623.069
101623.119
101623.168
101623.222
101623.282
101623.35
101623.426
101623.513
101623.615
101623.736
101623.883
101624.06
101624.271
101624.522
101624.821
101625.167
101625.581
101626.046
101626.593
101627.201
101627.9
101628.573
101629.564
101631.487
101634.452
101636.982
101637.411
101637.267
101638.82
101640.59
101642.173
101644.239
101646.23
101647.449
101648.955
101650.667
101621.084
101621.079
101621.074
101621.069
101621.066
101621.064
101621.063
101621.062
101621.063
101621.065
101621.069
101621.075
101621.082
101621.09
101621.101
101621.113
101621.127
101621.142
101621.158
101621.176
101621.196
101621.221
101621.248
101621.277
101621.308
101621.34
101621.374
101621.41
101621.448
101621.487
101621.528
101621.569
101621.612
101621.657
101621.702
101621.742
101621.792
101621.862
101621.914
101621.944
101621.994
101622.056
101622.113
101622.171
101622.231
101622.295
101622.364
101622.438
101622.52
101622.614
101622.723
101622.851
101623.005
101623.189
101623.409
101623.673
101623.988
101624.358
101624.797
101625.303
101625.9
101626.558
101627.285
101628.103
101629.192
101631.267
101633.551
101634.717
101635.031
101636
101637.745
101639.104
101640.254
101641.769
101643.853
101645.353
101646.402
101648.073
101650.226
101651.815
101619.771
101619.765
101619.76
101619.756
101619.753
101619.752
101619.752
101619.753
101619.756
101619.76
101619.766
101619.775
101619.785
101619.798
101619.812
101619.828
101619.847
101619.87
101619.896
101619.924
101619.954
101619.986
101620.02
101620.057
101620.097
101620.138
101620.182
101620.229
101620.277
101620.329
101620.382
101620.433
101620.483
101620.544
101620.621
101620.682
101620.725
101620.787
101620.86
101620.928
101620.996
101621.067
101621.14
101621.216
101621.296
101621.383
101621.479
101621.586
101621.707
101621.847
101622.012
101622.209
101622.443
101622.72
101623.05
101623.44
101623.906
101624.462
101625.112
101625.864
101626.724
101627.732
101628.739
101630.119
101632.019
101633.322
101634.033
101635.008
101636.108
101637.467
101639.038
101640.492
101641.963
101643.446
101645.067
101646.652
101648.569
101650.094
101651.465
101653.301
101618.297
101618.292
101618.287
101618.284
101618.282
101618.282
101618.284
101618.287
101618.293
101618.3
101618.31
101618.321
101618.336
101618.353
101618.374
101618.397
101618.423
101618.451
101618.482
101618.516
101618.553
101618.594
101618.637
101618.683
101618.733
101618.785
101618.84
101618.897
101618.954
101619.014
101619.091
101619.174
101619.233
101619.288
101619.361
101619.443
101619.521
101619.6
101619.682
101619.767
101619.854
101619.946
101620.044
101620.148
101620.261
101620.387
101620.527
101620.688
101620.874
101621.092
101621.347
101621.643
101621.989
101622.389
101622.854
101623.393
101624.03
101624.775
101625.644
101626.578
101627.648
101628.583
101630.241
101632.185
101633.115
101633.773
101634.875
101636.591
101638.008
101639.078
101640.574
101642.164
101643.565
101645.173
101646.837
101648.859
101650.58
101651.739
101653.319
101655.187
101616.624
101616.62
101616.616
101616.614
101616.615
101616.617
101616.621
101616.628
101616.637
101616.649
101616.664
101616.681
101616.701
101616.724
101616.75
101616.779
101616.811
101616.847
101616.886
101616.928
101616.974
101617.023
101617.075
101617.131
101617.19
101617.249
101617.316
101617.395
101617.473
101617.538
101617.609
101617.693
101617.781
101617.868
101617.956
101618.047
101618.142
101618.241
101618.344
101618.453
101618.568
101618.692
101618.827
101618.975
101619.141
101619.329
101619.544
101619.791
101620.078
101620.407
101620.787
101621.218
101621.71
101622.27
101622.909
101623.589
101624.37
101625.157
101626.132
101627.629
101629.165
101630.723
101632.029
101632.431
101633.264
101634.726
101636.043
101637.308
101638.876
101640.33
101641.71
101643.716
101645.35
101646.727
101648.23
101649.915
101651.513
101653.016
101654.935
101656.501
101614.712
101614.71
101614.709
101614.71
101614.713
101614.719
101614.728
101614.739
101614.753
101614.77
101614.79
101614.813
101614.839
101614.869
101614.902
101614.939
101614.979
101615.023
101615.071
101615.123
101615.179
101615.238
101615.298
101615.366
101615.445
101615.519
101615.587
101615.667
101615.756
101615.846
101615.938
101616.033
101616.132
101616.235
101616.342
101616.454
101616.571
101616.696
101616.829
101616.973
101617.13
101617.303
101617.496
101617.713
101617.96
101618.242
101618.564
101618.933
101619.353
101619.826
101620.36
101620.954
101621.615
101622.344
101623.165
101623.97
101625.075
101626.915
101628.581
101629.505
101630.25
101631.011
101631.763
101633.082
101634.79
101636.419
101637.825
101639.019
101640.212
101641.471
101642.813
101644.354
101645.862
101647.484
101649.048
101650.597
101652.35
101654.272
101656.357
101658.264
101612.526
101612.527
101612.53
101612.536
101612.544
101612.554
101612.568
101612.584
101612.604
101612.628
101612.654
101612.685
101612.719
101612.757
101612.799
101612.845
101612.895
101612.949
101613.007
101613.067
101613.134
101613.211
101613.286
101613.357
101613.439
101613.529
101613.62
101613.714
101613.812
101613.914
101614.021
101614.133
101614.25
101614.373
101614.503
101614.641
101614.79
101614.95
101615.127
101615.322
101615.539
101615.784
101616.062
101616.378
101616.738
101617.15
101617.619
101618.152
101618.757
101619.438
101620.21
101621.066
101622.032
101623.067
101624.18
101625.766
101627.261
101628.102
101628.818
101629.731
101630.851
101632.013
101633.451
101635.135
101636.371
101637.396
101638.684
101640.114
101641.465
101642.759
101644.198
101645.942
101647.638
101649.118
101650.686
101652.409
101654.153
101655.976
101658.077
101660.278
101610.02
101610.026
101610.034
101610.045
101610.059
101610.076
101610.097
101610.121
101610.148
101610.18
101610.215
101610.255
101610.298
101610.346
101610.398
101610.455
101610.515
101610.58
101610.655
101610.729
101610.802
101610.884
101610.973
101611.065
101611.16
101611.26
101611.364
101611.473
101611.587
101611.706
101611.831
101611.963
101612.103
101612.252
101612.414
101612.589
101612.781
101612.994
101613.232
101613.499
101613.8
101614.141
101614.528
101614.964
101615.457
101616.008
101616.618
101617.286
101618.015
101618.79
101619.609
101620.437
101621.607
101623.315
101624.842
101625.929
101627.012
101628.302
101629.552
101630.779
101631.991
101633.271
101634.697
101636.127
101637.473
101639.036
101640.747
101641.989
101643.202
101644.727
101646.011
101646.825
101648.239
101650.434
101652.445
101654.41
101656.861
101659.524
101661.326
101662.87
101607.163
101607.175
101607.19
101607.209
101607.23
101607.256
101607.285
101607.318
101607.355
101607.396
101607.442
101607.492
101607.546
101607.604
101607.668
101607.74
101607.813
101607.887
101607.969
101608.057
101608.149
101608.244
101608.344
101608.449
101608.559
101608.673
101608.793
101608.919
101609.052
101609.192
101609.341
101609.501
101609.674
101609.863
101610.071
101610.302
101610.56
101610.851
101611.179
101611.551
101611.973
101612.45
101612.989
101613.595
101614.272
101615.023
101615.852
101616.762
101617.761
101618.837
101619.969
101621.676
101623.143
101623.918
101624.783
101625.899
101627.063
101628.23
101629.498
101630.978
101632.426
101633.878
101635.417
101636.779
101638.271
101640.06
101641.616
101642.809
101644.033
101645.602
101647.327
101649.031
101650.886
101652.823
101655.038
101657.385
101659.556
101661.258
101662.804
101664.557
101603.908
101603.928
101603.953
101603.981
101604.012
101604.047
101604.087
101604.131
101604.179
101604.232
101604.29
101604.354
101604.421
101604.492
101604.568
101604.65
101604.738
101604.829
101604.925
101605.026
101605.132
101605.243
101605.359
101605.48
101605.607
101605.74
101605.881
101606.03
101606.19
101606.361
101606.546
101606.749
101606.973
101607.221
101607.499
101607.811
101608.163
101608.561
101609.011
101609.519
101610.091
101610.733
101611.449
101612.243
101613.113
101614.058
101615.079
101616.152
101617.312
101618.505
101620.009
101621.302
101622.213
101623.373
101624.782
101626.261
101627.618
101628.849
101630.157
101631.746
101633.431
101634.745
101635.891
101637.455
101639.181
101640.355
101641.554
101643.238
101644.998
101647.125
101649.145
101651.06
101652.919
101654.779
101656.824
101658.677
101660.436
101662.515
101664.741
101666.977
101600.235
101600.264
101600.3
101600.34
101600.383
101600.43
101600.482
101600.539
101600.601
101600.668
101600.739
101600.815
101600.897
101600.984
101601.076
101601.173
101601.275
101601.382
101601.494
101601.612
101601.735
101601.865
101602.001
101602.143
101602.294
101602.455
101602.626
101602.81
101603.01
101603.229
101603.469
101603.736
101604.033
101604.365
101604.738
101605.157
101605.628
101606.155
101606.744
101607.399
101608.125
101608.923
101609.798
101610.749
101611.77
101612.85
101613.972
101615.053
101616.498
101618.516
101619.595
101620.462
101621.831
101623.315
101624.679
101625.833
101627.139
101628.596
101630.078
101631.426
101632.881
101634.93
101636.638
101638.041
101639.553
101641.178
101643.108
101645.094
101646.865
101648.456
101650.146
101651.969
101653.745
101655.61
101657.839
101660.313
101662.602
101664.657
101666.471
101668.438
101596.103
101596.145
101596.195
101596.248
101596.305
101596.366
101596.432
101596.504
101596.58
101596.662
101596.749
101596.842
101596.939
101597.042
101597.151
101597.265
101597.385
101597.511
101597.643
101597.782
101597.928
101598.082
101598.246
101598.421
101598.608
101598.811
101599.031
101599.271
101599.537
101599.831
101600.159
101600.524
101600.934
101601.391
101601.903
101602.474
101603.108
101603.808
101604.578
101605.417
101606.325
101607.289
101608.315
101609.363
101610.574
101612.19
101614.078
101616.044
101617.22
101617.734
101618.629
101620.173
101621.691
101623.173
101624.698
101626.145
101627.444
101628.879
101630.517
101632.156
101633.629
101634.983
101636.928
101639.259
101641.245
101643.065
101644.797
101646.64
101648.461
101650.078
101651.935
101653.914
101655.729
101657.766
101660.335
101662.407
101663.947
101665.883
101667.953
101669.723
101591.518
101591.573
101591.639
101591.707
101591.779
101591.857
101591.939
101592.027
101592.12
101592.219
101592.323
101592.433
101592.549
101592.672
101592.8
101592.936
101593.078
101593.229
101593.388
101593.557
101593.737
101593.93
101594.137
101594.363
101594.609
101594.879
101595.176
101595.507
101595.875
101596.285
101596.743
101597.253
101597.822
101598.453
101599.151
101599.918
101600.757
101601.667
101602.65
101603.701
101604.803
101605.955
101607.467
101609.466
101611.424
101612.728
101613.522
101614.259
101615.351
101616.981
101618.665
101620.259
101621.822
101623.389
101624.968
101626.597
101628.337
101630.089
101631.87
101633.816
101636.034
101638.152
101639.744
101640.891
101642.218
101644.041
101645.845
101647.637
101649.59
101651.582
101653.619
101655.837
101658.116
101659.94
101661.532
101663.273
101665.243
101667.161
101669.057
101670.907
101586.471
101586.542
101586.624
101586.709
101586.797
101586.89
101586.989
101587.093
101587.203
101587.319
101587.441
101587.569
101587.704
101587.846
101587.997
101588.156
101588.325
101588.506
101588.699
101588.907
101589.133
101589.379
101589.649
101589.947
101590.277
101590.645
101591.055
101591.515
101592.028
101592.603
101593.244
101593.957
101594.746
101595.617
101596.571
101597.611
101598.736
101599.946
101601.238
101602.6
101604.006
101605.647
101607.172
101608.298
101609.309
101610.567
101612.159
101613.756
101615.449
101617.171
101618.918
101620.688
101622.535
101624.539
101626.638
101628.823
101630.588
101632.013
101633.53
101635.036
101636.376
101637.567
101638.719
101640.367
101642.707
101645.206
101647.547
101649.603
101651.633
101653.8
101655.861
101657.952
101660.315
101662.532
101663.555
101664.961
101667.087
101669.183
101671.227
101673.215
101581.022
101581.108
101581.208
101581.309
101581.413
101581.522
101581.637
101581.757
101581.883
101582.015
101582.154
101582.3
101582.454
101582.618
101582.792
101582.978
101583.177
101583.393
101583.627
101583.883
101584.165
101584.476
101584.821
101585.207
101585.637
101586.118
101586.656
101587.256
101587.925
101588.667
101589.486
101590.386
101591.368
101592.433
101593.58
101594.806
101596.106
101597.474
101598.898
101600.366
101601.936
101603.564
101605.31
101607.005
101608.662
101610.372
101612.087
101613.817
101615.522
101617.225
101618.953
101620.651
101622.409
101624.528
101626.384
101627.758
101629.19
101630.741
101632.403
101634.555
101636.999
101639.45
101642.075
101644.633
101646.909
101648.82
101650.608
101653.015
101655.485
101657.062
101658.71
101660.426
101661.825
101662.995
101664.405
101667.367
101670.14
101672.377
101674.612
101677.093
101575.261
101575.363
101575.48
101575.596
101575.715
101575.839
101575.967
101576.1
101576.24
101576.386
101576.541
101576.704
101576.877
101577.062
101577.261
101577.477
101577.713
101577.971
101578.256
101578.573
101578.926
101579.321
101579.764
101580.261
101580.819
101581.443
101582.141
101582.917
101583.776
101584.722
101585.758
101586.885
101588.101
101589.406
101590.795
101592.261
101593.797
101595.395
101597.034
101598.697
101600.398
101602.512
101604.275
101605.794
101607.595
101609.396
101611.178
101612.944
101614.694
101616.749
101619.175
101621.215
101622.712
101624.27
101626.529
101629.334
101632.123
101634.265
101635.972
101637.838
101640.043
101642.193
101643.867
101645.939
101648.437
101650.735
101653.253
101655.227
101657.026
101658.824
101660.609
101662.437
101664.279
101666.251
101668.644
101671.219
101673.816
101676.639
101678.948
101680.693
101614.21
101614.216
101614.223
101614.232
101614.24
101614.25
101614.261
101614.273
101614.286
101614.299
101614.314
101614.329
101614.346
101614.364
101614.382
101614.402
101614.423
101614.445
101614.469
101614.493
101614.519
101614.546
101614.575
101614.605
101614.636
101614.669
101614.703
101614.739
101614.777
101614.816
101614.857
101614.899
101614.943
101614.99
101615.037
101615.087
101615.139
101615.193
101615.249
101615.306
101615.366
101615.428
101615.492
101615.558
101615.626
101615.696
101615.767
101615.838
101615.909
101615.98
101616.051
101616.12
101616.184
101616.248
101616.312
101616.379
101616.453
101616.521
101616.573
101616.61
101616.632
101616.636
101616.617
101616.569
101616.486
101616.366
101616.195
101615.959
101615.655
101615.279
101614.811
101614.218
101613.475
101612.531
101611.384
101610.038
101608.527
101607.001
101605.624
101603.734
101615.972
101615.979
101615.987
101615.995
101616.005
101616.015
101616.026
101616.038
101616.051
101616.064
101616.079
101616.095
101616.111
101616.128
101616.147
101616.166
101616.186
101616.208
101616.23
101616.254
101616.278
101616.304
101616.331
101616.359
101616.389
101616.419
101616.451
101616.485
101616.519
101616.555
101616.592
101616.631
101616.67
101616.712
101616.754
101616.798
101616.844
101616.891
101616.939
101616.989
101617.04
101617.092
101617.146
101617.2
101617.256
101617.313
101617.37
101617.429
101617.487
101617.547
101617.606
101617.663
101617.715
101617.764
101617.81
101617.85
101617.879
101617.903
101617.921
101617.929
101617.921
101617.892
101617.837
101617.751
101617.625
101617.448
101617.211
101616.904
101616.506
101616.013
101615.469
101614.881
101614.233
101613.49
101612.615
101611.461
101609.91
101608.132
101606.153
101603.81
101617.61
101617.617
101617.625
101617.634
101617.644
101617.654
101617.666
101617.678
101617.69
101617.704
101617.719
101617.734
101617.75
101617.767
101617.785
101617.804
101617.823
101617.844
101617.865
101617.888
101617.911
101617.936
101617.961
101617.988
101618.016
101618.044
101618.074
101618.105
101618.137
101618.17
101618.204
101618.239
101618.275
101618.312
101618.35
101618.39
101618.43
101618.471
101618.514
101618.557
101618.601
101618.646
101618.691
101618.738
101618.784
101618.831
101618.879
101618.926
101618.973
101619.019
101619.065
101619.109
101619.151
101619.191
101619.229
101619.261
101619.285
101619.297
101619.299
101619.292
101619.27
101619.232
101619.172
101619.086
101618.966
101618.806
101618.595
101618.325
101617.986
101617.546
101616.959
101616.218
101615.292
101614.253
101613.191
101612.171
101611.17
101609.966
101608.254
101606.301
101619.124
101619.131
101619.14
101619.149
101619.159
101619.169
101619.181
101619.193
101619.206
101619.219
101619.234
101619.249
101619.265
101619.281
101619.299
101619.317
101619.336
101619.357
101619.377
101619.399
101619.422
101619.446
101619.47
101619.496
101619.522
101619.55
101619.578
101619.607
101619.637
101619.668
101619.7
101619.733
101619.767
101619.802
101619.837
101619.874
101619.911
101619.949
101619.987
101620.027
101620.066
101620.107
101620.148
101620.189
101620.231
101620.273
101620.315
101620.357
101620.398
101620.439
101620.479
101620.518
101620.555
101620.59
101620.622
101620.65
101620.674
101620.691
101620.702
101620.704
101620.696
101620.674
101620.635
101620.575
101620.487
101620.365
101620.201
101619.986
101619.71
101619.362
101618.917
101618.35
101617.651
101616.781
101615.662
101614.317
101612.719
101611.228
101610.017
101608.94
101620.525
101620.532
101620.541
101620.55
101620.559
101620.57
101620.581
101620.593
101620.606
101620.619
101620.634
101620.649
101620.664
101620.681
101620.698
101620.716
101620.735
101620.755
101620.775
101620.797
101620.819
101620.842
101620.866
101620.891
101620.917
101620.943
101620.971
101620.999
101621.029
101621.059
101621.09
101621.122
101621.154
101621.188
101621.222
101621.257
101621.293
101621.33
101621.368
101621.406
101621.445
101621.484
101621.524
101621.565
101621.607
101621.648
101621.691
101621.733
101621.776
101621.818
101621.861
101621.904
101621.946
101621.987
101622.027
101622.066
101622.102
101622.135
101622.164
101622.189
101622.206
101622.215
101622.213
101622.194
101622.155
101622.088
101621.985
101621.837
101621.632
101621.358
101621
101620.541
101619.97
101619.271
101618.422
101617.359
101616.053
101614.409
101612.264
101610.311
101621.81
101621.817
101621.826
101621.834
101621.844
101621.854
101621.866
101621.877
101621.89
101621.903
101621.918
101621.932
101621.948
101621.965
101621.982
101622
101622.019
101622.038
101622.059
101622.08
101622.102
101622.125
101622.149
101622.174
101622.2
101622.226
101622.254
101622.282
101622.312
101622.342
101622.373
101622.405
101622.438
101622.472
101622.507
101622.543
101622.58
101622.618
101622.656
101622.696
101622.737
101622.779
101622.822
101622.866
101622.911
101622.957
101623.004
101623.053
101623.102
101623.153
101623.205
101623.259
101623.314
101623.37
101623.427
101623.485
101623.544
101623.603
101623.662
101623.721
101623.778
101623.831
101623.878
101623.917
101623.942
101623.947
101623.925
101623.866
101623.758
101623.588
101623.342
101623.003
101622.553
101621.974
101621.247
101620.357
101619.29
101618.038
101616.524
101614.57
101622.984
101622.99
101622.998
101623.007
101623.016
101623.026
101623.037
101623.049
101623.061
101623.074
101623.088
101623.103
101623.118
101623.134
101623.151
101623.169
101623.188
101623.207
101623.228
101623.249
101623.271
101623.294
101623.319
101623.343
101623.369
101623.396
101623.424
101623.453
101623.483
101623.514
101623.546
101623.579
101623.613
101623.649
101623.685
101623.723
101623.762
101623.802
101623.844
101623.887
101623.932
101623.979
101624.027
101624.077
101624.129
101624.183
101624.239
101624.298
101624.359
101624.423
101624.49
101624.56
101624.634
101624.711
101624.792
101624.877
101624.967
101625.06
101625.158
101625.259
101625.363
101625.47
101625.578
101625.684
101625.785
101625.876
101625.948
101625.994
101626.001
101625.957
101625.846
101625.652
101625.358
101624.945
101624.396
101623.7
101622.846
101621.825
101620.598
101619.185
101624.042
101624.048
101624.055
101624.063
101624.072
101624.082
101624.092
101624.103
101624.115
101624.128
101624.141
101624.156
101624.171
101624.187
101624.204
101624.222
101624.24
101624.26
101624.28
101624.301
101624.324
101624.347
101624.371
101624.396
101624.423
101624.45
101624.478
101624.508
101624.539
101624.571
101624.604
101624.638
101624.674
101624.712
101624.75
101624.791
101624.833
101624.877
101624.923
101624.97
101625.02
101625.073
101625.128
101625.185
101625.246
101625.31
101625.378
101625.449
101625.525
101625.605
101625.69
101625.781
101625.877
101625.979
101626.088
101626.205
101626.329
101626.461
101626.601
101626.75
101626.908
101627.073
101627.246
101627.425
101627.608
101627.789
101627.964
101628.125
101628.26
101628.357
101628.4
101628.374
101628.26
101628.038
101627.695
101627.224
101626.61
101625.841
101624.88
101623.733
101624.984
101624.99
101624.996
101625.003
101625.011
101625.02
101625.03
101625.04
101625.052
101625.064
101625.077
101625.09
101625.105
101625.121
101625.137
101625.154
101625.172
101625.191
101625.211
101625.232
101625.254
101625.277
101625.301
101625.327
101625.353
101625.381
101625.409
101625.439
101625.471
101625.504
101625.538
101625.573
101625.611
101625.65
101625.691
101625.734
101625.78
101625.827
101625.877
101625.93
101625.985
101626.044
101626.106
101626.172
101626.242
101626.317
101626.396
101626.481
101626.572
101626.669
101626.774
101626.885
101627.005
101627.134
101627.273
101627.422
101627.582
101627.754
101627.939
101628.136
101628.348
101628.573
101628.812
101629.064
101629.328
101629.601
101629.879
101630.155
101630.422
101630.666
101630.875
101631.032
101631.115
101631.105
101630.988
101630.759
101630.404
101629.904
101629.224
101628.384
101625.81
101625.814
101625.819
101625.825
101625.832
101625.84
101625.849
101625.858
101625.868
101625.88
101625.891
101625.904
101625.918
101625.933
101625.948
101625.964
101625.982
101626
101626.019
101626.04
101626.061
101626.084
101626.107
101626.132
101626.159
101626.186
101626.214
101626.245
101626.276
101626.309
101626.344
101626.38
101626.419
101626.46
101626.503
101626.547
101626.595
101626.645
101626.699
101626.755
101626.815
101626.88
101626.948
101627.021
101627.1
101627.184
101627.275
101627.372
101627.477
101627.59
101627.712
101627.844
101627.987
101628.141
101628.307
101628.487
101628.682
101628.892
101629.119
101629.363
101629.626
101629.908
101630.209
101630.531
101630.872
101631.231
101631.605
101631.991
101632.382
101632.769
101633.14
101633.481
101633.771
101633.987
101634.109
101634.132
101634.042
101633.81
101633.422
101632.835
101626.518
101626.521
101626.525
101626.529
101626.535
101626.541
101626.548
101626.556
101626.565
101626.575
101626.585
101626.597
101626.609
101626.622
101626.636
101626.651
101626.667
101626.684
101626.702
101626.722
101626.742
101626.763
101626.786
101626.809
101626.834
101626.861
101626.888
101626.918
101626.948
101626.981
101627.015
101627.051
101627.09
101627.13
101627.173
101627.219
101627.268
101627.321
101627.376
101627.436
101627.499
101627.568
101627.641
101627.72
101627.805
101627.896
101627.995
101628.102
101628.218
101628.344
101628.481
101628.63
101628.791
101628.966
101629.157
101629.364
101629.589
101629.833
101630.097
101630.383
101630.691
101631.023
101631.379
101631.761
101632.168
101632.602
101633.06
101633.541
101634.04
101634.552
101635.067
101635.574
101636.056
101636.492
101636.856
101637.126
101637.29
101637.322
101637.214
101636.798
101627.106
101627.107
101627.108
101627.111
101627.114
101627.118
101627.123
101627.129
101627.136
101627.143
101627.152
101627.161
101627.171
101627.182
101627.194
101627.207
101627.221
101627.236
101627.252
101627.269
101627.287
101627.307
101627.327
101627.35
101627.373
101627.398
101627.425
101627.453
101627.483
101627.514
101627.548
101627.584
101627.622
101627.662
101627.705
101627.752
101627.801
101627.853
101627.909
101627.969
101628.034
101628.104
101628.179
101628.261
101628.35
101628.446
101628.552
101628.666
101628.791
101628.927
101629.075
101629.237
101629.412
101629.603
101629.809
101630.034
101630.278
101630.545
101630.836
101631.152
101631.495
101631.865
101632.265
101632.695
101633.156
101633.649
101634.173
101634.729
101635.314
101635.924
101636.554
101637.197
101637.839
101638.464
101639.052
101639.576
101639.999
101640.296
101640.475
101640.365
101627.58
101627.578
101627.577
101627.578
101627.578
101627.58
101627.583
101627.586
101627.59
101627.596
101627.602
101627.609
101627.616
101627.625
101627.635
101627.646
101627.658
101627.67
101627.684
101627.699
101627.715
101627.733
101627.751
101627.771
101627.792
101627.815
101627.839
101627.865
101627.893
101627.921
101627.952
101627.986
101628.022
101628.061
101628.102
101628.147
101628.195
101628.246
101628.302
101628.362
101628.428
101628.499
101628.575
101628.657
101628.747
101628.844
101628.949
101629.064
101629.189
101629.325
101629.473
101629.635
101629.81
101630
101630.209
101630.439
101630.703
101631
101631.318
101631.661
101632.032
101632.431
101632.859
101633.317
101633.805
101634.327
101634.886
101635.484
101636.121
101636.793
101637.498
101638.231
101638.987
101639.752
101640.513
101641.252
101641.945
101642.552
101643.032
101643.265
101627.93
101627.926
101627.921
101627.918
101627.916
101627.915
101627.914
101627.915
101627.916
101627.918
101627.921
101627.925
101627.93
101627.935
101627.942
101627.95
101627.959
101627.969
101627.98
101627.992
101628.005
101628.02
101628.036
101628.053
101628.071
101628.09
101628.111
101628.132
101628.157
101628.184
101628.213
101628.243
101628.275
101628.309
101628.346
101628.387
101628.43
101628.476
101628.526
101628.58
101628.639
101628.703
101628.774
101628.852
101628.938
101629.032
101629.137
101629.252
101629.38
101629.521
101629.678
101629.854