/*--------------------------------*- C++ -*----------------------------------*\
  =========                 |
  \\      /  F ield         | OpenFOAM: The Open Source CFD Toolbox
   \\    /   O peration     | Website:  https://openfoam.org
    \\  /    A nd           | Version:  8
     \\/     M anipulation  |
\*---------------------------------------------------------------------------*/
FoamFile
{
    version     2.0;
    format      ascii;
    class       surfaceScalarField;
    location    "0.074";
    object      phi;
}
// * * * * * * * * * * * * * * * * * * * * * * * * * * * * * * * * * * * * * //

dimensions      [1 0 -1 0 0 0 0];

internalField   nonuniform List<scalar> 
84340
(
-6.79915607e-08
3.56238934e-07
-2.88395883e-07
-2.7169271e-07
1.06232713e-06
-8.58865865e-07
-6.15042047e-07
1.78768891e-06
-1.44463554e-06
-1.10205074e-06
2.53866207e-06
-2.05199791e-06
-1.7371391e-06
3.32158443e-06
-2.68688375e-06
-2.5251623e-06
4.14140178e-06
-3.3538067e-06
-3.47140554e-06
5.00183896e-06
-4.0560637e-06
-4.5815392e-06
5.9057284e-06
-4.79610371e-06
-5.86153686e-06
6.8552278e-06
-5.57578228e-06
-7.31755952e-06
7.85196228e-06
-6.39653802e-06
-8.95581486e-06
8.89714464e-06
-7.25953755e-06
-1.07824031e-05
9.99167236e-06
-8.16578644e-06
-1.28031591e-05
1.11362013e-05
-9.11620614e-06
-1.50234981e-05
1.23311979e-05
-1.01116831e-05
-1.74482583e-05
1.35769664e-05
-1.11530989e-05
-2.00815603e-05
1.48736774e-05
-1.22413422e-05
-2.29266518e-05
1.6221374e-05
-1.3377329e-05
-2.5985765e-05
1.761998e-05
-1.45619993e-05
-2.92599558e-05
1.90693036e-05
-1.57963371e-05
-3.27489387e-05
2.05690314e-05
-1.70813715e-05
-3.64509029e-05
2.21187204e-05
-1.84181842e-05
-4.03623105e-05
2.37177818e-05
-1.98079145e-05
-4.44776615e-05
2.53654494e-05
-2.12517576e-05
-4.87892416e-05
2.70607465e-05
-2.2750952e-05
-5.32868146e-05
2.88024201e-05
-2.43067654e-05
-5.7957285e-05
3.05888689e-05
-2.59204577e-05
-6.27843069e-05
3.2418034e-05
-2.75932178e-05
-6.77478296e-05
3.42872623e-05
-2.93261e-05
-7.28235494e-05
3.61931056e-05
-3.11199058e-05
-7.79822565e-05
3.81310677e-05
-3.29750483e-05
-8.3189169e-05
4.0095429e-05
-3.48913753e-05
-8.84034777e-05
4.20791963e-05
-3.68679257e-05
-9.35780007e-05
4.4073899e-05
-3.89025963e-05
-9.86584627e-05
4.60687953e-05
-4.09917405e-05
-0.000103581183
4.80492853e-05
-4.31301559e-05
-0.000108270244
4.99969308e-05
-4.53116646e-05
-0.000112644903
5.18994037e-05
-4.75287561e-05
-0.000116617295
5.3734454e-05
-4.97662832e-05
-0.000120102855
5.54891609e-05
-5.20079465e-05
-0.000123002072
5.71134925e-05
-5.42187592e-05
-0.000125151152
5.85449471e-05
-5.64006098e-05
-0.000126297802
5.96922844e-05
-5.85506735e-05
-0.000126162973
6.04817718e-05
-6.06218713e-05
-0.00012446731
6.0836974e-05
-6.2538152e-05
-0.000120897644
6.06467094e-05
-6.42221667e-05
-0.000115107603
5.97842942e-05
-6.55804859e-05
-0.000106667772
5.81079204e-05
-6.65542249e-05
-9.51057702e-05
5.54356044e-05
-6.70044531e-05
-7.98267247e-05
5.1504267e-05
-6.6790517e-05
-6.03085611e-05
4.62218067e-05
-6.57475971e-05
-3.58793163e-05
3.92491995e-05
-6.36864485e-05
-6.17895513e-06
3.06845416e-05
-6.03933581e-05
2.98708068e-05
1.9481529e-05
-5.55401424e-05
7.33735672e-05
5.44192793e-06
-4.8953785e-05
0.000125436027
-1.19641653e-05
-4.01073747e-05
0.000187349397
-3.27233421e-05
-2.91993109e-05
0.000260589118
-5.8390791e-05
-1.4858143e-05
0.00034667144
-8.92732201e-05
3.18209184e-06
0.00044704734
-0.000125911074
2.55273487e-05
0.000564086857
-0.000169161399
5.21153756e-05
0.000699215416
-0.000220011449
8.48784048e-05
0.000854460253
-0.000279356912
0.000124110159
0.001032015
-0.000348166977
0.000170613712
0.00123431197
-0.000427771236
0.000225479712
0.00146334575
-0.000518779303
0.000289755079
0.00172023856
-0.00062163222
0.000364752225
0.00200965507
-0.000742215958
0.000452815006
0.00233040074
-0.000869570177
0.000548842384
0.00266569543
-0.000998657789
0.000663382487
0.00304739725
-0.00120361011
0.000821928843
0.00351669071
-0.0013869657
0.00091769347
0.00392785657
-0.00143638641
0.00102524136
0.00424923906
-0.00170253577
0.001381173
0.00478590425
-0.00210627842
0.00156963471
0.00551820558
-0.00219896019
0.00146667656
0.00604027649
-0.00216042619
0.00163836586
0.00626887121
-0.00247179427
0.00224320529
0.0065314418
-0.00282616317
0.00256359208
0.00698625269
-0.00300276661
0.00254792353
-0.00306994326
0.00252081527
0.00753534304
-5.4814409e-08
4.10824625e-07
-2.18782418e-07
1.22597341e-06
-4.94966428e-07
2.06350407e-06
-8.86566692e-07
2.92984944e-06
-1.39697128e-06
3.83153415e-06
-2.02992797e-06
4.77386213e-06
-2.78945704e-06
5.76082941e-06
-3.67980153e-06
6.79549009e-06
-4.70534104e-06
7.88013773e-06
-5.87047409e-06
9.0164157e-06
-7.17947339e-06
1.02054106e-05
-8.63632578e-06
1.14477337e-05
-1.02445615e-05
1.27435839e-05
-1.20070774e-05
1.40927937e-05
-1.39259655e-05
1.54948627e-05
-1.60023247e-05
1.69489674e-05
-1.82360791e-05
1.84539765e-05
-2.06257833e-05
2.00084433e-05
-2.3168408e-05
2.16105923e-05
-2.58591144e-05
2.32582998e-05
-2.86909992e-05
2.49490584e-05
-3.16548045e-05
2.66799239e-05
-3.47385982e-05
2.84474562e-05
-3.79273981e-05
3.0247627e-05
-4.12027352e-05
3.20756977e-05
-4.45421537e-05
3.39260781e-05
-4.79186228e-05
3.5792136e-05
-5.12999297e-05
3.76660335e-05
-5.46480159e-05
3.95384791e-05
-5.79182545e-05
4.13984069e-05
-6.10582106e-05
4.32322918e-05
-6.40076591e-05
4.50253336e-05
-6.67005678e-05
4.67632662e-05
-6.90603081e-05
4.84248034e-05
-7.10076974e-05
4.99927543e-05
-7.2466092e-05
5.14511298e-05
-7.33101783e-05
5.27390146e-05
-7.33847867e-05
5.38043199e-05
-7.24714662e-05
5.4570831e-05
-7.03348827e-05
5.49716014e-05
-6.67201361e-05
5.49245532e-05
-6.13647252e-05
5.43308522e-05
-5.39715373e-05
5.30822239e-05
-4.41875973e-05
5.10462945e-05
-3.16246593e-05
4.80766624e-05
-1.57977726e-05
4.39498927e-05
3.76207048e-06
3.85401891e-05
2.72887317e-05
3.19006234e-05
5.55645408e-05
2.32197308e-05
8.94362287e-05
1.2341101e-05
0.000129830763
-1.15450214e-06
0.000177793772
-1.72880575e-05
0.000234523641
-3.72581948e-05
0.000301335084
-6.13794773e-05
0.000379491473
-9.01303409e-05
0.000470913084
-0.000124154426
0.000576791456
-0.000164277879
0.000698781712
-0.000211271187
0.000838809597
-0.000265945026
0.000998862493
-0.000329218287
0.0011808518
-0.000402001952
0.00138678563
-0.000485288761
0.00161846481
-0.000579840673
0.00187773738
-0.000687035381
0.00216636244
-0.000807393296
0.0024824917
-0.000937748118
0.00282650742
-0.00108621642
0.00320853923
-0.00125158506
0.00360385004
-0.00139395066
0.00398061769
-0.00158035914
0.00443978678
-0.00184611625
0.00498243746
-0.00197901908
0.0053660113
-0.00208609327
0.00565982892
-0.00240008167
0.0061228757
-0.00266199678
0.00668811105
-0.00272565624
0.00701169609
-0.00279538011
0.00712627991
-0.00294075462
0.00722306844
-0.00309957458
-0.0032478533
0.00740094283
-4.23518201e-08
4.53018315e-07
-1.68759704e-07
1.35216166e-06
-3.81184207e-07
2.27567886e-06
-6.81690944e-07
3.23007772e-06
-1.07248606e-06
4.22202271e-06
-1.55581061e-06
5.25685159e-06
-2.13399064e-06
6.33864446e-06
-2.80947649e-06
7.47057888e-06
-3.58465225e-06
8.65488169e-06
-4.46171092e-06
9.89300456e-06
-5.44250249e-06
1.11856909e-05
-6.52836306e-06
1.25330373e-05
-7.7199317e-06
1.39345459e-05
-9.01695736e-06
1.53891583e-05
-1.04180956e-05
1.68952806e-05
-1.19207016e-05
1.84507887e-05
-1.35206003e-05
2.00530208e-05
-1.52118512e-05
2.16987641e-05
-1.69864807e-05
2.33842105e-05
-1.88341898e-05
2.51049098e-05
-2.07420225e-05
2.68556982e-05
-2.26939757e-05
2.86305833e-05
-2.46705338e-05
3.04226136e-05
-2.66481203e-05
3.22236984e-05
-2.85985123e-05
3.40244537e-05
-3.04881699e-05
3.58139716e-05
-3.22774314e-05
3.75794993e-05
-3.39216588e-05
3.93082171e-05
-3.5370251e-05
4.09848749e-05
-3.65669267e-05
4.25927447e-05
-3.74514996e-05
4.41143841e-05
-3.79590881e-05
4.55302634e-05
-3.79954398e-05
4.67967822e-05
-3.7446672e-05
4.78730349e-05
-3.61676795e-05
4.87105777e-05
-3.39763118e-05
4.92563739e-05
-3.06777487e-05
4.94368728e-05
-2.60516768e-05
4.91744442e-05
-1.98615247e-05
4.83766475e-05
-1.18504321e-05
4.69562487e-05
-1.72540199e-06
4.47950387e-05
1.08404295e-05
4.17602902e-05
2.62597326e-05
3.76579571e-05
4.49538739e-05
3.23469226e-05
6.71257076e-05
2.58993416e-05
9.35352182e-05
1.75346972e-05
0.000124909317
7.16025204e-06
0.000162102936
-5.29915878e-06
0.000206052539
-2.07363104e-05
0.000257849554
-3.94625841e-05
0.000318590586
-6.19023318e-05
0.000389822171
-8.85265428e-05
0.000472567489
-0.000120010324
0.000568201775
-0.000157020407
0.00067833536
-0.000200270113
0.000804696713
-0.000250521321
0.000948974842
-0.000308560436
0.00111292569
-0.000375225099
0.00129840164
-0.000451422166
0.00150719201
-0.000538007709
0.00174092075
-0.000635727399
0.00200067105
-0.000745033716
0.00228685278
-0.000866015162
0.00259909211
-0.000999265728
0.00293848382
-0.00114677449
0.00330306104
-0.00130231334
0.00368085336
-0.00146399561
0.004079438
-0.00165015544
0.0045078585
-0.00182235631
0.00490520074
-0.00197768589
0.00525558837
-0.0021964887
0.00569201585
-0.00241543224
0.0061270723
-0.00252113757
0.00637335418
-0.00264635334
0.00650694971
-0.00279558423
0.006709818
-0.00292851947
0.00694839468
-0.00303395829
0.00713407539
-0.00312644349
0.00725487407
-0.00322038933
-0.0033266134
0.00733361294
-3.40062877e-08
4.86806755e-07
-1.34591137e-07
1.45243872e-06
-3.02398021e-07
2.44313226e-06
-5.38052221e-07
3.46533621e-06
-8.42296827e-07
4.52583178e-06
-1.21581132e-06
5.62989155e-06
-1.6591561e-06
6.78147534e-06
-2.17250483e-06
7.98337301e-06
-2.75589811e-06
9.2376776e-06
-3.40892084e-06
1.05453845e-05
-4.13053693e-06
1.19066158e-05
-4.91891032e-06
1.33206677e-05
-5.77119916e-06
1.47860362e-05
-6.68334367e-06
1.63004448e-05
-7.64983569e-06
1.7860851e-05
-8.66346642e-06
1.94634294e-05
-9.71506228e-06
2.11035535e-05
-1.07931682e-05
2.27757283e-05
-1.18836694e-05
2.4473486e-05
-1.29693311e-05
2.61892555e-05
-1.40293199e-05
2.79142747e-05
-1.50388195e-05
2.96385672e-05
-1.59693817e-05
3.13515496e-05
-1.67883969e-05
3.30409669e-05
-1.74588505e-05
3.46930317e-05
-1.79391651e-05
3.62922777e-05
-1.81826443e-05
3.78208291e-05
-1.81287812e-05
3.92520504e-05
-1.77061093e-05
4.05597402e-05
-1.68298694e-05
4.17138724e-05
-1.5396088e-05
4.26777787e-05
-1.32769206e-05
4.3408061e-05
-1.03322397e-05
4.38488578e-05
-6.40116279e-06
4.39384864e-05
-1.29693661e-06
4.3602625e-05
5.19899517e-06
4.27564417e-05
1.33107361e-05
4.13208585e-05
2.3293027e-05
3.91875871e-05
3.54295485e-05
3.62352602e-05
5.00854947e-05
3.22951207e-05
6.76492764e-05
2.72257436e-05
8.83207377e-05
2.10829506e-05
0.000112805086
1.31674825e-05
0.000141748995
3.39663595e-06
0.000175898246
-8.25669198e-06
0.000216087413
-2.26617021e-05
0.000263278313
-4.00382276e-05
0.000318749539
-6.07783134e-05
0.000383375585
-8.53705544e-05
0.00045827609
-0.000114371542
0.000544747973
-0.000148382797
0.000644268511
-0.000188055759
0.000758317617
-0.000234067966
0.000888448217
-0.00028715922
0.00103626283
-0.0003480923
0.00120336731
-0.000417632609
0.00139143488
-0.000496633733
0.0016020295
-0.000585824038
0.00183638468
-0.000685779808
0.00209518245
-0.000796806139
0.00237848981
-0.000919033716
0.00268524872
-0.00105179004
0.00301361608
-0.00119437853
0.00335953649
-0.00134518081
0.00372123814
-0.00150846963
0.00409915417
-0.0016802217
0.00448344229
-0.00184827507
0.00485418127
-0.00202088472
0.00522863967
-0.00219680489
0.00559164155
-0.00234067874
0.00586682992
-0.00247166817
0.00607126671
-0.00261985655
0.00628596353
-0.00273582354
0.00648896191
-0.00284934477
0.00662284403
-0.00292946081
0.00671248327
-0.00301815606
0.00680061894
-0.00312209641
0.0068939157
-0.0032197491
0.00698758615
-0.00331407825
-0.00341612722
0.00707707603
-3.06123741e-08
5.17295952e-07
-1.19878782e-07
1.54153122e-06
-2.66959961e-07
2.59001362e-06
-4.70928765e-07
3.66908067e-06
-7.3071328e-07
4.78536806e-06
-1.04513894e-06
5.94404464e-06
-1.4127099e-06
7.14874798e-06
-1.83141402e-06
8.40175104e-06
-2.29831086e-06
9.70421816e-06
-2.80978092e-06
1.10564651e-05
-3.36130405e-06
1.24577128e-05
-3.94715882e-06
1.39060562e-05
-4.56018633e-06
1.53985533e-05
-5.19153026e-06
1.69312298e-05
-5.83034621e-06
1.8499055e-05
-6.46347816e-06
2.00958916e-05
-7.07510519e-06
2.17144481e-05
-7.64647737e-06
2.33463001e-05
-8.15595043e-06
2.49820849e-05
-8.57866897e-06
2.66110196e-05
-8.88623944e-06
2.82208073e-05
-9.04343325e-06
2.97946338e-05
-9.00956129e-06
3.13164531e-05
-8.73742731e-06
3.27675042e-05
-8.17170513e-06
3.41258713e-05
-7.24718864e-06
3.53662067e-05
-5.88650745e-06
3.64584698e-05
-4.00274119e-06
3.73664741e-05
-1.49267879e-06
3.80477324e-05
1.76645436e-06
3.84526484e-05
5.91933902e-06
3.85226436e-05
1.11344401e-05
3.81905409e-05
1.75899414e-05
3.73907691e-05
2.54897987e-05
3.60358624e-05
3.50628603e-05
3.40266125e-05
4.65641738e-05
3.12519822e-05
6.03210622e-05
2.75606289e-05
7.66921614e-05
2.28129325e-05
9.58788446e-05
1.7044798e-05
0.000118519428
9.65058905e-06
0.000145194852
5.46223347e-07
0.000176559104
-1.02856677e-05
0.000213356668
-2.36347246e-05
0.000256428279
-3.96798656e-05
0.000306940043
-5.87735668e-05
0.000365647087
-8.1374086e-05
0.00043358067
-0.000107977335
0.000511923167
-0.000139126521
0.000601949045
-0.000175402265
0.00070500142
-0.000217429832
0.000822481957
-0.00026586917
0.000955818364
-0.000321397858
0.00110646033
-0.000384715309
0.00127580224
-0.000456506164
0.00146519998
-0.000537494552
0.00167587955
-0.000628315988
0.00190866265
-0.000729419641
0.00216382044
-0.000840983654
0.0024408596
-0.000962819849
0.00273832973
-0.00109427631
0.00305394725
-0.0012346505
0.00338409638
-0.00138193769
0.00372469248
-0.00153497246
0.00406955117
-0.00169003659
0.0044143095
-0.0018532244
0.00475444171
-0.00202034969
0.00508093115
-0.00217475998
0.00536798734
-0.00230793612
0.00560274641
-0.00243155895
0.00580140863
-0.0025393344
0.00597477575
-0.00264502677
0.00610806768
-0.00275314181
0.00622384314
-0.00285159447
0.00632463482
-0.00295013217
0.0064314779
-0.0030363026
0.00652656001
-0.00311323993
0.00660233449
-0.00319787699
0.0066732696
-0.00329069571
0.00675147234
-0.00339230048
-0.00349818816
0.00683351028
-3.11774955e-08
5.48242639e-07
-1.20539424e-07
1.63056601e-06
-2.65632655e-07
2.73473071e-06
-4.63743561e-07
3.86677067e-06
-7.11773723e-07
5.03293569e-06
-1.00609097e-06
6.23785925e-06
-1.34244141e-06
7.4845556e-06
-1.71593075e-06
8.77465608e-06
-2.12049969e-06
1.01081596e-05
-2.54865273e-06
1.14839452e-05
-2.99134829e-06
1.28996875e-05
-3.43792561e-06
1.43518616e-05
-3.87568483e-06
1.58354864e-05
-4.28956428e-06
1.73442256e-05
-4.66183679e-06
1.8870382e-05
-4.97198899e-06
2.0405032e-05
-5.19562457e-06
2.19370032e-05
-5.30419882e-06
2.34537213e-05
-5.26485508e-06
2.49415088e-05
-5.0395576e-06
2.6384402e-05
-4.58412597e-06
2.77639642e-05
-3.84897524e-06
2.90579761e-05
-2.77573771e-06
3.02416041e-05
-1.29546405e-06
3.12855079e-05
6.7329502e-07
3.21552699e-05
3.22657133e-06
3.28109529e-05
6.47667011e-06
3.32062488e-05
1.05466206e-05
3.32942499e-05
1.55774959e-05
3.30144207e-05
2.17309978e-05
3.22965333e-05
2.91909828e-05
3.1059857e-05
3.81666787e-05
2.92118405e-05
4.89014032e-05
2.66528241e-05
6.16867166e-05
2.32470993e-05
7.68432201e-05
1.88664084e-05
9.45833163e-05
1.35079073e-05
0.000115473463
6.66628421e-06
0.000140030945
-1.74897037e-06
0.00016883007
-1.17590868e-05
0.000202529514
-2.4053992e-05
0.000241867219
-3.87969553e-05
0.000287879492
-5.63037656e-05
0.000341236123
-7.69975259e-05
0.000402868709
-0.000101318975
0.000473843129
-0.000129754843
0.000555296719
-0.000162834878
0.000648434278
-0.000201122372
0.000754513298
-0.000245213228
0.000874821669
-0.000295718415
0.00101063017
-0.00035324615
0.00116314727
-0.000418393995
0.00133348102
-0.000491739224
0.0015225997
-0.000573841407
0.00173127705
-0.000665190502
0.00195986401
-0.000766087598
0.00220814635
-0.000876603433
0.00247513076
-0.000996408245
0.00275894122
-0.00112479756
0.00305681471
-0.00126069611
0.00336510557
-0.00140256939
0.00367890973
-0.00154845639
0.00399298675
-0.001696016
0.00430038252
-0.00184236915
0.0045993768
-0.00198903133
0.00487186583
-0.00212571351
0.00510275374
-0.00225123735
0.00529391854
-0.00236592416
0.00545755255
-0.00247156875
0.00559700009
-0.00257100467
0.0057220165
-0.00266434901
0.00582853856
-0.00275154675
0.0059199444
-0.00284454473
0.00600842126
-0.00294006961
0.00609046745
-0.00303217834
0.0061728032
-0.00311864093
0.0062603867
-0.00320082927
0.00635067997
-0.00328817845
0.00643930019
-0.00337932789
0.00652597324
-0.0034789936
-0.00358463005
0.00661239288
-3.33693904e-08
5.81479813e-07
-1.27387331e-07
1.72439421e-06
-2.77579648e-07
2.88470294e-06
-4.79006063e-07
4.06794876e-06
-7.26017704e-07
5.27967197e-06
-1.0120472e-06
6.52358634e-06
-1.32939714e-06
7.80157508e-06
-1.66902074e-06
9.11391921e-06
-2.02065062e-06
1.04593963e-05
-2.37210376e-06
1.18349694e-05
-2.70896408e-06
1.32360798e-05
-3.0142058e-06
1.46565925e-05
-3.26787587e-06
1.60885991e-05
-3.44672655e-06
1.75224689e-05
-3.52366775e-06
1.89466606e-05
-3.46754346e-06
2.03481842e-05
-3.24257454e-06
2.17112472e-05
-2.8075578e-06
2.30178492e-05
-2.11458353e-06
2.42476049e-05
-1.10738139e-06
2.53761886e-05
2.79924626e-07
2.63755591e-05
2.12166763e-06
2.72150421e-05
4.50342619e-06
2.7858557e-05
7.52307089e-06
2.82644695e-05
1.12925705e-05
2.83842645e-05
1.59398019e-05
2.81620972e-05
2.16109191e-05
2.75333822e-05
2.8478519e-05
2.64247684e-05
3.67393183e-05
2.47516005e-05
4.66228389e-05
2.24108458e-05
5.84056056e-05
1.92747745e-05
7.23025163e-05
1.53124483e-05
8.85991649e-05
1.03535139e-05
0.000107787616
4.05583917e-06
0.000130309236
-3.65816171e-06
0.000156669625
-1.2855647e-05
0.000187450501
-2.41179849e-05
0.000223299542
-3.76016153e-05
0.000265126298
-5.35896569e-05
0.000313530171
-7.24618989e-05
0.000369345568
-9.46165978e-05
0.000433528869
-0.000120491533
0.000507090219
-0.000150563556
0.000591108393
-0.000185342035
0.000686711309
-0.000225362798
0.000795045632
-0.000271174371
0.000917243546
-0.000323325531
0.00105437686
-0.000382351841
0.00120740864
-0.000448755485
0.0013771486
-0.000522991382
0.00156418531
-0.000605435935
0.00176885698
-0.000696415983
0.00199103174
-0.000796020819
0.00222994748
-0.000904110379
0.00248408491
-0.00102022868
0.00275109334
-0.00114361514
0.00302793899
-0.00127325685
0.00331056347
-0.00140742478
0.00359423235
-0.00154436754
0.00387361676
-0.00168195622
0.00414234831
-0.0018171903
0.00439537722
-0.00194904725
0.00462620255
-0.00207319665
0.00482587744
-0.00218870807
0.00498898257
-0.00228882042
0.00511715077
-0.00237940741
0.00522276789
-0.00247154292
0.00532019355
-0.0025689958
0.00541404961
-0.00266486178
0.00550410756
-0.0027544078
0.00558825044
-0.00283569049
0.00565813318
-0.00291442846
0.00572061481
-0.00300255303
0.00578654663
-0.00309811307
0.0058632214
-0.00319532095
0.00594500317
-0.00328261787
0.00603055454
-0.00337374099
0.0061248788
-0.00347366741
0.00622334514
-0.00357747601
-0.00368260413
0.00632130144
-3.41135529e-08
6.15329988e-07
-1.27905041e-07
1.81781121e-06
-2.7440768e-07
3.03077437e-06
-4.65909606e-07
4.25896802e-06
-6.93605687e-07
5.50683783e-06
-9.47317416e-07
6.77672227e-06
-1.2152014e-06
8.06883807e-06
-1.48344298e-06
9.38149375e-06
-1.73591256e-06
1.0711151e-05
-1.95398502e-06
1.20522766e-05
-2.11592316e-06
1.33971989e-05
-2.19630855e-06
1.47361019e-05
-2.16561782e-06
1.60569728e-05
-1.98971543e-06
1.73455691e-05
-1.62936049e-06
1.85852413e-05
-1.03900551e-06
1.97566929e-05
-1.6634702e-07
2.08373771e-05
1.04861781e-06
2.18015925e-05
2.67486309e-06
2.26199826e-05
4.79124218e-06
2.32583417e-05
7.48757652e-06
2.36776594e-05
1.08678768e-05
2.38330723e-05
1.50516823e-05
2.36729712e-05
2.01762815e-05
2.31379715e-05
2.63984669e-05
2.21600537e-05
3.38973328e-05
2.066107e-05
4.28808634e-05
1.85475464e-05
5.35801934e-05
1.5722976e-05
6.62032971e-05
1.21258553e-05
8.10637644e-05
7.54757186e-06
9.8546334e-05
1.78926739e-06
0.00011903585
-5.18019032e-06
0.000142994648
-1.36086686e-05
0.000170932876
-2.38860339e-05
0.000203424049
-3.61532302e-05
0.000241249683
-5.06854422e-05
0.000284951139
-6.78238783e-05
0.000335269258
-8.79244639e-05
0.000393053832
-0.00011137926
0.000459202377
-0.000138615794
0.000534670195
-0.000170090078
0.000620456308
-0.000206283602
0.000717578614
-0.000247692078
0.000827043953
-0.000294813836
0.000949811936
-0.000348137447
0.00108675397
-0.000408123249
0.00123860374
-0.000475182269
0.00140589755
-0.000549652742
0.00158890554
-0.000631770663
0.00178760608
-0.000721699175
0.00200151971
-0.000819356481
0.00222954299
-0.000924445566
0.00246983732
-0.00103632089
0.00271969716
-0.00115397551
0.00297569747
-0.0012762339
0.00323361915
-0.00140154146
0.00348946663
-0.00152910878
0.00373760537
-0.00165556786
0.00397377052
-0.00178053689
0.00419175467
-0.00189994461
0.00438807948
-0.00201351951
0.00455750834
-0.00211848043
0.00469859282
-0.00221428475
0.00480718177
-0.00229730046
0.00489680745
-0.00237845085
0.00497906363
-0.00246166801
0.00505170626
-0.00254418882
0.00511269793
-0.00262999085
0.00516849744
-0.00272066518
0.00522615815
-0.00281207205
0.00529055159
-0.00290008705
0.00535626524
-0.00298014557
0.00541939361
-0.00306568511
0.00547876032
-0.00315748436
0.00553944604
-0.00325601208
0.00560831416
-0.00335149329
0.00568660165
-0.00345204178
0.00577027015
-0.00355735304
0.00586973565
-0.00367695672
-0.00378479187
0.00597190735
-3.05871452e-08
6.45738624e-07
-1.11276501e-07
1.89824328e-06
-2.31950756e-07
3.15114964e-06
-3.81335236e-07
4.40801519e-06
-5.46548712e-07
5.67167782e-06
-7.12706536e-07
6.94247104e-06
-8.62519875e-07
8.21820601e-06
-9.75846146e-07
9.49433605e-06
-1.02921102e-06
1.07639907e-05
-9.95233213e-07
1.20177293e-05
-8.42251448e-07
1.32435993e-05
-5.33748758e-07
1.44269288e-05
-2.75937265e-08
1.5550091e-05
7.24573328e-07
1.65926143e-05
1.77829359e-06
1.75306676e-05
3.19735559e-06
1.83367066e-05
5.05430343e-06
1.89794295e-05
7.43266707e-06
1.94221485e-05
1.04279513e-05
1.96235307e-05
1.41493517e-05
1.95356806e-05
1.87217004e-05
1.91039515e-05
2.42874177e-05
1.8265891e-05
3.10087371e-05
1.69500769e-05
3.90724665e-05
1.50725505e-05
4.8686472e-05
1.25442314e-05
6.00355989e-05
9.30998954e-06
7.34320913e-05
5.14897413e-06
8.91905478e-05
-3.767686e-08
0.000107659111
-6.34505286e-06
0.000129235979
-1.4031818e-05
0.000154354425
-2.33318746e-05
0.00018359249
-3.44211283e-05
0.000217543256
-4.75624901e-05
0.000256705196
-6.30512189e-05
0.000301751037
-8.12025097e-05
0.000353428208
-0.000102366252
0.000412524517
-0.000126924035
0.000479879115
-0.000155283118
0.000556370376
-0.00018787477
0.000642895866
-0.000225145716
0.000740349128
-0.000267547942
0.000849589106
-0.000315528345
0.000971404901
-0.000369512781
0.00110647272
-0.000429886702
0.00125530268
-0.000496972555
0.0014181798
-0.000571005619
0.00159510533
-0.000652113162
0.0017857459
-0.000740298828
0.00198937333
-0.000835403536
0.00220469843
-0.00093702941
0.0024298057
-0.00104446855
0.00266204245
-0.00115668687
0.00289814436
-0.00127242714
0.00313421489
-0.00139005025
0.00336596083
-0.00150798399
0.00358848346
-0.00162406827
0.00379928293
-0.00173991251
0.00399379362
-0.0018500827
0.00416581401
-0.00195256139
0.00431244591
-0.0020465809
0.00443451145
-0.0021355897
0.00453390591
-0.00221787923
0.00461461865
-0.00229500236
0.00468245424
-0.00236514188
0.00473832863
-0.00243433042
0.0047863218
-0.00250966635
0.00483267741
-0.00259054999
0.00487512835
-0.00267244662
0.00491238535
-0.00275792704
0.00494803694
-0.00284772877
0.00499042744
-0.0029424816
0.00504540571
-0.00303512886
0.00510613094
-0.0031264174
0.00516718929
-0.00321855223
0.00522861019
-0.00331744306
0.00529547134
-0.00341836561
0.00536699903
-0.00352358347
0.00544562392
-0.00363599444
0.00553965521
-0.00377100577
-0.00389403541
0.00564888374
-2.18935148e-08
6.67314264e-07
-7.30830174e-08
1.94897991e-06
-1.39148227e-07
3.21669285e-06
-2.03890086e-07
4.47217226e-06
-2.48776718e-07
5.71592163e-06
-2.52437219e-07
6.94543336e-06
-1.90145925e-07
8.1551616e-06
-3.32521007e-08
9.33663265e-06
2.51459625e-07
1.04784107e-05
7.02297966e-07
1.15659615e-05
1.36331715e-06
1.25815861e-05
2.2850624e-06
1.35041213e-05
3.52533118e-06
1.43086878e-05
5.15035519e-06
1.49663793e-05
7.23542121e-06
1.54443105e-05
9.86718614e-06
1.5703566e-05
1.31444087e-05
1.57007398e-05
1.71797813e-05
1.53852118e-05
2.21017681e-05
1.46998778e-05
2.80561778e-05
1.35794968e-05
3.52098956e-05
1.19483458e-05
4.3750963e-05
9.72281264e-06
5.38539198e-05
6.84497629e-06
6.57908154e-05
3.13338703e-06
7.98375953e-05
-1.50494449e-06
9.63029568e-05
-7.15793085e-06
0.000115536577
-1.40873795e-05
0.000137932665
-2.24366742e-05
0.000163984639
-3.24001233e-05
0.000194159861
-4.42103359e-05
0.000228947977
-5.81234963e-05
0.000268944217
-7.44210958e-05
0.000314791918
-9.34141511e-05
0.000367177617
-0.000115441128
0.000426834859
-0.000140864219
0.000494532051
-0.000170068166
0.000571056976
-0.00020345393
0.000657198394
-0.000241429755
0.000753721064
-0.000284402903
0.00086133612
-0.000332766476
0.000980665426
-0.00038688318
0.00111219691
-0.000447065985
0.00125623334
-0.000513555559
0.00141283565
-0.000586495558
0.00158176452
-0.000665908159
0.00176242926
-0.00075167734
0.00195386847
-0.000843559484
0.00215466053
-0.000941097819
0.00236284528
-0.00104359484
0.00257585568
-0.00115004604
0.00279069615
-0.00125931499
0.00300396283
-0.00136995935
0.00321216738
-0.00148063737
0.00341143661
-0.00158932517
0.00359800381
-0.00169455692
0.00376913488
-0.00179520498
0.00391749103
-0.0018882738
0.00404233755
-0.00197493462
0.00414664138
-0.00205687182
0.0042366361
-0.00213658145
0.00431535864
-0.00221431905
0.00438912524
-0.00229165405
0.00445667775
-0.0023625617
0.00451407773
-0.00242254846
0.00456259111
-0.00248284978
0.00460054904
-0.00254763085
0.00463159193
-0.0026215998
0.00466237478
-0.00270323634
0.00469294202
-0.00278850176
0.00472291103
-0.00287770427
0.00475129775
-0.00297087494
0.00478834416
-0.00307218281
0.0048396963
-0.00317777811
0.0049005604
-0.0032794258
0.00496521854
-0.00338211117
0.00503551028
-0.00348867024
0.00511247468
-0.00360056242
0.00519982042
-0.00372335628
0.00528684887
-0.00385805175
-0.00398916421
0.00538196095
-6.92772108e-09
6.73986973e-07
-9.02821598e-09
1.95071314e-06
1.38610686e-08
3.19337709e-06
8.44245861e-08
4.401128e-06
2.28592887e-07
5.57122168e-06
4.76117019e-07
6.69732793e-06
8.61187812e-07
7.76945908e-06
1.42311462e-06
8.7740215e-06
2.2070284e-06
9.69375679e-06
3.26465077e-06
1.05075393e-05
4.65525808e-06
1.11901147e-05
6.44652211e-06
1.17119238e-05
8.71583571e-06
1.20383671e-05
1.15515333e-05
1.21295958e-05
1.50542739e-05
1.19403977e-05
1.9338583e-05
1.14179924e-05
2.4534737e-05
1.05032234e-05
3.0790664e-05
9.12781861e-06
3.82745714e-05
7.21439238e-06
4.71491898e-05
4.70317953e-06
5.76496521e-05
1.44606847e-06
7.00174361e-05
-2.64690675e-06
8.45239323e-05
-7.66360023e-06
0.000101475461
-1.38203771e-05
0.000121216605
-2.12484786e-05
0.000144180274
-3.01241538e-05
0.000170742912
-4.06527421e-05
0.00020136298
-5.30596448e-05
0.000236553919
-6.75941495e-05
0.000276871198
-8.45308961e-05
0.000322913279
-0.000104169059
0.000375318097
-0.000126829605
0.000434754452
-0.000152854401
0.000501910941
-0.00018260171
0.000577481044
-0.000216438611
0.00066214287
-0.000254734472
0.000756534587
-0.000297850313
0.000861225432
-0.000346125449
0.00097667897
-0.00039986146
0.00110321062
-0.000459303307
0.0012409402
-0.000524618104
0.00138974078
-0.000595872041
0.00154918624
-0.000673006636
0.00171850145
-0.000755816557
0.00189652517
-0.000843937861
0.00208171854
-0.000936876743
0.00227208308
-0.00103392985
0.00246513359
-0.00113415393
0.00265795679
-0.00123642344
0.00284737058
-0.0013394651
0.0030302327
-0.00144218232
0.00320341031
-0.00154314213
0.00336512114
-0.00164235342
0.00351198672
-0.00173619604
0.00364060698
-0.00182318212
0.00374930724
-0.00190391032
0.00383759052
-0.00197656333
0.00390961515
-0.00204696673
0.00397456769
-0.00212183091
0.00403508339
-0.00219710303
0.00409082081
-0.0022700624
0.00414341713
-0.00234425669
0.00419432795
-0.00241347977
0.00424850137
-0.00247672911
0.00430437575
-0.00253873178
0.00435751169
-0.0026007752
0.00440577443
-0.00266986985
0.00445134923
-0.00274881816
0.00449333244
-0.00283049233
0.00453303807
-0.00291741611
0.00457499636
-0.00301284026
0.00461293833
-0.00311013385
0.0046532991
-0.00321814944
0.00470805331
-0.00333419187
0.00477386758
-0.00344793899
0.00484742808
-0.00356224609
0.00493178168
-0.00368493129
0.00502358881
-0.00381517926
0.00510874548
-0.00394322636
-0.00406380567
0.00518337159
1.49371011e-08
6.58655582e-07
8.34469394e-08
1.88164075e-06
2.32824289e-07
3.04335056e-06
4.93904299e-07
4.1393202e-06
9.01812346e-07
5.16251309e-06
1.49665032e-06
6.10161953e-06
2.32428267e-06
6.94088675e-06
3.43718566e-06
7.66010738e-06
4.89537114e-06
8.23448611e-06
6.76725873e-06
8.63448945e-06
9.13106543e-06
8.82506434e-06
1.20758207e-05
8.76583763e-06
1.57026794e-05
8.41008487e-06
2.01263581e-05
7.70439566e-06
2.54775492e-05
6.58758228e-06
3.19038534e-05
4.98995326e-06
3.95554548e-05
2.8497682e-06
4.86345801e-05
4.67241638e-08
5.93521263e-05
-3.50524275e-06
7.1945289e-05
-7.89221467e-06
8.66805653e-05
-1.32915913e-05
0.000103855149
-1.9824028e-05
0.00012383717
-2.76483229e-05
0.000146959021
-3.69451015e-05
0.000173620571
-4.79130838e-05
0.000204265111
-6.07719406e-05
0.000239372319
-7.57633981e-05
0.000279460104
-9.31510914e-05
0.000325080587
-0.000113218521
0.000376813932
-0.000136268357
0.000435260082
-0.00016261955
0.000501026832
-0.000192600927
0.000574713897
-0.000226546269
0.00065689293
-0.000264785779
0.000748084423
-0.000307635374
0.000848728062
-0.000355383613
0.000959148247
-0.000408276226
0.00107951536
-0.000466498516
0.00120980356
-0.000530155823
0.00134974717
-0.000599253291
0.00149879785
-0.00067367535
0.00165608591
-0.000753166851
0.00182039079
-0.000837318502
0.00199012785
-0.000925560871
0.00216338535
-0.00101720265
0.00233790036
-0.00111139882
0.00251106762
-0.00120710394
0.00268005412
-0.00130314706
0.00284208618
-0.00139846201
0.00299467783
-0.00149206333
0.00313553527
-0.00158304638
0.00326344678
-0.00167105989
0.00337421198
-0.0017531245
0.00346802358
-0.00183001383
0.0035473464
-0.00190251183
0.00361619858
-0.00197276909