/*--------------------------------*- C++ -*----------------------------------*\
  =========                 |
  \\      /  F ield         | OpenFOAM: The Open Source CFD Toolbox
   \\    /   O peration     | Website:  https://openfoam.org
    \\  /    A nd           | Version:  8
     \\/     M anipulation  |
\*---------------------------------------------------------------------------*/
FoamFile
{
    version     2.0;
    format      ascii;
    class       volScalarField;
    location    "0.074";
    object      T;
}
// * * * * * * * * * * * * * * * * * * * * * * * * * * * * * * * * * * * * * //

dimensions      [0 0 0 1 0 0 0];

internalField   nonuniform List<scalar> 
42400
(
472.220191
470.643397
469.025325
467.365148
465.662097
463.915474
462.124668
460.289175
458.408622
456.482783
454.511615
452.495278
450.434172
448.328969
446.180645
443.99052
441.760294
439.492086
437.18847
434.852512
432.487805
430.0985
427.68933
425.265631
422.833355
420.399072
417.969961
415.553793
413.158892
410.794093
408.468674
406.192275
403.97481
401.826353
399.757026
397.776862
395.895676
394.122929
392.467615
390.938162
389.542296
388.28694
387.178046
386.220439
385.417687
384.771964
384.28392
383.952592
383.775193
383.746988
383.859604
384.105009
384.472032
384.945607
385.506791
386.130543
386.784104
387.434374
388.055506
388.648489
388.94363
388.891788
388.402381
387.595245
386.50548
385.050835
383.104759
380.560868
377.328159
373.231258
368.790094
363.812764
357.278752
351.005055
345.758591
339.41569
331.48879
324.980655
318.847886
314.783972
472.252314
470.740491
469.189145
467.597529
465.96496
464.290832
462.574635
460.815975
459.014595
457.1704
455.283483
453.354156
451.38298
449.370799
447.318775
445.228424
443.101656
440.940805
438.748674
436.528567
434.284319
432.02033
429.741584
427.453672
425.162798
422.87578
420.600041
418.343581
416.114946
413.92317
411.777709
409.688355
407.665133
405.718196
403.857692
402.09364
400.435818
398.89359
397.47571
396.190165
395.043913
394.04269
393.190764
392.490728
391.943322
391.547211
391.298607
391.191139
391.21586
391.360813
391.609831
391.941787
392.330374
392.748021
393.169571
393.589567
393.801943
393.761068
393.413998
392.633028
391.627624
390.320767
388.636324
386.433776
383.642935
380.214411
376.100194
371.365362
366.085518
359.987637
353.594581
347.497069
340.579638
333.29068
327.19083
321.598247
316.12003
310.696596
306.412947
302.630424
472.294326
470.867474
469.40339
467.901428
466.361015
464.781662
463.162985
461.504728
459.806777
458.069196
456.292245
454.476415
452.622455
450.731411
448.804653
446.843915
444.851329
442.82946
440.781342
438.710507
436.621017
434.517486
432.405103
430.289642
428.177465
426.075517
423.991306
421.93287
419.908732
417.927837
415.999481
414.133218
412.338768
410.625879
409.004167
407.482943
406.071024
404.776466
403.606297
402.566256
401.660513
400.891388
400.259067
399.761193
399.392614
399.145722
399.008712
398.965478
398.993438
399.072467
399.179879
399.300957
399.286285
399.108259
398.65415
397.862506
396.880802
395.643194
394.083316
392.107159
389.61714
386.569481
382.933053
378.677795
373.816942
368.413917
362.507355
356.192404
349.746407
343.023887
336.096187
329.725075
323.788044
317.922932
312.68512
308.392679
304.979345
302.098247
300.32895
300.032212
472.343059
471.014769
469.651898
468.253916
466.82037
465.350907
463.845286
462.3034
460.725304
459.111232
457.461633
455.77719
454.058859
452.307895
450.525886
448.714789
446.876955
445.015167
443.132667
441.233181
439.320944
437.400715
435.477785
433.557985
431.64767
429.753709
427.883451
426.044682
424.245561
422.494538
420.800255
419.171416
417.616642
416.144268
414.762126
413.477289
412.295795
411.222348
410.259993
409.409773
408.670335
408.037537
407.504515
407.06015
406.689845
406.377151
406.102847
405.843607
405.507285
405.046136
404.403983
403.512615
402.461047
401.19567
399.659799
397.787465
395.475767
392.682285
389.371817
385.52024
381.122657
376.179871
370.732826
364.841493
358.576138
352.074452
345.476045
338.841384
332.42567
326.354411
320.56533
315.271214
310.777696
307.020253
304.122354
301.753752
300.251376
299.947718
299.88118
299.866329
472.394887
471.171417
469.916184
468.628776
467.308869
465.956248
464.570817
463.152629
461.701901
460.219045
458.704688
457.159701
455.585229
453.982717
452.353942
450.701036
449.026518
447.333314
445.624781
443.904721
442.177395
440.447525
438.720292
437.001317
435.296639
433.612668
431.956132
430.333997
428.753365
427.221345
425.744902
424.330663
422.984704
421.712297
420.517631
419.4035
418.370973
417.419028
416.544185
415.740515
414.998964
414.307638
413.653004
412.993293
412.293981
411.516619
410.618284
409.558281
408.363935
406.992269
405.397061
403.52365
401.287705
398.648557
395.569693
392.022434
387.990574
383.470047
378.473652
373.018779
367.160621
360.98089
354.571593
348.039497
341.473142
335.021693
328.873088
323.108883
317.831371
313.170567
309.185734
305.895367
303.340948
301.518111
300.304965
299.954403
299.882592
299.862623
299.860989
299.865329
472.445713
471.325034
470.175354
468.996376
467.787898
466.54983
465.282213
463.985236
462.659259
461.304831
459.922721
458.513932
457.079733
455.621676
454.141623
452.641763
451.124627
449.593107
448.050459
446.500305
444.946626
443.393748
441.846309
440.309217
438.787595
437.286694
435.811801
434.368102
432.960538
431.593619
430.271217
428.996321
427.770767
426.594938
425.467454
424.384843
423.341407
422.328666
421.333638
420.335882
419.31102
418.231457
417.067649
415.815543
414.44646
412.927816
411.221693
409.280304
407.04814
404.48752
401.563717
398.246878
394.515101
390.35581
385.767225
380.759179
375.355187
369.583616
363.502554
357.193948
350.75277
344.288592
337.910829
331.733223
325.864368
320.416936
315.514
311.256352
307.694293
304.852294
302.722088
301.187511
300.266913
299.933101
299.868139
299.853593
299.855789
299.85525
299.853637
299.84644
472.490902
471.461612
470.405776
469.323188
468.213744
467.07745
465.914436
464.724978
463.509512
462.268651
461.003203
459.714193
458.402871
457.070734
455.719533
454.351283
452.968264
451.573018
450.168337
448.757246
447.342964
445.928867
444.518418
443.115093
441.722282
440.343165
438.980572
437.636807
436.313461
435.011187
433.729447
432.466239
431.217846
429.978558
428.74032
427.491505
426.217561
424.90236
423.527344
422.074371
420.521604
418.842994
417.006726
414.972685
412.70868
410.182144
407.361194
404.217226
400.726395
396.871016
392.641041
388.035288
383.062633
377.742588
372.104606
366.184726
360.035036
353.733232
347.369675
341.044882
334.867693
328.945636
323.390346
318.29927
313.769762
309.868
306.638132
304.109236
302.264377
301.022512
300.241071
299.963813
299.891619
299.86538
299.855654
299.851988
299.848894
299.839642
299.833996
299.832536
472.525515
471.566222
470.582249
469.57345
468.539765
467.481231
466.397999
465.290339
464.158653
463.003488
461.825545
460.625686
459.404943
458.164513
456.905766
455.630226
454.339565
453.035572
451.720124
450.39514
449.062517
447.724061
446.381391
445.035827
443.688264
442.339013
440.987632
439.632731
438.271774
436.900902
435.514793
434.106287
432.666135
431.18301
429.643224
428.031629
426.330786
424.518989
422.57282
420.46783
418.178203
415.677338
412.938616
409.93628
406.647231
403.052009
399.135878
394.890033
390.312729
385.41023
380.197884
374.700444
368.952288
362.997337
356.881572
350.676506
344.464756
338.34184
332.406138
326.760324
321.505714
316.735445
312.537338
308.969118
306.063358
303.813559
302.170737
301.06267
300.388963
300.04382
299.944599
299.901026
299.875724
299.859292
299.848766
299.842084
299.836647
299.833651
299.832535
299.832234
472.544895
471.62478
470.681005
469.713417
468.721929
467.706525
466.667267
465.604294
464.517831
463.408188
462.275756
461.121013
459.944516
458.746887
457.5288
456.290956
455.034053
453.758746
452.4656
451.155019
449.827176
448.48191
447.118611
445.736083
444.332396
442.904693
441.448931
439.959524
438.428918
436.849277
435.211035
433.50294
431.712025
429.823328
427.82013
425.684113
423.395584
420.933799
418.277455
415.405253
412.296488
408.932218
405.296156
401.375469
397.161753
392.651988
387.849458
382.764629
377.415995
371.830746
366.045547
360.106261
354.065231
347.988139
341.955121
336.053469
330.371773
325.012432
320.064511
315.610125
311.71352
308.429267
305.776458
303.738415
302.255476
301.24378
300.606739
300.242796
300.053403
299.969402
299.9199
299.888659
299.865932
299.850074
299.841019
299.836966
299.835102
299.831673
299.831506
299.831571
472.545617
471.626929
470.684534
469.718198
468.727727
467.712965
466.673796
465.61014
464.521946
463.409187
462.271852
461.109914
459.923317
458.711949
457.475619
456.21402
454.926676
453.612883
452.271627
450.901492
449.500546
448.066194
446.595002
445.0811
443.518634
441.901746
440.223558
438.476362
436.651801
434.738901
432.725339
430.597492
428.340527
425.938551
423.374855
420.632219
417.693309
414.541111
411.159691
407.534964
403.655274
399.51218
395.101271
390.423002
385.483534
380.295543
374.879005
369.262072
363.481828
357.58489
351.62715
345.671197
339.795026
334.086608
328.635602
323.530259
318.850627
314.670482
311.041433
307.998788
305.547414
303.664439
302.295717
301.35065
300.732757
300.34873
300.12625
299.992927
299.916713
299.873484
299.848823
299.837502
299.833189
299.831814
299.83181
299.831847
299.830239
299.827558
299.827051
299.82754
472.528002
471.573675
470.59465
469.590598
468.561189
467.506094
466.424972
465.317461
464.183168
463.021662
461.832452
460.614978
459.36784
458.089049
456.776922
455.429707
454.045283
452.621102
451.154125
449.640761
448.076805
446.45743
444.777165
443.031301
441.213378
439.315065
437.327031
435.238971
433.039608
430.716721
428.257243
425.647418
422.873002
419.919537
416.772663
413.418591
409.844749
406.040212
401.996331
397.70742
393.171504
388.391114
383.37413
378.134634
372.69374
367.080356
361.331958
355.495265
349.62647
343.79074
338.058489
332.512845
327.241157
322.330818
317.860705
313.893131
310.470691
307.608675
305.304037
303.527649
302.222035
301.311692
300.712307
300.336306
300.105862
299.962307
299.884826
299.855753
299.847867
299.843558
299.839237
299.833894
299.830663
299.829437
299.82889
299.828512
299.827439
299.825675
299.823113
299.823351
472.490981
471.461759
470.405763
469.322491
468.211392
467.071855
465.903187
464.704341
463.473722
462.209962
460.911447
459.576275
458.202948
456.790048
455.335248
453.835597
452.287702
450.687683
449.031125
447.31302
445.527693
443.668801
441.729274
439.701254
437.576081
435.344286
432.995617
430.519106
427.903161
425.135705
422.204358
419.096661
415.800371
412.303984
408.59706
404.670732
400.518284
396.135799
391.522888
386.68349
381.626726
376.367801
370.92889
365.339965
359.639412
353.87448
348.101514
342.385436
336.798334
331.415748
326.316052
321.579379
317.278634
313.469583
310.192666
307.461291
305.266894
303.561824
302.28642
301.375198
300.754027
300.351751
300.10554
299.96323
299.888383
299.868517
299.858798
299.854331
299.849986
299.844362
299.839231
299.833408
299.828588
299.82634
299.82531
299.823753
299.821052
299.816662
299.814587
299.816324
472.435915
471.295291
470.124804
468.923708
467.691145
466.426123
465.12697
463.792392
462.421265
461.011796
459.561923
458.069286
456.531193
454.944576
453.305946
451.611343
449.856298
448.035776
446.144169
444.175249
442.122118
439.977215
437.732311
435.378515
432.906313
430.305621
427.565874
424.676147
421.625314
418.402251
414.996196
411.397051
407.595774
403.584856
399.358879
394.915163
390.254483
385.381877
380.307512
375.047578
369.62518
364.071138
358.424604
352.733355
347.053568
341.449234
335.990727
330.752334
325.808099
321.227201
317.072635
313.393895
310.222016
307.566032
305.41514
303.735736
302.473501
301.559917
300.921451
300.49127
300.213161
300.040944
299.941617
299.893147
299.873915
299.86288
299.855503
299.849479
299.843574
299.837191
299.831997
299.827685
299.822795
299.818948
299.816531
299.814469
299.811577
299.809396
299.808657
299.809902
472.367119
471.087344
469.773924
468.425881
467.042071
465.621013
464.161374
462.661399
461.119065
459.532043
457.897671
456.21291
454.47431
452.677972
450.819516
448.894046
446.896118
444.819706
442.658192
440.404361
438.050397
435.587903
433.007932
430.301051
427.457418
424.466901
421.319226
418.004207
414.512032
410.833557
406.960701
402.886917
398.60774
394.121428
389.429677
384.538422
379.458684
374.207439
368.808454
363.293017
357.700448
352.078289
346.481992
340.974034
335.622091
330.496611
325.667449
321.200108
317.149472
313.558036
310.452591
307.838018
305.700842
304.005454
302.702707
301.736503
301.048578
300.580573
300.27685
300.089044
299.9792
299.912536
299.878376
299.861676
299.85203
299.844544
299.838028
299.833341
299.829692
299.826425
299.822947
299.819719
299.816691
299.813758
299.812937
299.81318
299.812798
299.810335
299.808687
299.808294
472.287773
470.847521
469.369311
467.851945
466.294001
464.693833
463.049682
461.359387
459.620459
457.830046
455.984898
454.081333
452.115203
450.081858
447.976124
445.792281
443.524047
441.164568
438.706431
436.141677
433.461841
430.658008
427.720897
424.640975
421.408608
418.0143
414.448926
410.704055
406.77233
402.647937
398.327149
393.808948
389.095736
384.19411
379.115675
373.877872
368.504746
363.027588
357.485337
351.924642
346.399428
340.969904
335.700767
330.659116
325.910298
321.514195
317.521704
313.971591
310.885631
308.26877
306.108248
304.374661
303.023811
302.0029
301.254173
300.723331
300.362246
300.128619
299.986724
299.906201
299.864656
299.854315
299.848956
299.845312
299.841424
299.838154
299.833358
299.829524
299.827107
299.824167
299.820576
299.817667
299.815732
299.81394
299.813153
299.813194
299.81395
299.813944
299.813756
299.814942
472.199857
470.581806
468.921046
467.216157
465.465452
463.667093
461.818907
459.918326
457.962403
455.947771
453.870614
451.726628
449.511005
447.218403
444.842932
442.378152
439.817078
437.152197
434.375508
431.478578
428.452629
425.288649
421.977557
418.510405
414.878631
411.074367
407.090822
402.922731
398.566893
394.022773
389.293189
384.385054
379.310152
374.085908
368.736095
363.291403
357.789764
352.276335
346.802997
341.427284
336.210635
331.216078
326.505099
322.135266
318.154545
314.597262
311.484496
308.822884
306.602298
304.800077
303.378626
302.289828
301.482188
300.903702
300.503203
300.235045
300.063003
299.958111
299.898138
299.867788
299.855465
299.849689
299.845826
299.842461
299.839656
299.837043
299.832879
299.829171
299.826873
299.824236
299.821056
299.818268
299.816736
299.815114
299.813641
299.812841
299.813019
299.813678
299.812839
299.81598
472.104628
470.293994
468.435528
466.527638
464.568452
462.555757
460.486979
458.359143
456.168843
453.912204
451.584858
449.181918
446.697962
444.127024
441.462603
438.697676
435.824736
432.835852
429.722749
426.476916
423.089775
419.552866
415.858099
411.998053
407.966348
403.75808
399.370336
394.802773
390.058276
385.143657
380.070391
374.855334
369.52138
364.097974
358.621401
353.134743
347.687397
342.334065
337.133143
332.14449
327.426656
323.033957
319.013374
315.399424
312.215331
309.470914
307.161532
305.268343
303.757848
302.586306
301.705567
301.065455
300.616918
300.315274
300.121227
300.001361
299.929921
299.889452
299.867571
299.854601
299.846118
299.841184
299.838461
299.835814
299.83323
299.831231
299.829012
299.826329
299.824435
299.822419
299.820594
299.818705
299.817948
299.816974
299.815529
299.813475
299.812853
299.812984
299.808809
299.80846
472.00316
469.987325
467.918217
465.794029
463.612614
461.371449
459.0676
456.697687
454.257854
451.743741
449.150464
446.472606
443.704218
440.838831
437.869489
434.788804
431.58903
428.262177
424.800151
421.194947
417.438885
413.524896
409.44688
405.200118
400.781765
396.1914
391.431647
386.508837
381.433699
376.222038
370.895343
365.481277
360.013947
354.533884
349.087638
343.726888
338.50704
333.485286
328.718201
324.258961
320.154488
316.443136
313.151159
310.292258
307.865642
305.85677
304.236784
302.967648
302.003084
301.292048
300.784146
300.433572
300.200424
300.051596
299.961317
299.908887
299.879309
299.862373
299.852183
299.84577
299.841467
299.838214
299.835297
299.832632
299.830278
299.827896
299.825572
299.822019
299.819495
299.818094
299.816599
299.815223
299.814845
299.815626
299.816653
299.816384
299.815062
299.814293
299.809974
299.807096
471.896346
469.664503
467.373651
465.021766
462.606437
460.124834
457.573674
454.949189
452.247106
449.462628
446.590428
443.624663
440.558993
437.386632
434.100414
430.692896
427.156489
423.483639
419.667046
415.699942
411.576421
407.291834
402.843256
398.230002
393.454219
388.52151
383.441587
378.228916
372.903299
367.490351
362.021784
356.535431
351.07493
345.689006
340.430282
335.353614
330.513966
325.963962
321.75126
317.915819
314.487728
311.4851
308.912327
306.757013
304.993467
303.585959
302.491236
301.663489
301.057206
300.628176
300.335198
300.142243
300.020166
299.946059
299.90189
299.875838
299.860448
299.850781
299.844197
299.839067
299.834996
299.831977
299.828009
299.823952
299.819613
299.816399
299.81433
299.812846
299.81014
299.808354
299.80784
299.807766
299.808316
299.809243
299.814513
299.819409
299.819767
299.820397
299.820302
299.819084
471.785272
469.328808
466.807379
464.218747
461.560248
458.828762
456.020685
453.131905
450.157795
447.093208
443.932496
440.669549
437.29785
433.810566
430.200667
426.461089
422.58494
418.565756
414.39781
410.076488
405.598716
400.963457
396.172259
391.229852
386.144762
380.929928
375.603273
370.188172
364.71377
359.215069
353.732708
348.31238
343.003836
337.859457
332.93241
328.274424
323.933195
319.949834
316.356452
313.173741
310.409944
308.059601
306.103592
304.512289
303.248328
302.269048
301.529491
300.985316
300.595613
300.324459
300.142156
300.024229
299.950212
299.9053
299.878829
299.861622
299.852186
299.845423
299.839363
299.834732
299.828365
299.822377
299.819131
299.81745
299.816015
299.813132
299.809927
299.80846
299.807536
299.806416
299.80584
299.80591
299.806272
299.806793
299.810241
299.818979
299.825568
299.828996
299.82893
299.830711
472.615798
471.838921
471.041727
470.223787
469.384663
468.523904
467.641047
466.735618
465.807125
464.855062
463.878901
462.878095
461.85207
460.800225
459.721925
458.616501
457.48324
456.321385
455.130127
453.908601
452.655878
451.370962
450.052784
448.700195
447.31196
445.886754
444.423159
442.919655
441.374619
439.786323
438.152929
436.472488
434.742939
432.962106
431.1277
429.237313
427.288422
425.278381
423.204417
421.063628
418.852975
416.569273
414.209189
411.769238
409.245789
406.6351
403.933372
401.136814
398.241731
395.244749
392.143183
388.935693
385.622892
382.208158
378.698441
375.105537
371.448582
367.754589
364.058891
360.404592
356.841215
353.421777
350.197848
347.212737
344.49375
342.045591
339.8476
337.856656
336.015315
334.263998
332.553849
330.858151
329.180693
327.550924
326.010295
324.623223
323.436128
322.478277
321.811187
321.419522
472.619011
471.848639
471.058136
470.247087
469.415062
468.56162
467.686303
466.788641
465.868142
464.924299
463.95658
462.964432
461.947272
460.904487
459.835429
458.739411
457.6157
456.463516
455.282024
454.070328
452.82747
451.552421
450.244078
448.901258
447.522696
446.107042
444.652857
443.158616
441.6227
440.043408
438.418952
436.747464
435.027001
433.255553
431.431047
429.55136
427.614323
425.617728
423.559337
421.436885
419.248072
416.990546
414.661847
412.259524
409.781021
407.223722
404.584906
401.861777
399.051515
396.151346
393.158709
390.071483
386.888298
383.609097
380.235946
376.774243
373.235388
369.639747
366.015045
362.396527
358.827336
355.35716
352.038996
348.923749
346.052942
343.45088
341.118271
339.028923
337.133812
335.373259
333.691019
332.044922
330.41434
328.801699
327.228437
325.734025
324.367577
323.187571
322.275672
321.698858
472.618529
471.84719
471.055709
470.243678
469.410675
468.556264
467.679993
466.781392
465.859974
464.915233
463.946637
462.953632
461.935635
460.892032
459.822173
458.725368
457.600882
456.447932
455.26568
454.053227
452.809614
451.533808
450.224707
448.881131
447.50182
446.085436
444.630558
443.135683
441.599233
440.019554
438.394924
436.72356
435.003629
433.233255
431.410535
429.533547
427.600372
425.609103
423.557872
421.444883
419.268489
417.027369
414.719412
412.343386
409.897727
407.381157
404.792325
402.129986
399.392989
396.580151
393.689957
390.719056
387.66518
384.526842
381.303447
377.996044
374.608128
371.151158
367.644928
364.116371
360.600781
357.141545
353.788471
350.594135
347.608048
344.869139
342.397937
340.190669
338.219304
336.436836
334.786887
333.213403
331.671469
330.138199
328.615402
327.12567
325.701296
324.388095
323.253865
322.384886
472.614287
471.834381
471.034131
470.213141
469.370997
468.507275
467.62153
466.713305
465.782121
464.827483
463.848871
462.845745
461.817538
460.763654
459.683463
458.576299
457.441453
456.278171
455.085647
453.863019
452.609363
451.323686
450.004928
448.651952
447.263549
445.838436
444.375256
442.87258
441.32891
439.742683
438.11228
436.436034
434.712243
432.939181
431.115112
429.23831
427.30707
425.319727
423.274669
421.170349
419.005298
416.778126
414.48752
412.132311
409.711525
407.224455
404.670715
402.050256
399.363591
396.612336
393.800541
390.925574
387.987127
384.985686
381.914555
378.771067
375.55417
372.264551
368.913978
365.522162
362.11601
358.730398
355.407885
352.196866
349.14775
346.307147
343.710692
341.376125
339.299146
337.453013
335.792684
334.262418
332.806768
331.382515
329.96685
328.556944
327.168665
325.835258
324.601044
323.522789
472.606013
471.809389
470.992013
470.153499
469.293447
468.411444
467.507061
466.579856
465.629368
464.655124
463.656631
462.633376
461.58483
460.510437
459.409617
458.281765
457.126239
455.942369
454.729446
453.486721
452.213406
450.908579
449.571233
448.200285
446.794564
445.352931
443.874181
442.357044
440.800181
439.202196
437.561637
435.877011
434.146792
432.369436
430.543397
428.667144
426.739169
424.758003
422.722212
420.630371
418.481008
416.272456
414.00257
411.669335
409.272374
406.812336
404.292104
401.712273
399.073137
396.375583
393.621479
390.813864
387.957129
385.059128
382.11798
379.133742
376.093878
372.993439
369.83043
366.616489
363.371027
360.11991
356.896129
353.739566
350.695322
347.810211
345.12741
342.679946
340.484472
338.53701
336.812306
335.26762
333.85077
332.510536
331.206453
329.914455
328.629181
327.36037
326.130321
324.97049
472.5934
471.771286
470.92778
470.062504
469.175065
468.265058
467.332068
466.375664
465.395404
464.390831
463.361478
462.306863
461.226488
460.119839
458.986384
457.825544
456.636717
455.419284
454.172595
452.895957
451.588629
450.249909
448.879067
447.475341
446.037935
444.565902
443.05823
441.513854
439.931652
438.310449
436.649023
434.946112
433.200422
431.410641
429.575456
427.69357
425.763726
423.784735
421.755504
419.675087
417.542745
415.358063
413.121166
410.832162
408.489936
406.092815
403.637802
401.12385
398.549855
395.91345
393.216871
390.476604
387.696023
384.880075
382.035492
379.171847
376.285509
373.37176
370.410312
367.398558
364.347653
361.276896
358.210473
355.178157
352.215294
349.361596
346.65835
344.143974
341.848432
339.78763
337.959415
336.342798
334.901279
333.589537
332.361754
331.179088
330.01488
328.856382
327.70457
326.573481
472.576166
471.719215
470.839985
469.938098
469.013164
468.064785
467.092553
466.09605
465.074849
464.028519
462.956623
461.858722
460.734374
459.583134
458.404558
457.198218
455.963684
454.700499
453.408198
452.0863
450.734311
449.351715
447.937975
446.492527
445.014771
443.504069
441.959738
440.381048
438.767218
437.117416
435.430757
433.706305
431.943077
430.140049
428.296167
426.410359
424.481553
422.508699
420.490793
418.426911
416.316238
414.158105
411.952015
409.697635
407.394758
405.043303
402.643346
400.195316
397.700224
395.160123
392.574424
389.935906
387.246289
384.515572
381.766921
379.006386
376.240949
373.479888
370.705809
367.898032
365.056137
362.188447
359.314123
356.455313
353.637769
350.89099
348.247518
345.741041
343.403189
341.259349
339.324279
337.598796
336.068754
334.706882
333.47706
332.34015
331.259931
330.207175
329.164615
328.132477
472.554139
471.652659
470.727763
469.779072
468.806199
467.808756
466.786351
465.738591
464.665084
463.565444
462.439289
461.286252
460.105975
458.898116
457.662351
456.398371
455.105886
453.78462
452.434313
451.054717
449.645596
448.206718
446.737856
445.238778
443.709246
442.149007
440.557784
438.935273
437.281132
435.594974
433.876361
432.124795
430.339715
428.520494
426.666438
424.77679
422.850738
420.887425
418.885968
416.84548
414.765099
412.644022
410.481539
408.277076
406.030235
403.740828
401.408932
399.03493
396.619561
394.16395
391.669524
389.138044
386.572521
383.972434
381.334199
378.681426
376.032186
373.392181
370.768109
368.146481
365.50695
362.852354
360.18531
357.524153
354.889079
352.301897
349.786145
347.366732
345.068847
342.916038
340.927584
339.115657
337.483003
336.0218
334.713761
333.533397
332.451754
331.441095
330.464494
329.534029
472.527206
471.571281
470.590548
469.584625
468.55313
467.495682
466.411905
465.301432
464.163903
462.998977
461.80633
460.585665
459.336714
458.059242
456.753052
455.417987
454.053933
452.660818
451.238618
449.787349
448.307073
446.797889
445.259936
443.69338
442.098417
440.475256
438.824115
437.145208
435.438735
433.704865
431.943725
430.155385
428.339846
426.49702
424.626729
422.728683
420.802481
418.847612
416.863458
414.849308
412.804373
410.727814
408.618781
406.476455
404.300099
402.089124
399.843148
397.562076
395.246166
392.896107
390.513081
388.098851
385.65586
383.187269
380.697342
378.183522
375.649117
373.130376
370.630806
368.156604
365.695523
363.245608
360.794249
358.347904
355.914954
353.51488
351.166795
348.889567
346.70172
344.620949
342.66321
340.84141
339.163904
337.633024
336.243403
334.983876
333.839337
332.786936
331.784112
330.873
472.495405
471.475192
470.428518
469.354989
468.25422
467.125832
465.96946
464.784753
463.571382
462.329045
461.057473
459.756439
458.425762
457.065318
455.67504
454.254928
452.805053
451.325562
449.816675
448.278696
446.712005
445.117063
443.494407
441.844642
440.168444
438.46654
436.739708
434.988752
433.214495
431.417757
429.599335
427.759981
425.900381
424.02113
422.122715
420.205484
418.269627
416.315167
414.341953
412.349642
410.337713
408.305485
406.252138
404.176752
402.078358
399.955997
397.808797
395.636054
393.43733
391.212544
388.962079
386.686873
384.388511
382.069303
379.732333
377.381294
375.021011
372.644816
370.264391
367.916827
365.601227
363.322357
361.070255
358.845909
356.637652
354.455151
352.305564
350.206953
348.17545
346.22551
344.369732
342.618584
340.979922
339.458222
338.053148
336.760177
335.572088
334.470559
333.392588
332.419139
472.459047
471.365325
470.243238
469.092369
467.912317
466.702694
465.463133
464.193292
462.892859
461.561562
460.199178
458.80554
457.380546
455.924173
454.436477
452.917611
451.367826
449.787479
448.177041
446.5371
444.868363
443.171659
441.447937
439.698262
437.923813
436.125868
434.305801
432.465057
430.60514
428.727585
426.833939
424.925725
423.004413
421.071388
419.12792
417.175128
415.213941
413.245072
411.269008
409.285967
407.295894
405.29847
403.293108
401.278992
399.255112
397.220316
395.173389
393.113126
391.038439
388.948461
386.842661
384.720957
382.583826
380.432401
378.268549
376.094925
373.915042
371.733057
369.554054
367.369244
365.190344
363.039291
360.941659
358.897403
356.898312
354.951853
353.036324
351.16329
349.342471
347.579294
345.886982
344.275912
342.753696
341.32515
339.991776
338.751615
337.599929
336.525875
335.472017
334.484952
472.418852
471.243858
470.038376
468.801953
467.534156
466.234573
464.902822
463.538551
462.141454
460.711273
459.247814
457.750955
456.220661
454.65699
453.060111
451.430311
449.768009
448.073763
446.348278
444.592418
442.807208
440.993839
439.153671
437.288226
435.399193
433.48841
431.557858
429.609644
427.645975
425.669139
423.681468
421.685308
419.682975
417.676715
415.668656
413.660767
411.65481
409.652297
407.654456
405.662194
403.67607
401.696278
399.722635
397.754604
395.791323
393.831643
391.874197
389.917478
387.959933
386.000072
384.036587
382.068476
380.095159
378.116599
376.133395
374.146884
372.159198
370.173272
368.192754
366.221929
364.267401
362.32743
360.400273
358.500075
356.638583
354.857802
353.144754
351.496432
349.911787
348.374857
346.897437
345.488788
344.155335
342.901151
341.728038
340.635472
339.620664
338.67692
337.787173
336.952546
472.376052
471.114513
469.820207
468.492628
467.131296
465.73576
464.305602
462.840449
461.339977
459.803928
458.23212
456.624458
454.98095
453.301724
451.587036
449.837293
448.053059
446.235074
444.384261
442.501743
440.588847
438.647112
436.678295
434.68437
432.667524
430.630153
428.574846
426.504371
424.421646
422.329713
420.231701
418.130784
416.030137
413.932886
411.84205
409.760486
407.690825
405.635415
403.596272
401.575029
399.572906
397.59067
395.628619
393.686582
391.763943
389.859677
387.972405
386.100479
384.242075
382.395305
380.558347
378.729573
376.907675
375.091785
373.281554
371.47721
369.679602
367.890359
366.111949
364.347595
362.601211
360.877083
359.180361
357.517561
355.894007
354.298223
352.748263
351.257506
349.857704
348.531987
347.26709
346.071196
344.951572
343.914375
342.965005
342.108105
341.347516
340.683032
340.098711
339.506926
472.332436
470.982691
469.597837
468.1773
466.720537
465.22704
463.696343
462.128031
460.521752
458.877227
457.194269
455.472794
453.71284
451.914582
450.078354
448.204661
446.2942
444.347875
442.366817
440.35239
438.306214
436.230167
434.126393
431.997309
429.845598
427.674203
425.486318
423.285364
421.074968
418.858926
416.641166
414.425697
412.216554
410.017738
407.833147
405.666521
403.521348
401.400805
399.307687
397.244346
395.212646
393.213908
391.248887
389.317767
387.420167
385.555177
383.721414
381.917104
380.140178
378.388403
376.659517
374.95138