/*--------------------------------*- C++ -*----------------------------------*\
  =========                 |
  \\      /  F ield         | OpenFOAM: The Open Source CFD Toolbox
   \\    /   O peration     | Website:  https://openfoam.org
    \\  /    A nd           | Version:  8
     \\/     M anipulation  |
\*---------------------------------------------------------------------------*/
FoamFile
{
    version     2.0;
    format      ascii;
    class       volVectorField;
    location    "0.074";
    object      U;
}
// * * * * * * * * * * * * * * * * * * * * * * * * * * * * * * * * * * * * * //

dimensions      [0 1 -1 0 0 0 0];

internalField   nonuniform List<vector> 
42400
(
(-0.019792435 0.0189383204 -9.9726532e-27)
(-0.0576010595 0.0540558977 3.30312924e-26)
(-0.0946136321 0.0871423535 3.34678229e-26)
(-0.131222326 0.118528499 0)
(-0.16771933 0.148519229 0)
(-0.204301022 0.177299488 -1.52434155e-27)
(-0.24108181 0.204964916 0)
(-0.27811788 0.231554614 1.69162282e-27)
(-0.315425726 0.257070091 0)
(-0.352995071 0.281487961 1.8773173e-27)
(-0.390798156 0.304769983 1.97766377e-27)
(-0.428796334 0.326870818 -2.08334975e-27)
(-0.466944395 0.347743565 -1.74237118e-26)
(-0.505193167 0.367343528 -1.50103265e-26)
(-0.543490986 0.385630753 -2.43520841e-27)
(-0.581784472 0.402571756 0)
(-0.620018959 0.418140774 0)
(-0.658138707 0.432320697 0)
(-0.696087013 0.445103813 0)
(-0.733806198 0.456492373 0)
(-0.771237481 0.466499022 0)
(-0.808320674 0.475147062 -7.00118776e-27)
(-0.84499367 0.482470552 2.93192765e-27)
(-0.881191662 0.488514217 1.83763622e-26)
(-0.916846049 0.493333158 1.57286545e-26)
(-0.951882974 0.496992344 -8.6081626e-27)
(-0.986221443 0.499565881 -9.06423089e-27)
(-1.01977096 0.501136061 1.90890925e-26)
(-1.05242851 0.501792223 0)
(-1.08407475 0.501629479 0)
(-1.11456965 0.500747212 -2.87973425e-26)
(-1.14374835 0.499246581 -3.04592995e-26)
(-1.17141504 0.497225416 2.4742374e-26)
(-1.1973304 0.494770416 3.32493434e-26)
(-1.22120562 0.491952225 5.67706558e-27)
(-1.24278754 0.488859844 0)
(-1.26176951 0.485755266 0)
(-1.27799289 0.482324099 0)
(-1.29021293 0.479777103 0)
(-1.2987475 0.476321307 1.83864815e-25)
(-1.30238499 0.473632437 1.36875721e-25)
(-1.30216583 0.469908562 -4.45817647e-27)
(-1.29438508 0.468553392 -1.16262318e-25)
(-1.27899737 0.467544532 -8.954993e-26)
(-1.25409694 0.466602516 1.55710364e-25)
(-1.21608947 0.466644042 -1.73971278e-25)
(-1.16489012 0.465376585 1.07610495e-25)
(-1.09726305 0.464410409 7.22454605e-26)
(-1.01069217 0.463685901 1.17118416e-25)
(-0.902662945 0.463289973 2.17063171e-25)
(-0.770566938 0.463426347 6.49989061e-33)
(-0.612303817 0.463737243 -3.59045841e-25)
(-0.421734588 0.464414395 -7.83355263e-25)
(-0.19982126 0.465185499 2.9750856e-25)
(0.0681691618 0.468610833 0)
(0.366305408 0.474815598 0)
(0.730450274 0.478959965 0)
(1.15569134 0.479742137 -3.59551005e-25)
(1.64377487 0.48025666 -3.809246e-25)
(2.20310758 0.481941826 0)
(2.84083506 0.483995876 3.96889254e-24)
(3.56006054 0.485931556 5.22348596e-24)
(4.36537995 0.487749049 -5.89855577e-24)
(5.26259233 0.489793431 -6.91983493e-24)
(6.25410108 0.49428497 0)
(7.34086479 0.494967799 0)
(8.54110115 0.485389739 -7.76797996e-24)
(9.77235533 0.530809434 -6.69370853e-24)
(11.0779369 0.526693233 -4.69975876e-25)
(12.7522102 0.209743469 0)
(13.9202768 0.526728608 0)
(14.8006034 1.33381124 -7.13042088e-26)
(17.1219599 0.00573070168 -3.64697573e-25)
(18.956154 -1.03599729 0)
(19.2764552 0.998772392 2.03128021e-25)
(19.4114893 2.68956893 -5.65974746e-24)
(21.605231 0.909650454 5.7769972e-24)
(23.1219661 -0.811985534 -1.53243996e-24)
(23.4305586 -0.504599592 -3.86091263e-23)
(23.3549348 0.647304141 -1.17211124e-23)
(-0.0243769314 0.0215900557 0)
(-0.0707827772 0.0618683399 2.68170345e-26)
(-0.115944587 0.100058449 2.61961574e-26)
(-0.160264155 0.136483731 0)
(-0.204071034 0.171453839 0)
(-0.247586197 0.205163857 2.18188048e-26)
(-0.29094213 0.237721353 2.24581859e-26)
(-0.334206566 0.269176478 1.93544713e-27)
(-0.377400504 0.299539051 0)
(-0.420510771 0.328790036 2.14469408e-27)
(-0.46349953 0.356891022 2.25742426e-27)
(-0.506311589 0.383792042 -1.40690233e-26)
(-0.548879724 0.409437634 -2.12533087e-26)
(-0.591128374 0.433771394 -9.53410613e-27)
(-0.632976118 0.456739367 4.2867749e-27)
(-0.674337327 0.47829261 1.02758885e-26)
(-0.715123232 0.498389152 0)
(-0.755242567 0.516995521 6.44457874e-27)
(-0.794601868 0.534087906 0)
(-0.833105453 0.54965305 0)
(-0.870655085 0.563688872 0)
(-0.907149299 0.576204863 4.54950845e-27)
(-0.942482369 0.58722225 2.20662638e-26)
(-0.976542856 0.596773959 1.78204756e-26)
(-1.00921168 0.604904365 0)
(-1.0403596 0.611668844 -1.91835207e-26)
(-1.06984408 0.617133141 -1.00625085e-26)
(-1.09750574 0.621372284 2.11241791e-26)
(-1.12316316 0.624468137 2.82348149e-26)
(-1.14660502 0.626506591 2.96413426e-26)
(-1.16757963 0.627576134 -2.44222465e-26)
(-1.18581826 0.627777436 -2.55378912e-26)
(-1.20105628 0.627201661 7.984984e-26)
(-1.21301727 0.62592367 4.1230281e-26)
(-1.22108053 0.624418765 -1.06009667e-25)
(-1.22527196 0.622255802 -1.39964831e-25)
(-1.22503383 0.619838608 0)
(-1.21938259 0.617891858 3.37392297e-26)
(-1.20913017 0.614824308 0)
(-1.19070051 0.613208704 7.4995742e-26)
(-1.16368742 0.611046026 1.21163765e-26)
(-1.12511042 0.609187945 2.19927001e-26)
(-1.07486359 0.606162399 8.66391081e-26)
(-1.01063903 0.603209636 -8.92702775e-26)
(-0.930727824 0.600428419 1.84732923e-25)
(-0.832827116 0.597913522 -9.52210676e-26)
(-0.714469505 0.595578376 9.76823897e-26)
(-0.573670181 0.592693757 2.13908058e-26)
(-0.405377651 0.589448723 3.88681541e-25)
(-0.211164674 0.586524443 0)
(0.0193859563 0.58637998 -1.14802442e-25)
(0.275765913 0.589229408 2.3315659e-25)
(0.587688129 0.590277385 -3.96224421e-26)
(0.952725477 0.588539162 7.63170299e-25)
(1.37376746 0.58670501 2.76256248e-25)
(1.85687074 0.586324617 2.07692756e-24)
(2.40945568 0.587095237 2.28542158e-24)
(3.03512009 0.588684501 -2.80768285e-25)
(3.73843742 0.591374586 -2.84572764e-25)
(4.52446497 0.595581898 3.74613312e-24)
(5.39796792 0.601800165 4.45245455e-24)
(6.36163013 0.611017538 2.60671042e-25)
(7.41540953 0.623307708 -2.52396634e-25)
(8.56170326 0.634845879 0)
(9.79016594 0.651554309 -5.91061561e-24)
(11.0755002 0.67805105 -1.14620757e-23)
(12.4609355 0.660965355 -6.5009716e-24)
(13.8361865 0.697930442 0)
(15.0433131 0.919443831 2.74925061e-26)
(16.6765032 0.659633561 -1.08365016e-25)
(18.2996327 0.191231791 6.51022314e-24)
(18.8159532 1.24175395 3.57101295e-24)
(19.8221772 1.78426471 -8.04505047e-24)
(21.8261082 0.120755779 -5.13807481e-24)
(22.9072579 -0.385965686 3.46545262e-26)
(22.9934111 1.06078935 1.61670648e-23)
(23.1536724 1.78572766 1.95296395e-23)
(23.3795601 1.35114451 -1.78270088e-24)
(23.5207411 0.751864971 -1.23767667e-23)
(23.5933399 0.448048888 -1.06744412e-23)
(-0.0283062693 0.0231763681 3.08874948e-27)
(-0.0820713232 0.0665838861 7.76967467e-28)
(-0.134198605 0.107917417 -8.21766464e-28)
(-0.185112519 0.147499923 8.62812059e-28)
(-0.235152285 0.185630741 0)
(-0.284568251 0.222512887 -1.72475595e-26)
(-0.333502514 0.258262701 1.88324555e-33)
(-0.382027394 0.292937631 1.46453186e-26)
(-0.430162124 0.326552952 1.30347052e-26)
(-0.477884425 0.35909233 2.24338627e-26)
(-0.525140131 0.390516694 1.16766881e-26)
(-0.571851099 0.420771921 2.6167085e-27)
(-0.617921383 0.44979519 2.75293756e-27)
(-0.663241866 0.477520047 1.90116081e-27)
(-0.707693625 0.503880406 -9.17631114e-28)
(-0.751150339 0.528813705 9.60423215e-27)
(-0.793479903 0.552263393 3.41201766e-28)
(-0.834545406 0.574180868 2.07511408e-26)
(-0.874205516 0.594526957 1.380769e-26)
(-0.912314345 0.613273018 7.80603099e-27)
(-0.948720806 0.630401734 -8.19427659e-27)
(-0.983267442 0.645907659 -8.59817827e-27)
(-1.01578866 0.659797578 0)
(-1.04610803 0.67209049 1.88896653e-26)
(-1.07403501 0.682817377 -3.57370366e-26)
(-1.09936016 0.692020732 2.41980655e-29)
(-1.12184875 0.699753715 4.27985977e-26)
(-1.14124253 0.706074322 4.50952118e-26)
(-1.15726731 0.711035035 4.6757473e-26)
(-1.16963423 0.714683256 -3.01071228e-26)
(-1.17790768 0.717233698 -2.54246461e-26)
(-1.18198427 0.718564255 1.24973709e-25)
(-1.18146299 0.71902081 1.61827548e-25)
(-1.17569181 0.718780649 0)
(-1.16446527 0.717733557 0)
(-1.14711488 0.716706494 -3.21756074e-26)
(-1.12140298 0.715176887 0)
(-1.08629082 0.712664886 7.04954586e-26)
(-1.0394121 0.709775183 7.33986193e-26)
(-0.980808197 0.705845635 1.51422945e-25)
(-0.908480706 0.701755201 -3.4832626e-26)
(-0.820820403 0.697604559 0)
(-0.715630067 0.693331981 0)
(-0.590426983 0.688866045 8.96267222e-26)
(-0.443484362 0.683628944 2.21584561e-25)
(-0.270371324 0.677815263 9.22377687e-26)
(-0.0695278534 0.674243479 0)
(0.152195959 0.674233558 0)
(0.420380668 0.673184959 7.03700423e-26)
(0.73442231 0.669609665 2.5590082e-25)
(1.09854189 0.665730027 -1.09262975e-25)
(1.51620853 0.663271791 0)
(1.99469929 0.662529748 -3.54443304e-25)
(2.53815557 0.663129334 -6.74636465e-25)
(3.15134097 0.665284693 -1.46140534e-24)
(3.83949401 0.669594672 -1.67287668e-24)
(4.60804491 0.676592627 -2.37182373e-24)
(5.46071875 0.686996171 -2.61185521e-32)
(6.3995175 0.701566688 3.03686985e-32)
(7.42444856 0.72092353 -8.30169062e-24)
(8.53422973 0.744775801 -4.58042779e-24)
(9.72430127 0.772575028 4.70725581e-24)
(10.9823867 0.804903747 4.78141068e-24)
(12.2988678 0.836773054 0)
(13.6588076 0.867300465 5.26417855e-24)
(15.0010647 0.938033421 1.05954425e-23)
(16.3599998 0.988152344 5.95929554e-24)
(17.7688071 0.926880913 0)
(18.8612749 1.13444024 -2.58734596e-26)
(19.8733844 1.42981869 6.89989162e-24)
(21.3521552 0.89969321 5.69348636e-24)
(22.3805422 0.619485239 0)
(22.7625296 1.50294913 0)
(23.2230021 1.66562711 5.57905556e-25)
(23.6500403 1.02746223 -8.56745182e-25)
(23.7190241 0.83579998 6.14271404e-24)
(23.6849348 1.1104253 1.5007501e-23)
(23.6441049 1.31648303 0)
(23.5895308 1.33840058 -1.05180083e-24)
(23.5930897 1.19198025 8.65279156e-24)
(-0.0316581051 0.0239214472 5.34068416e-28)
(-0.0916919117 0.0688098582 8.40197911e-28)
(-0.14974706 0.111643813 7.87219635e-27)
(-0.206261243 0.152743402 -5.36977795e-27)
(-0.261608836 0.192409986 -6.70306823e-27)
(-0.316027311 0.230837055 0)
(-0.369665087 0.268143933 -1.0287125e-26)
(-0.422605564 0.304398106 -1.06241507e-26)
(-0.474855799 0.339621415 -6.23946929e-27)
(-0.526377267 0.37379974 -3.89989451e-27)
(-0.577092395 0.406894096 4.10979854e-27)
(-0.626892727 0.438848218 6.86095748e-34)
(-0.675645933 0.469594898 2.9808785e-27)
(-0.723201257 0.499061311 4.01959928e-33)
(-0.769393604 0.527173413 -3.29702261e-27)
(-0.8140465 0.553859478 2.31519806e-26)
(-0.856974092 0.579052935 -2.78733321e-26)
(-0.89798226 0.602694604 -7.63068079e-27)
(-0.936868774 0.624734514 3.02329283e-26)
(-0.973422418 0.645133442 8.39736734e-27)
(-1.0074215 0.663864285 -1.76307205e-26)
(-1.03863199 0.680912526 -4.66100936e-26)
(-1.06680165 0.696270898 -5.22703456e-26)
(-1.09165828 0.709935472 1.01233386e-26)
(-1.1129115 0.721906908 0)
(-1.13025183 0.732185376 1.10666269e-26)
(-1.14332832 0.740795118 0)
(-1.15190047 0.74783212 1.01033272e-25)
(-1.15560187 0.753447731 2.04821642e-25)
(-1.15407043 0.757832497 1.34816987e-25)
(-1.14699954 0.761091307 -9.88252505e-26)
(-1.13380717 0.763568754 -1.1226212e-25)
(-1.11282263 0.764895084 5.9284994e-26)
(-1.08314474 0.764941177 3.0962319e-26)
(-1.04346784 0.763685447 -1.00167184e-25)
(-0.992090322 0.761416047 -1.72339256e-25)
(-0.928744639 0.758174576 0)
(-0.851669487 0.754376391 1.9841797e-25)
(-0.759263337 0.75008556 1.69556587e-25)
(-0.649446395 0.74532581 7.57893677e-26)
(-0.519927895 0.740170937 7.77374509e-26)
(-0.368960871 0.734218248 0)
(-0.192619466 0.727580903 0)
(0.0117882475 0.723049428 0)
(0.235734514 0.721736441 8.60656506e-26)
(0.506767092 0.719281331 2.25528931e-25)
(0.82121826 0.71474356 3.06289043e-25)
(1.18380709 0.710838141 0)
(1.59909524 0.708653703 0)
(2.07161942 0.708282319 4.57277104e-25)
(2.60611492 0.709904327 4.41627644e-25)
(3.20780287 0.71408364 6.69974117e-25)
(3.88217929 0.721431997 8.06305785e-25)
(4.6339823 0.732476265 -2.08729664e-25)
(5.46651699 0.747850422 -1.32752871e-24)
(6.38135724 0.768251466 -1.15448433e-24)
(7.37864303 0.794279618 -3.19458763e-24)
(8.4564256 0.826551875 -3.62889101e-24)
(9.61199272 0.864865745 0)
(10.8375269 0.908769287 8.16603249e-26)
(12.1199924 0.958998675 -4.50397259e-24)
(13.4385036 1.01639776 -9.37465384e-24)
(14.7702076 1.0826064 1.71487908e-26)
(16.0940169 1.15135143 4.37066528e-26)
(17.4158876 1.19254318 -6.05121503e-24)
(18.67643 1.25146468 6.39774934e-24)
(19.793444 1.39264286 6.49347556e-24)
(20.9275355 1.42030698 -4.21238594e-25)
(21.9205066 1.36282661 -2.64715802e-24)
(22.6656091 1.59765296 -9.4212961e-24)
(23.1959893 1.75316772 7.28919255e-26)
(23.7334289 1.44320328 -1.22600788e-23)
(23.8544106 1.38535432 -5.92259045e-24)
(23.8924759 1.51092644 0)
(23.7657456 1.75339228 -1.16575446e-23)
(23.684353 1.60168824 -3.16291343e-23)
(23.6879178 1.44931928 1.49017459e-24)
(23.6631948 1.39809075 9.7421976e-24)
(23.630778 1.39507569 1.08397714e-23)
(23.6056736 1.34370165 1.34398467e-23)
(-0.0347170718 0.0241573342 2.70124452e-27)
(-0.100434696 0.0694757844 0)
(-0.163833633 0.112707232 0)
(-0.225367631 0.154168453 1.74731273e-30)
(-0.28542467 0.194160861 0)
(-0.344268214 0.232887628 0)
(-0.402042892 0.270465454 0)
(-0.458781706 0.306955843 -4.98942459e-27)
(-0.514508681 0.342384819 0)
(-0.569153815 0.376748395 2.77012581e-27)
(-0.622607211 0.410010024 1.22857284e-26)
(-0.674722003 0.442114607 3.84055988e-33)
(-0.725320665 0.472995263 -1.1572501e-26)
(-0.774201057 0.502578583 0)
(-0.821141041 0.530789151 -3.56644793e-27)
(-0.865901689 0.557553451 7.50212066e-27)
(-0.908229356 0.582803114 0)
(-0.947856919 0.60647702 4.33336895e-26)
(-0.984498478 0.628518358 8.69978192e-27)
(-1.0178463 0.648873654 -1.05903308e-25)
(-1.04757374 0.667495132 -7.29832654e-26)
(-1.07336377 0.684307755 9.93664438e-27)
(-1.09487145 0.699411065 0)
(-1.11180724 0.712808603 -9.7754578e-26)
(-1.12382626 0.724580067 -1.10772808e-25)
(-1.13056051 0.73484639 -1.10740548e-25)
(-1.13162047 0.743673463 -1.30647745e-25)
(-1.12600552 0.750923464 1.37262971e-25)
(-1.11299789 0.756579372 1.30576791e-25)
(-1.09173784 0.760650892 0)
(-1.06116031 0.763134981 -1.54004742e-25)
(-1.01999462 0.764188285 -1.77309466e-25)
(-0.967768325 0.764069888 3.14002127e-26)
(-0.903044934 0.762969637 -1.69007634e-25)
(-0.824346741 0.76093376 -2.09248756e-25)
(-0.730030741 0.758028338 -7.00320817e-26)
(-0.618091218 0.75434245 3.64165436e-26)
(-0.486351507 0.750047389 -2.12352942e-25)
(-0.333067356 0.744878827 -2.37874219e-25)
(-0.154719356 0.738969716 4.00916148e-25)
(0.0518552887 0.734937609 8.1009948e-25)
(0.278130268 0.733663665 2.94058444e-25)
(0.550988466 0.73136224 0)
(0.865606427 0.727399002 -9.22526352e-26)
(1.22616327 0.724690851 -4.1384494e-25)
(1.63764185 0.724200789 -9.62908886e-26)
(2.10411553 0.725967968 1.89459275e-32)
(2.63035743 0.7304311 -4.02482853e-25)
(3.22160947 0.738183008 0)
(3.88273324 0.749871543 -1.0481153e-25)
(4.61799162 0.766056397 -9.73256565e-25)
(5.43037158 0.787375917 -8.92949287e-25)
(6.3214039 0.814480336 -3.88749439e-25)
(7.29109298 0.847997122 -1.6423381e-24)
(8.337859 0.888503383 -1.52769722e-24)
(9.45794257 0.93645159 -1.82233957e-24)
(10.6467795 0.991329931 -5.91061061e-24)
(11.8944793 1.05256092 -4.17055324e-24)
(13.1853274 1.12098283 -4.42723211e-24)
(14.4975625 1.19605832 -4.67436255e-24)
(15.8121148 1.27823479 0)
(17.0963662 1.36408865 6.87993268e-26)
(18.3326547 1.45730812 -5.12235041e-24)
(19.4776573 1.55489225 -5.50532759e-24)
(20.5729571 1.62203462 -2.63405176e-26)
(21.5995967 1.63535046 0)
(22.4915392 1.69877833 1.06987156e-23)
(23.1265895 1.7932684 1.39145053e-23)
(23.6083786 1.8087368 6.17330944e-25)
(23.7856948 1.82597818 -6.26206807e-25)
(23.8554982 1.83922376 -4.98890461e-27)
(23.8722897 1.84866961 -1.07737768e-24)
(23.8676863 1.86573421 -6.63712116e-24)
(23.8621594 1.7265365 -1.11248906e-23)
(23.7980542 1.73807333 -6.84280582e-25)
(23.7013901 1.84474565 0)
(23.6538842 1.80167428 -8.39201365e-24)
(23.6280709 1.70498257 -8.98727547e-24)
(23.6141914 1.66623433 0)
(23.5921602 1.57554258 -1.39621386e-23)
(-0.0377684908 0.0241368072 -4.15867137e-27)
(-0.10908779 0.0693137938 -5.5312641e-27)
(-0.177686985 0.112301106 -7.13676517e-27)
(-0.244037275 0.153412338 -1.10155474e-27)
(-0.308537538 0.192947207 3.69451204e-27)
(-0.371449567 0.231111292 -2.44940803e-27)
(-0.432913087 0.268032442 1.45615588e-27)
(-0.492980455 0.303774605 -2.40372197e-27)
(-0.551570124 0.338359351 2.87392117e-27)
(-0.608610048 0.37177903 6.05670686e-27)
(-0.663955157 0.404010033 -4.19484623e-27)
(-0.717403486 0.435006189 -3.01449028e-26)
(-0.76871882 0.464704739 -2.59749508e-26)
(-0.817632978 0.493036447 -2.87400517e-26)
(-0.863850386 0.519930734 3.91099362e-27)
(-0.907046952 0.545318397 5.55550277e-26)
(-0.946874102 0.569135878 0)
(-0.982991953 0.591286804 0)
(-1.0150146 0.611814221 6.63967421e-26)
(-1.04261866 0.630672063 1.66495548e-25)
(-1.06541457 0.647914229 9.45342842e-26)
(-1.08281255 0.663432341 1.10531853e-25)
(-1.09434411 0.67719286 3.45283487e-33)
(-1.09938895 0.689234497 -1.46408133e-25)
(-1.09727483 0.699545279 1.33741925e-25)
(-1.08721675 0.708124687 3.17727399e-25)
(-1.06830364 0.715005235 1.60232468e-25)
(-1.03995032 0.720441463 -1.41330754e-26)
(-1.00111634 0.724489697 1.47154359e-26)
(-0.950640876 0.727217344 -3.06045351e-26)
(-0.887226306 0.728701097 0)
(-0.809423828 0.72902824 2.74554699e-25)
(-0.715510558 0.728296676 -3.45409022e-26)
(-0.603597172 0.726655431 -2.68755364e-25)
(-0.471591442 0.724293589 0)
(-0.317817652 0.721041668 -3.2458513e-25)
(-0.138907398 0.717077064 -3.52894621e-25)
(0.0684802606 0.714746968 0)
(0.296231254 0.714731456 0)
(0.569487095 0.713950524 -2.38677896e-25)
(0.88327289 0.712029966 -4.06821363e-25)
(1.24110123 0.711884221 1.89485378e-25)
(1.64820797 0.714355847 0)
(2.10837972 0.719540845 3.67608372e-25)
(2.62623125 0.728003722 9.09502336e-25)
(3.20665993 0.74035276 4.47541785e-25)
(3.85410146 0.757248847 1.07460039e-25)
(4.57246851 0.77930834 -1.66793568e-27)
(5.36459192 0.807238517 0)
(6.23198401 0.841822588 -9.99865317e-25)
(7.17464314 0.883773818 -2.00783239e-25)
(8.19078987 0.933625666 1.25128474e-24)
(9.27675118 0.991707742 -1.68701188e-25)
(10.4267333 1.05807422 -1.92461302e-24)
(11.63404 1.13167453 -3.85435508e-24)
(12.8878784 1.21118946 -9.8945863e-33)
(14.1710906 1.29649545 2.23128315e-24)
(15.4624091 1.38666126 0)
(16.7389837 1.48095857 0)
(17.9739553 1.57655494 5.73960427e-26)
(19.1482445 1.67425976 9.131274e-26)
(20.2253353 1.76692731 0)
(21.1997645 1.85743915 6.14583382e-24)
(22.0310394 1.93574582 6.70092036e-24)
(22.803187 1.99101419 -9.61561635e-24)
(23.3972767 1.98248624 -2.71451947e-23)
(23.7183772 1.98183218 -9.44942858e-24)
(23.8204512 2.00213268 -4.32612776e-24)
(23.8229423 2.02687865 -5.52461014e-24)
(23.8204053 2.06987111 -1.08544423e-25)
(23.8112527 2.06694458 7.10136897e-24)
(23.8302917 1.98129185 6.94026014e-24)
(23.8341924 1.92534228 -1.21430908e-23)
(23.829233 1.93481535 -7.59783894e-24)
(23.770968 1.93553556 -9.2591369e-24)
(23.7174568 1.92657026 -8.62332293e-24)
(23.6586136 1.93429844 -9.14873294e-24)
(23.6150324 1.98318129 4.75048485e-32)
(23.6048335 1.93139356 2.14451298e-23)
(23.5996831 1.87689355 2.53295658e-23)
(-0.0410205414 0.0239987534 2.14177623e-27)
(-0.118204847 0.0687411228 1.09730307e-27)
(-0.19213579 0.111127994 4.74446133e-27)
(-0.263298176 0.151469463 -1.91591013e-33)
(-0.332093042 0.190062812 -2.71810663e-27)
(-0.398772257 0.227112662 -3.66926768e-27)
(-0.463454091 0.262749137 2.09881685e-27)
(-0.526153205 0.297050501 8.88896795e-29)
(-0.586807429 0.330046024 5.26816408e-27)
(-0.645235157 0.361733121 8.08369057e-27)
(-0.70122378 0.392085795 1.16208008e-26)
(-0.754530624 0.421060772 1.16219188e-26)
(-0.804835754 0.448617154 1.91308221e-26)
(-0.851785225 0.474697207 2.67626142e-26)
(-0.895006129 0.499212838 4.30874997e-27)
(-0.934065315 0.52220309 4.53349544e-27)
(-0.968530298 0.543521112 7.76343771e-26)
(-0.997872891 0.563199668 9.26050688e-26)
(-1.02163612 0.581159106 -1.04221872e-26)
(-1.03919929 0.597413091 -1.09838812e-26)
(-1.04992281 0.611900634 1.17662931e-25)
(-1.05317207 0.624743247 1.30169732e-25)
(-1.04822823 0.635942267 0)
(-1.03428147 0.645527174 1.32386541e-26)
(-1.01037936 0.653565144 0)
(-0.975507258 0.660099994 0)
(-0.928519815 0.665209416 1.5107472e-26)
(-0.868130891 0.668994528 -2.73422893e-25)
(-0.792879582 0.671579273 -2.45321145e-25)
(-0.701069012 0.673103233 2.46721132e-25)
(-0.590766929 0.673751709 2.8748394e-25)
(-0.460024985 0.673562547 3.64616637e-26)
(-0.307431512 0.672542125 -3.80673908e-26)
(-0.129478347 0.671202306 0)
(0.076631949 0.671450302 4.09048961e-26)
(0.304593274 0.673525816 0)
(0.576445969 0.675064699 0)
(0.887834708 0.67607992 4.68322185e-26)
(1.24179907 0.679350552 0)
(1.64329953 0.685580519 0)
(2.09602678 0.694845872 5.04322845e-25)
(2.60435571 0.707761732 6.40932495e-25)
(3.1728075 0.725002131 0)
(3.80549605 0.747277134 0)
(4.50609923 0.775315642 0)
(5.27736888 0.809933618 1.13479958e-25)
(6.12082746 0.851978119 1.1057559e-25)
(7.03657647 0.902206037 8.3479517e-25)
(8.02298072 0.961209807 1.08627201e-24)
(9.07644921 1.02936949 1.26960265e-24)
(10.191218 1.10680484 1.50297409e-24)
(11.3594952 1.19323507 1.68810244e-24)
(12.5719982 1.28750616 1.92894725e-24)
(13.8167475 1.38751655 0)
(15.0758233 1.49180005 0)
(16.3283336 1.59822162 -2.4834035e-24)
(17.5512952 1.70449941 -5.3183557e-24)
(18.7209361 1.80886104 -2.88838407e-24)
(19.8129629 1.90681 -3.10430582e-24)
(20.8063462 1.99735005 -3.1259443e-24)
(21.6771897 2.07807021 7.37185425e-24)
(22.4156991 2.14800952 1.47783846e-23)
(22.994471 2.19736473 1.94484e-25)
(23.5012994 2.20811059 -1.02409466e-23)
(23.7079678 2.25856706 2.26990264e-25)
(23.7347773 2.28758463 -3.22063601e-25)
(23.7480588 2.24134836 6.09773407e-24)
(23.7960619 2.18704882 -4.45400842e-32)
(23.8146592 2.12780005 -8.91308819e-24)
(23.8230143 2.13031584 -3.22176731e-25)
(23.7671413 2.13514486 1.09227432e-23)
(23.7553509 2.13923528 6.33064246e-24)
(23.7582541 2.05877163 0)
(23.7837563 2.00416257 3.78665562e-25)
(23.7693653 1.94976265 0)
(23.6970224 1.98667415 1.03428404e-23)
(23.6443549 2.00291793 2.03105442e-23)
(23.6214336 1.97890284 1.01402792e-23)
(23.625504 2.00111905 7.57265283e-24)
(23.6220682 1.99211709 2.17356019e-23)
(-0.0444846363 0.0237313845 2.07378718e-27)
(-0.127757265 0.0677496319 6.26135215e-27)
(-0.207044022 0.109215685 -1.30478951e-27)
(-0.282838368 0.148436628 -3.19802222e-27)
(-0.355534474 0.185705996 -1.10758847e-27)
(-0.425362247 0.221226547 -3.6079758e-28)
(-0.492405103 0.255128719 -3.22756648e-27)
(-0.556631002 0.287493751 -1.00773751e-26)
(-0.617913039 0.318367211 -1.33405782e-26)
(-0.676050074 0.347759703 -1.66031265e-26)
(-0.730746788 0.375654782 0)
(-0.781620796 0.402046067 -8.36512661e-27)
(-0.828276248 0.42685853 4.40720472e-27)
(-0.870235837 0.45007275 0)
(-0.906969081 0.471682215 0)
(-0.937969671 0.491583271 0)
(-0.962581288 0.509835807 0)
(-0.980163988 0.526401009 -5.63859657e-27)
(-0.990001497 0.541285241 0)
(-0.991302724 0.554512741 -8.48403886e-26)
(-0.983223182 0.56610245 -9.36171888e-26)
(-0.964806251 0.576125746 1.65688358e-25)
(-0.935016823 0.584638928 1.98055945e-25)
(-0.892695786 0.591740656 -2.02670646e-25)
(-0.836553667 0.59754405 -2.53337681e-25)
(-0.765144863 0.60218023 -2.58944769e-25)
(-0.676810919 0.605803518 -2.61395289e-25)
(-0.569781215 0.60859156 -3.2407208e-25)
(-0.442254293 0.610559166 -6.10856107e-25)
(-0.291952366 0.61170629 -3.6969694e-25)
(-0.115177476 0.613053436 0)
(0.0843542388 0.616203557 -4.06684728e-26)
(0.312142601 0.62041382 -4.27709201e-26)
(0.581343146 0.624163045 0)
(0.888108089 0.628426281 4.70299883e-26)
(1.23617533 0.635332845 0)
(1.63021678 0.645342693 0)
(2.07371918 0.65860449 5.92249985e-25)
(2.57077508 0.675817636 -5.46743148e-26)
(3.12559593 0.697727704 -6.09587087e-25)
(3.74203122 0.725115568 7.11015128e-25)
(4.4235261 0.758777038 7.02234872e-25)
(5.17274294 0.799555848 5.98524396e-26)
(5.99125417 0.848309965 0)
(6.87936227 0.905813427 8.00684169e-25)
(7.83580558 0.972701108 1.14669149e-24)
(8.85747775 1.04942157 0)
(9.93917575 1.13618317 0)
(11.0733945 1.23287603 -1.66871659e-24)
(12.2505262 1.3389911 -1.91670332e-24)
(13.4587463 1.45356799 2.07320731e-24)
(14.6851383 1.57409601 2.12835957e-24)
(15.910998 1.69886311 -2.32619181e-24)
(17.1144832 1.82541582 -5.78345863e-33)
(18.273381 1.95042381 2.58308984e-24)
(19.3649932 2.0688615 1.3705631e-26)
(20.3715932 2.17731648 0)
(21.2696271 2.2763688 4.4121323e-26)
(22.0440772 2.35912175 -3.45379902e-24)
(22.6872195 2.42289371 1.32536869e-25)
(23.1838795 2.47835714 3.56695175e-24)
(23.5429941 2.47947379 0)
(23.7770725 2.53466053 2.21027172e-25)
(23.7712064 2.53635497 0)
(23.7527413 2.50749295 7.44267749e-26)
(23.7200982 2.46533606 -1.18480045e-25)
(23.7092228 2.45785462 -1.86659291e-25)
(23.7322258 2.37999689 -9.85403006e-24)
(23.7732177 2.28103014 -8.13899289e-24)
(23.780482 2.19046697 -5.33541326e-25)
(23.7739189 2.19766583 -7.25665432e-24)
(23.6780199 2.18544244 -1.09771593e-23)
(23.6524469 2.18455622 -6.94419889e-24)
(23.6532903 2.12127545 -8.46746757e-24)
(23.6703172 2.05184333 -8.00956948e-24)
(23.6404484 2.02284689 -9.6987906e-24)
(23.6136765 1.99874862 7.35758821e-24)
(23.6109136 1.96543268 1.24943921e-23)
(23.6369448 1.97834961 -9.78251206e-25)
(23.631528 1.9880385 8.67189689e-25)
(-0.0479065744 0.0231925178 1.69305312e-27)
(-0.136966573 0.0659629573 -6.29347608e-27)
(-0.221080804 0.106004322 -1.48658192e-27)
(-0.300743735 0.143622585 -1.52953573e-33)
(-0.376331357 0.179106395 1.59736282e-27)
(-0.448036458 0.212657133 -1.74006987e-27)
(-0.515889374 0.244406542 7.58360807e-27)
(-0.579790713 0.274439706 2.9234903e-33)
(-0.639527809 0.302819456 -2.77196816e-26)
(-0.69478675 0.329551536 -2.06846998e-26)
(-0.745156691 0.354650483 4.51238746e-27)
(-0.790161053 0.378088058 -3.46851009e-26)
(-0.829217423 0.399873693 -3.0342879e-26)
(-0.86171819 0.419979652 -4.15611421e-26)
(-0.886983056 0.438404054 -4.83171029e-26)
(-0.904264819 0.455152397 5.55432879e-26)
(-0.912750141 0.470242625 6.33913449e-26)
(-0.911551423 0.48371665 -6.34522972e-27)
(-0.899732476 0.495610263 0)
(-0.876197828 0.50602472 -8.22614748e-26)
(-0.839793981 0.515026357 -9.91422665e-26)
(-0.789233501 0.522740525 -1.54549038e-26)
(-0.723094816 0.529308944 1.2005847e-25)
(-0.639775902 0.53489802 1.4723814e-25)
(-0.537532706 0.539685138 -3.52172196e-26)
(-0.414594053 0.54370986 0)
(-0.268691904 0.54721748 1.94000732e-26)
(-0.0976564536 0.55132396 2.41155206e-28)
(0.0969665884 0.556567474 -3.8576422e-25)
(0.323379386 0.562350662 -3.64659171e-25)
(0.586480482 0.568415702 4.2925758e-25)
(0.886075913 0.575981949 4.17353076e-25)
(1.22628359 0.586258855 -9.96615332e-26)
(1.61086405 0.599590419 -4.72167272e-25)
(2.04315801 0.616384371 -3.81169771e-32)
(2.52703982 0.637419009 5.91652978e-25)
(3.06641212 0.663461129 -6.89014417e-25)
(3.66485596 0.695316262 -6.75833507e-25)
(4.32561151 0.733808794 -1.22495959e-25)
(5.05126944 0.779787934 6.27888842e-26)
(5.84347413 0.834108666 6.24720298e-26)
(6.70276102 0.897550845 -9.26628054e-25)
(7.62827727 0.970767716 -1.98794309e-24)
(8.61750235 1.05424115 -1.14638461e-24)
(9.66597863 1.14822597 -1.41287309e-24)
(10.7670842 1.25268068 -1.47482472e-24)
(11.9119094 1.36720248 0)
(13.0892755 1.49098939 1.84536655e-24)
(14.285805 1.62286009 2.14520167e-24)
(15.4875621 1.76038487 2.29487264e-24)
(16.6760594 1.90150484 4.86565639e-24)
(17.8296684 2.04380908 5.12282362e-24)
(18.9264956 2.18465655 5.37476958e-24)
(19.943874 2.32051917 5.68414707e-24)
(20.8643016 2.4489031 2.92341534e-24)
(21.6671827 2.56037694 -6.7010159e-26)
(22.3649601 2.65519605 0)
(22.9218455 2.72977065 -3.16381039e-24)
(23.3707373 2.79533003 -3.95338307e-24)
(23.6475281 2.84576555 0)
(23.8090529 2.83677651 -5.30661827e-24)
(23.854143 2.87405891 -4.64775032e-24)
(23.822175 2.84341561 0)
(23.7699818 2.80587245 -6.34888601e-26)
(23.7074011 2.80605285 0)
(23.6615942 2.73277996 -9.21193362e-24)
(23.634363 2.6641641 -6.14876396e-25)
(23.6163747 2.59045354 1.04275968e-23)
(23.6380549 2.52393022 -2.53048078e-25)
(23.6492897 2.38702795 -4.17047621e-25)
(23.6756807 2.29236587 -9.48968379e-24)
(23.6518373 2.26250179 -8.8412683e-24)
(23.6045529 2.22035252 -3.75472395e-25)
(23.5838442 2.20722089 -3.8472204e-25)
(23.575931 2.14848968 -7.23008077e-26)
(23.5801077 2.13511528 -2.56321892e-25)
(23.5883351 2.08201687 1.19960829e-23)
(23.5999868 2.06005113 2.12087842e-23)
(23.7248861 2.00927677 1.22868302e-23)
(23.7265792 2.00849229 -7.3070945e-25)
(-0.0508900765 0.0222226763 0)
(-0.144635636 0.0629389889 -1.6098964e-27)
(-0.2322186 0.100802992 1.69683581e-27)
(-0.314117205 0.136121186 -4.6801366e-27)
(-0.390667966 0.169180697 1.88628658e-27)
(-0.462000467 0.200177315 1.98768258e-27)
(-0.528056618 0.229250504 -1.39809613e-26)
(-0.588628112 0.256492828 0)
(-0.643381134 0.281954356 4.63339701e-27)
(-0.691853536 0.305688499 -2.78356966e-26)
(-0.733498138 0.327712023 -2.84655416e-26)
(-0.767669215 0.348044595 3.98493962e-26)
(-0.793635082 0.366705767 5.69353594e-27)
(-0.810582856 0.38372019 -1.01756486e-25)
(-0.817618293 0.399123209 -1.2374207e-25)
(-0.813755278 0.412976737 -6.35644974e-26)
(-0.797969416 0.425328204 -6.92334961e-27)
(-0.769027224 0.436306225 -8.81836917e-26)
(-0.72567313 0.445993325 -9.07863841e-26)
(-0.666498976 0.454546299 7.93926961e-27)
(-0.589950094 0.462139674 -8.39118551e-27)
(-0.494335289 0.468968921 -3.49511434e-26)
(-0.377907723 0.475135902 -1.41670295e-25)
(-0.238549445 0.480909821 -3.32673039e-25)
(-0.0741851127 0.487292664 -1.76527482e-25)
(0.113395858 0.494573257 -2.0837398e-26)
(0.334810939 0.502427282 -1.39630154e-25)
(0.589615976 0.510910288 2.28561669e-26)
(0.88041503 0.521350677 -2.3902614e-26)
(1.21069278 0.534455023 -2.19729693e-25)
(1.58368663 0.550651965 0)
(2.00277363 0.570544674 -5.7849021e-25)
(2.4715715 0.594890265 -5.63610475e-26)
(2.99364245 0.624455709 6.88485346e-25)
(3.57232827 0.660061764 7.37546362e-25)
(4.21069395 0.702545333 7.89910089e-25)
(4.91127025 0.75275231 -6.43252772e-26)
(5.67576575 0.811530859 0)
(6.50492591 0.879660815 -1.34040146e-25)