/*--------------------------------*- C++ -*----------------------------------*\
  =========                 |
  \\      /  F ield         | OpenFOAM: The Open Source CFD Toolbox
   \\    /   O peration     | Website:  https://openfoam.org
    \\  /    A nd           | Version:  8
     \\/     M anipulation  |
\*---------------------------------------------------------------------------*/
FoamFile
{
    version     2.0;
    format      ascii;
    class       volScalarField;
    location    "0.037";
    object      p;
}
// * * * * * * * * * * * * * * * * * * * * * * * * * * * * * * * * * * * * * //

dimensions      [1 -1 -2 0 0 0 0];

internalField   nonuniform List<scalar> 
42400
(
101452.755
101452.741
101452.726
101452.712
101452.699
101452.686
101452.674
101452.663
101452.653
101452.643
101452.634
101452.626
101452.618
101452.612
101452.606
101452.6
101452.596
101452.592
101452.589
101452.586
101452.584
101452.583
101452.581
101452.58
101452.58
101452.579
101452.578
101452.577
101452.576
101452.575
101452.573
101452.571
101452.568
101452.564
101452.559
101452.554
101452.547
101452.538
101452.529
101452.529
101452.541
101452.555
101452.546
101452.509
101452.467
101452.43
101452.408
101452.396
101452.383
101452.368
101452.354
101452.338
101452.316
101452.316
101452.343
101452.379
101452.391
101452.384
101452.388
101452.412
101452.466
101452.524
101452.58
101452.646
101452.729
101452.838
101452.994
101453.161
101453.325
101453.699
101453.882
101453.636
101455.426
101457.952
101457.941
101456.736
101458.373
101461.312
101466.057
101471.81
101453.051
101453.039
101453.027
101453.015
101453.004
101452.994
101452.984
101452.974
101452.966
101452.957
101452.95
101452.943
101452.937
101452.931
101452.926
101452.922
101452.919
101452.916
101452.913
101452.911
101452.91
101452.909
101452.908
101452.907
101452.907
101452.906
101452.906
101452.906
101452.905
101452.904
101452.903
101452.9
101452.898
101452.895
101452.89
101452.884
101452.885
101452.896
101452.91
101452.904
101452.873
101452.839
101452.818
101452.81
101452.802
101452.793
101452.784
101452.774
101452.761
101452.741
101452.744
101452.782
101452.807
101452.775
101452.74
101452.749
101452.786
101452.822
101452.859
101452.902
101452.957
101453.036
101453.141
101453.272
101453.429
101453.615
101453.896
101454.272
101454.591
101455.116
101455.788
101455.725
101456.689
101458.738
101460.149
101461.777
101465.929
101468.513
101471.203
101473.588
101453.285
101453.276
101453.266
101453.257
101453.248
101453.24
101453.232
101453.225
101453.218
101453.212
101453.206
101453.201
101453.197
101453.193
101453.191
101453.188
101453.187
101453.186
101453.186
101453.186
101453.187
101453.188
101453.19
101453.192
101453.195
101453.198
101453.201
101453.204
101453.207
101453.21
101453.212
101453.214
101453.219
101453.229
101453.242
101453.257
101453.259
101453.243
101453.224
101453.216
101453.217
101453.218
101453.217
101453.217
101453.213
101453.202
101453.206
101453.228
101453.267
101453.276
101453.248
101453.245
101453.269
101453.296
101453.315
101453.335
101453.364
101453.407
101453.468
101453.546
101453.645
101453.769
101453.932
101454.158
101454.451
101454.799
101455.227
101455.858
101456.487
101457.189
101458.109
101458.375
101458.629
101462.805
101466.726
101467.985
101468.524
101470.461
101473.821
101475.978
101453.478
101453.47
101453.462
101453.455
101453.448
101453.441
101453.435
101453.43
101453.425
101453.421
101453.418
101453.416
101453.414
101453.414
101453.414
101453.415
101453.417
101453.42
101453.424
101453.429
101453.434
101453.441
101453.448
101453.456
101453.465
101453.475
101453.485
101453.496
101453.508
101453.522
101453.538
101453.557
101453.571
101453.578
101453.581
101453.584
101453.593
101453.609
101453.624
101453.637
101453.651
101453.662
101453.665
101453.685
101453.733
101453.76
101453.747
101453.743
101453.762
101453.796
101453.822
101453.846
101453.872
101453.907
101453.951
101454.003
101454.065
101454.138
101454.231
101454.351
101454.52
101454.749
101455.05
101455.436
101455.899
101456.468
101457.025
101457.86
101458.556
101459.34
101461.576
101465.422
101467.808
101467.325
101467.917
101470.208
101471.738
101473.637
101475.502
101477.499
101453.635
101453.629
101453.622
101453.615
101453.609
101453.604
101453.6
101453.596
101453.593
101453.592
101453.591
101453.592
101453.593
101453.596
101453.6
101453.605
101453.612
101453.62
101453.629
101453.64
101453.652
101453.666
101453.68
101453.696
101453.712
101453.73
101453.75
101453.772
101453.795
101453.816
101453.838
101453.859
101453.883
101453.911
101453.94
101453.968
101453.996
101454.025
101454.051
101454.071
101454.105
101454.165
101454.2
101454.204
101454.225
101454.264
101454.302
101454.335
101454.369
101454.407
101454.45
101454.498
101454.552
101454.614
101454.688
101454.777
101454.888
101455.023
101455.2
101455.421
101455.719
101456.092
101456.587
101457.19
101457.938
101458.763
101459.314
101460.218
101463.208
101466.064
101466.531
101466.286
101467.653
101469.274
101470.937
101472.589
101474.418
101476.256
101478.066
101479.879
101453.736
101453.729
101453.722
101453.716
101453.711
101453.707
101453.704
101453.702
101453.701
101453.702
101453.704
101453.708
101453.713
101453.72
101453.728
101453.739
101453.751
101453.765
101453.781
101453.797
101453.815
101453.835
101453.858
101453.884
101453.913
101453.944
101453.976
101454.009
101454.044
101454.082
101454.12
101454.16
101454.2
101454.241
101454.283
101454.325
101454.361
101454.409
101454.48
101454.529
101454.55
101454.591
101454.645
101454.696
101454.744
101454.793
101454.843
101454.896
101454.952
101455.014
101455.083
101455.164
101455.259
101455.371
101455.504
101455.664
101455.866
101456.11
101456.41
101456.739
101457.165
101457.624
101458.242
101458.768
101459.544
101461.489
101464.335
101466.112
101466.154
101466.329
101467.49
101468.956
101470.466
101472.026
101473.467
101474.817
101476.336
101477.857
101479.807
101480.526
101453.75
101453.743
101453.735
101453.73
101453.725
101453.722
101453.72
101453.72
101453.721
101453.725
101453.73
101453.737
101453.746
101453.758
101453.772
101453.788
101453.805
101453.824
101453.847
101453.874
101453.904
101453.938
101453.973
101454.01
101454.049
101454.091
101454.135
101454.18
101454.228
101454.278
101454.33
101454.384
101454.438
101454.489
101454.55
101454.631
101454.693
101454.733
101454.791
101454.862
101454.927
101454.99
101455.053
101455.118
101455.184
101455.253
101455.326
101455.406
101455.495
101455.596
101455.711
101455.845
101456.002
101456.191
101456.424
101456.71
101457.06
101457.46
101457.93
101458.413
101458.993
101459.576
101460.416
101462.655
101464.66
101465.284
101465.342
101466.037
101467.387
101468.957
101470.452
101471.757
101473.064
101474.656
101476.398
101478.076
101479.575
101480.949
101482.945
101484.505
101453.625
101453.618
101453.611
101453.606
101453.603
101453.601
101453.601
101453.603
101453.608
101453.614
101453.623
101453.635
101453.649
101453.666
101453.686
101453.708
101453.735
101453.766
101453.799
101453.834
101453.872
101453.913
101453.958
101454.005
101454.056
101454.11
101454.166
101454.226
101454.288
101454.352
101454.413
101454.484
101454.574
101454.647
101454.703
101454.776
101454.86
101454.939
101455.017
101455.096
101455.176
101455.257
101455.341
101455.429
101455.523
101455.623
101455.732
101455.854
101455.991
101456.147
101456.326
101456.538
101456.795
101457.109
101457.486
101457.938
101458.485
101459.125
101459.847
101460.581
101461.377
101463.232
101464.985
101465.312
101465.732
101466.519
101467.416
101468.94
101470.496
101471.913
101473.476
101474.826
101476.336
101478.077
101479.47
101480.988
101482.65
101484.37
101486.602
101489.09
101453.312
101453.306
101453.3
101453.297
101453.295
101453.296
101453.299
101453.305
101453.313
101453.324
101453.339
101453.356
101453.376
101453.4
101453.427
101453.458
101453.492
101453.53
101453.572
101453.617
101453.666
101453.719
101453.775
101453.835
101453.899
101453.966
101454.033
101454.102
101454.18
101454.275
101454.358
101454.426
101454.511
101454.606
101454.698
101454.789
101454.882
101454.978
101455.075
101455.175
101455.279
101455.388
101455.503
101455.626
101455.759
101455.906
101456.068
101456.25
101456.456
101456.692
101456.967
101457.29
101457.667
101458.114
101458.624
101459.211
101459.82
101460.463
101461.494
101463.299
101465.013
101465.642
101465.891
101466.579
101467.816
101469.054
101470.255
101471.683
101473.355
101475.006
101476.188
101477.163
101478.358
101480.062
101481.726
101483.326
101485.258
101486.897
101488.388
101490.241
101452.747
101452.743
101452.739
101452.739
101452.74
101452.745
101452.753
101452.764
101452.778
101452.796
101452.817
101452.841
101452.869
101452.901
101452.937
101452.978
101453.022
101453.07
101453.123
101453.179
101453.24
101453.306
101453.374
101453.444
101453.521
101453.612
101453.709
101453.788
101453.866
101453.961
101454.063
101454.164
101454.266
101454.372
101454.48
101454.591
101454.705
101454.824
101454.948
101455.078
101455.216
101455.364
101455.525
101455.699
101455.892
101456.106
101456.345
101456.613
101456.916
101457.262
101457.654
101458.095
101458.577
101459.115
101459.7
101460.477
101461.904
101463.793
101464.592
101464.856
101465.398
101466.214
101467.662
101469.04
101470.324
101472.017
101473.295
101474.082
101475.1
101476.35
101477.591
101479.081
101480.612
101481.923
101483.285
101484.974
101486.925
101488.696
101490.195
101491.211
101451.882
101451.88
101451.881
101451.885
101451.891
101451.902
101451.915
101451.932
101451.953
101451.978
101452.007
101452.04
101452.077
101452.119
101452.166
101452.217
101452.272
101452.333
101452.398
101452.467
101452.539
101452.618
101452.71
101452.798
101452.882
101452.977
101453.081
101453.188
101453.295
101453.405
101453.519
101453.637
101453.758
101453.884
101454.014
101454.15
101454.293
101454.444
101454.605
101454.778
101454.965
101455.171
101455.398
101455.649
101455.93
101456.245
101456.598
101457
101457.458
101457.975
101458.557
101459.203
101459.908
101460.648
101461.841
101463.378
101464.044
101464.307
101465.047
101466.054
101467.219
101468.932
101470.389
101471.293
101471.959
101472.822
101474.013
101475.117
101476.374
101477.847
101479.357
101480.853
101482.341
101484.029
101485.646
101486.959
101488.872
101490.835
101492.399
101494.011
101450.652
101450.656
101450.662
101450.671
101450.684
101450.701
101450.722
101450.748
101450.777
101450.811
101450.85
101450.894
101450.943
101450.996
101451.054
101451.118
101451.187
101451.259
101451.339
101451.429
101451.518
101451.605
101451.703
101451.809
101451.917
101452.029
101452.145
101452.265
101452.39
101452.519
101452.652
101452.791
101452.935
101453.086
101453.245
101453.414
101453.594
101453.788
101453.999
101454.23
101454.484
101454.767
101455.082
101455.433
101455.826
101456.266
101456.761
101457.317
101457.935
101458.615
101459.365
101460.181
101461.014
101462.209
101463.362
101463.965
101464.685
101465.868
101467.177
101468.383
101469.576
101470.415
101471.181
101472.204
101473.368
101474.711
101476.162
101477.657
101479.159
101480.593
101481.988
101483.36
101484.766
101486.315
101488.175
101489.7
101491.357
101493.665
101495.387
101497.234
101448.998
101449.008
101449.021
101449.039
101449.06
101449.086
101449.116
101449.151
101449.192
101449.237
101449.288
101449.343
101449.405
101449.471
101449.543
101449.621
101449.708
101449.797
101449.887
101449.986
101450.092
101450.202
101450.316
101450.435
101450.559
101450.688
101450.821
101450.96
101451.103
101451.253
101451.41
101451.574
101451.748
101451.932
101452.129
101452.342
101452.574
101452.827
101453.106
101453.414
101453.756
101454.137
101454.56
101455.031
101455.554
101456.135
101456.776
101457.476
101458.24
101459.04
101459.907
101461.182
101462.759
101463.773
101464.342
101465.128
101466.211
101467.389
101468.637
101469.546
101470.118
101470.973
101472.395
101473.939
101475.63
101477.434
101479.018
101480.49
101481.987
101483.533
101485.135
101486.909
101488.824
101490.397
101491.826
101493.554
101495.36
101496.833
101497.783
101498.754
101446.856
101446.873
101446.896
101446.923
101446.955
101446.991
101447.033
101447.08
101447.133
101447.191
101447.254
101447.324
101447.399
101447.484
101447.571
101447.661
101447.76
101447.866
101447.976
101448.091
101448.212
101448.339
101448.47
101448.607
101448.75
101448.899
101449.054
101449.216
101449.386
101449.565
101449.755
101449.958
101450.176
101450.412
101450.669
101450.95
101451.259
101451.6
101451.977
101452.394
101452.855
101453.361
101453.916
101454.521
101455.176
101455.883
101456.629
101457.41
101458.512
101460.02
101461.435
101462.326
101462.807
101463.566
101464.794
101466.199
101467.555
101468.401
101469.269
101470.624
101472.231
101473.903
101475.396
101476.704
101477.913
101479.194
101480.515
101482.159
101483.938
101485.6
101487.311
101488.853
101490.596
101492.742
101494.319
101495.463
101496.88
101498.743
101500.523
101502.682
101444.17
101444.198
101444.233
101444.271
101444.315
101444.364
101444.419
101444.479
101444.546
101444.62
101444.698
101444.782
101444.873
101444.97
101445.074
101445.183
101445.299
101445.42
101445.547
101445.68
101445.819
101445.965
101446.117
101446.276
101446.442
101446.617
101446.802
101446.997
101447.206
101447.43
101447.671
101447.934
101448.221
101448.536
101448.884
101449.268
101449.693
101450.163
101450.683
101451.255
101451.883
101452.568
101453.312
101454.118
101454.971
101455.887
101456.852
101458.156
101459.273
101460.017
101460.807
101461.83
101463.308
101464.903
101466.449
101467.464
101468.466
101470.166
101471.729
101472.942
101474.331
101475.74
101477.01
101478.315
101479.567
101480.851
101482.384
101483.932
101485.46
101487.258
101489.127
101490.886
101492.233
101493.871
101495.84
101497.343
101499.309
101501.842
101503.19
101504.35
101440.899
101440.939
101440.988
101441.04
101441.098
101441.161
101441.231
101441.307
101441.388
101441.476
101441.571
101441.671
101441.778
101441.892
101442.011
101442.137
101442.27
101442.409
101442.554
101442.707
101442.866
101443.034
101443.211
101443.397
101443.594
101443.804
101444.029
101444.272
101444.535
101444.821
101445.135
101445.48
101445.86
101446.28
101446.744
101447.256
101447.82
101448.438
101449.112
101449.843
101450.631
101451.472
101452.365
101453.309
101454.256
101455.289
101456.659
101457.712
101458.75
101460.397
101462.206
101463.688
101464.882
101466.044
101467.182
101468.42
101469.694
101470.843
101471.951
101473.161
101474.537
101475.873
101477.164
101478.769
101480.572
101482.234
101484.06
101485.871
101487.693
101489.681
101491.745
101493.454
101495.045
101496.781
101498.675
101500.151
101501.515
101503.181
101504.408
101505.483
101437.025
101437.078
101437.143
101437.211
101437.284
101437.363
101437.448
101437.54
101437.637
101437.741
101437.851
101437.968
101438.091
101438.221
101438.358
101438.501
101438.652
101438.81
101438.977
101439.153
101439.338
101439.535
101439.745
101439.97
101440.213
101440.475
101440.761
101441.075
101441.42
101441.801
101442.222
101442.689
101443.206
101443.779
101444.411
101445.106
101445.868
101446.698
101447.599
101448.57
101449.603
101450.703
101451.874
101453.094
101454.368
101455.663
101456.675
101457.663
101458.948
101460.257
101461.477
101462.701
101464.103
101465.546
101466.979
101468.389
101469.858
101471.446
101473.163
101475.13
101477.194
101479.373
101481.44
101483.04
101484.484
101486.04
101487.472
101488.992
101490.663
101491.919
101493.086
101495.157
101497.56
101499.063
101499.9
101501.518
101503.4
101504.553
101506.457
101508.695
101432.565
101432.634
101432.716
101432.801
101432.891
101432.986
101433.087
101433.194
101433.308
101433.428
101433.554
101433.687
101433.827
101433.974
101434.129
101434.293
101434.465
101434.647
101434.841
101435.047
101435.268
101435.506
101435.764
101436.044
101436.35
101436.687
101437.057
101437.467
101437.921
101438.422
101438.977
101439.588
101440.26
101440.995
101441.796
101442.663
101443.597
101444.596
101445.659
101446.772
101447.943
101449.188
101450.754
101452.624
101454.444
101456.192
101457.746
101459.605
101461.132
101462.15
101463.244
101464.504
101465.789
101467.145
101468.567
101469.98
101471.467
101472.852
101474.439
101476.587
101478.788
101480.441
101482.071
101483.965
101485.638
101487.26
101488.718
101490.099
101491.863
101494.336
101496.408
101497.924
101499.338
101501.217
101502.945
101505.031
101507.831
101509.352
101511.449
101514.277
101427.606
101427.692
101427.792
101427.894
101428
101428.112
101428.23
101428.354
101428.485
101428.622
101428.766
101428.918
101429.078
101429.248
101429.427
101429.617
101429.821
101430.039
101430.274
101430.528
101430.805
101431.108
101431.441
101431.809
101432.216
101432.668
101433.168
101433.723
101434.338
101435.016
101435.762
101436.58
101437.471
101438.436
101439.478
101440.593
101441.782
101443.032
101444.352
101445.705
101447.508
101449.944
101451.487
101452.505
101453.557
101454.61
101455.938
101457.48
101459.213
101461.399
101463.435
101465.278
101466.973
101468.237
101469.266
101470.464
101471.889
101473.44
101475.306
101477.431
101479.429
101481.469
101483.187
101484.93
101487.299
101489.173
101490.717
101492.501
101494.291
101496.019
101498.5
101500.86
101502.613
101504.172
101506.172
101508.469
101510.66
101512.958
101514.156
101516.213
101422.214
101422.315
101422.433
101422.552
101422.673
101422.801
101422.934
101423.073
101423.22
101423.373
101423.535
101423.707
101423.888
101424.082
101424.29
101424.513
101424.755
101425.018
101425.306
101425.623
101425.973
101426.36
101426.79
101427.268
101427.798
101428.385
101429.035
101429.751
101430.536
101431.392
101432.318
101433.314
101434.374
101435.495
101436.667
101437.87
101439.075
101440.444
101442.292
101444.499
101446.182
101447.428
101449.073
101451.331
101453.594
101455.874
101458.19
101460.006
101461.244
101462.317
101463.519
101464.69
101465.777
101467.307
101469.464
101471.528
101473.678
101476.017
101477.915
101479.399
101481.319
101483.01
101484.639
101487.136
101488.709
101490.393
101493.597
101495.656
101497.02
101498.484
101500.028
101501.671
101504.099
101506.275
101508.253
101510.192
101512.006
101514.705
101516.51
101517.913
101415.071
101415.073
101415.073
101415.072
101415.068
101415.064
101415.057
101415.048
101415.038
101415.026
101415.012
101414.996
101414.977
101414.957
101414.934
101414.909
101414.881
101414.851
101414.818
101414.782
101414.744
101414.702
101414.657
101414.609
101414.558
101414.502
101414.443
101414.381
101414.314
101414.242
101414.166
101414.086
101414.001
101413.911
101413.816
101413.715
101413.607
101413.494
101413.375
101413.25
101413.118
101412.978
101412.832
101412.678
101412.515
101412.345
101412.166
101411.977
101411.778
101411.568
101411.344
101411.105
101410.851
101410.578
101410.285
101409.968
101409.623
101409.245
101408.827
101408.362
101407.839
101407.25
101406.583
101405.827
101404.976
101404.024
101402.972
101401.821
101400.571
101399.228
101397.793
101396.288
101394.513
101392.537
101390.629
101388.874
101386.939
101384.814
101382.214
101377.948
101417.4
101417.401
101417.401
101417.4
101417.397
101417.393
101417.387
101417.38
101417.372
101417.362
101417.351
101417.338
101417.324
101417.307
101417.289
101417.27
101417.248
101417.224
101417.198
101417.17
101417.14
101417.107
101417.072
101417.035
101416.994
101416.951
101416.905
101416.856
101416.804
101416.749
101416.69
101416.628
101416.562
101416.493
101416.42
101416.342
101416.26
101416.174
101416.084
101415.989
101415.889
101415.785
101415.675
101415.561
101415.441
101415.315
101415.184
101415.047
101414.904
101414.753
101414.595
101414.428
101414.25
101414.061
101413.859
101413.642
101413.408
101413.151
101412.869
101412.555
101412.202
101411.8
101411.34
101410.812
101410.208
101409.521
101408.746
101407.879
101406.919
101405.871
101404.745
101403.546
101402.231
101400.842
101399.358
101397.643
101395.581
101393.355
101391.127
101388.48
101419.926
101419.926
101419.926
101419.925
101419.923
101419.919
101419.915
101419.91
101419.904
101419.897
101419.889
101419.88
101419.87
101419.859
101419.846
101419.832
101419.817
101419.8
101419.782
101419.763
101419.742
101419.719
101419.694
101419.668
101419.64
101419.61
101419.578
101419.544
101419.508
101419.47
101419.429
101419.386
101419.342
101419.296
101419.245
101419.191
101419.135
101419.077
101419.016
101418.953
101418.886
101418.817
101418.745
101418.67
101418.592
101418.512
101418.428
101418.341
101418.251
101418.158
101418.061
101417.961
101417.856
101417.744
101417.626
101417.499
101417.361
101417.211
101417.046
101416.861
101416.65
101416.406
101416.121
101415.786
101415.393
101414.936
101414.409
101413.81
101413.135
101412.385
101411.561
101410.668
101409.705
101408.681
101407.271
101405.794
101404.524
101402.933
101400.785
101398.499
101422.597
101422.597
101422.597
101422.596
101422.594
101422.592
101422.59
101422.587
101422.583
101422.579
101422.575
101422.57
101422.564
101422.557
101422.55
101422.543
101422.534
101422.525
101422.515
101422.504
101422.493
101422.48
101422.467
101422.452
101422.437
101422.421
101422.403
101422.385
101422.366
101422.345
101422.323
101422.302
101422.278
101422.252
101422.224
101422.196
101422.167
101422.137
101422.105
101422.073
101422.04
101422.005
101421.97
101421.934
101421.897
101421.86
101421.821
101421.783
101421.743
101421.703
101421.663
101421.622
101421.58
101421.537
101421.491
101421.442
101421.39
101421.337
101421.281
101421.223
101421.157
101421.07
101420.958
101420.814
101420.629
101420.397
101420.107
101419.754
101419.331
101418.839
101418.282
101417.673
101417.015
101416.29
101415.447
101414.426
101413.21
101411.803
101410.299
101409.112
101425.353
101425.353
101425.352
101425.351
101425.351
101425.35
101425.349
101425.348
101425.347
101425.346
101425.345
101425.344
101425.342
101425.341
101425.339
101425.338
101425.336
101425.334
101425.332
101425.33
101425.328
101425.325
101425.323
101425.32
101425.317
101425.314
101425.31
101425.307
101425.303
101425.3
101425.297
101425.293
101425.288
101425.283
101425.279
101425.275
101425.271
101425.267
101425.264
101425.262
101425.26
101425.258
101425.258
101425.259
101425.26
101425.263
101425.268
101425.274
101425.283
101425.293
101425.306
101425.321
101425.338
101425.358
101425.381
101425.411
101425.443
101425.481
101425.519
101425.561
101425.608
101425.654
101425.702
101425.74
101425.761
101425.756
101425.714
101425.624
101425.473
101425.254
101424.963
101424.604
101424.176
101423.672
101423.067
101422.367
101421.626
101420.904
101420.139
101419.165
101428.14
101428.139
101428.139
101428.138
101428.138
101428.138
101428.139
101428.14
101428.141
101428.143
101428.145
101428.148
101428.151
101428.154
101428.157
101428.162
101428.166
101428.171
101428.176
101428.182
101428.189
101428.195
101428.203
101428.21
101428.219
101428.228
101428.237
101428.248
101428.259
101428.271
101428.283
101428.296
101428.31
101428.325
101428.342
101428.359
101428.379
101428.399
101428.421
101428.445
101428.471
101428.499
101428.53
101428.563
101428.598
101428.637
101428.679
101428.725
101428.774
101428.828
101428.886
101428.95
101429.018
101429.093
101429.177
101429.277
101429.387
101429.497
101429.614
101429.733
101429.85
101429.997
101430.161
101430.332
101430.515
101430.691
101430.852
101430.986
101431.072
101431.086
101431.018
101430.863
101430.625
101430.317
101429.951
101429.531
101429.096
101428.663
101428.157
101427.61
101430.903
101430.901
101430.901
101430.9
101430.901
101430.902
101430.904
101430.906
101430.91
101430.914
101430.919
101430.925
101430.931
101430.939
101430.947
101430.956
101430.966
101430.977
101430.988
101431.001
101431.015
101431.03
101431.046
101431.063
101431.082
101431.102
101431.123
101431.145
101431.169
101431.194
101431.221
101431.249
101431.279
101431.311
101431.345
101431.382
101431.42
101431.462
101431.505
101431.552
101431.601
101431.654
101431.71
101431.77
101431.834
101431.901
101431.974
101432.051
101432.133
101432.22
101432.314
101432.413
101432.52
101432.634
101432.764
101432.905
101433.049
101433.203
101433.371
101433.553
101433.751
101433.951
101434.158
101434.408
101434.692
101434.974
101435.259
101435.536
101435.782
101435.981
101436.122
101436.187
101436.165
101436.086
101435.992
101435.897
101435.806
101435.753
101435.794
101435.93
101433.597
101433.595
101433.594
101433.594
101433.595
101433.597
101433.6
101433.604
101433.609
101433.615
101433.622
101433.631
101433.64
101433.651
101433.663
101433.676
101433.691
101433.707
101433.724
101433.744
101433.764
101433.786
101433.809
101433.834
101433.86
101433.889
101433.919
101433.951
101433.985
101434.022
101434.06
101434.101
101434.144
101434.19
101434.239
101434.29
101434.344
101434.402
101434.463
101434.527
101434.595
101434.667
101434.743
101434.824
101434.909
101434.998
101435.093
101435.193
101435.299
101435.411
101435.529
101435.654
101435.787
101435.928
101436.083
101436.248
101436.417
101436.598
101436.792
101437.002
101437.232
101437.483
101437.757
101438.043
101438.368
101438.727
101439.086
101439.452
101439.818
101440.179
101440.513
101440.792
101441.018
101441.212
101441.389
101441.586
101441.838
101442.136
101442.514
101442.908
101436.181
101436.179
101436.177
101436.177
101436.178
101436.181
101436.184
101436.189
101436.195
101436.203
101436.211
101436.222
101436.234
101436.247
101436.262
101436.279
101436.297
101436.317
101436.338
101436.361
101436.386
101436.413
101436.442
101436.473
101436.506
101436.541
101436.579
101436.618
101436.661
101436.705
101436.753
101436.803
101436.856
101436.913
101436.972
101437.035
101437.101
101437.17
101437.244
101437.321
101437.403
101437.489
101437.579
101437.674
101437.774
101437.879
101437.989
101438.105
101438.227
101438.355
101438.489
101438.63
101438.779
101438.935
101439.103
101439.279
101439.462
101439.667
101439.888
101440.125
101440.376
101440.647
101440.944
101441.263
101441.605
101441.988
101442.403
101442.82
101443.259
101443.715
101444.175
101444.637
101445.1
101445.552
101446
101446.469
101446.989
101447.621
101448.261
101448.879
101438.621
101438.618
101438.616
101438.616
101438.617
101438.619
101438.622
101438.628
101438.634
101438.643
101438.653
101438.664
101438.677
101438.692
101438.709
101438.728
101438.748
101438.771
101438.795
101438.821
101438.85
101438.88
101438.913
101438.948
101438.985
101439.025
101439.068
101439.113
101439.161
101439.211
101439.265
101439.321
101439.381
101439.444
101439.511
101439.581
101439.654
101439.732
101439.814
101439.899
101439.989
101440.083
101440.182
101440.286
101440.395
101440.509
101440.628
101440.752
101440.883
101441.02
101441.166
101441.321
101441.485
101441.658
101441.836
101442.021
101442.214
101442.43
101442.661
101442.902
101443.164
101443.442
101443.734
101444.05
101444.402
101444.789
101445.232
101445.697
101446.186
101446.716
101447.289
101447.906
101448.566
101449.246
101449.912
101450.573
101451.336
101452.195
101453.07
101453.774
101440.89
101440.887
101440.884
101440.882
101440.883
101440.884
101440.888
101440.893
101440.9
101440.908
101440.918
101440.93
101440.944
101440.959
101440.977
101440.996
101441.018
101441.041
101441.067
101441.095
101441.125
101441.157
101441.192
101441.229
101441.269
101441.311
101441.356
101441.404
101441.455
101441.508
101441.565
101441.625
101441.688
101441.754
101441.824
101441.898
101441.975
101442.056
101442.141
101442.231
101442.325
101442.423
101442.526
101442.634
101442.749
101442.869
101442.997
101443.132
101443.271
101443.415
101443.564
101443.719
101443.879
101444.047
101444.227
101444.424
101444.635
101444.85
101445.072
101445.301
101445.541
101445.803
101446.09
101446.405
101446.752
101447.137
101447.548
101448.01
101448.528
101449.119
101449.785
101450.517
101451.302
101452.125
101452.993
101453.946
101454.954
101456.038
101457.172
101457.991
101442.972
101442.968
101442.963
101442.961
101442.96
101442.961
101442.963
101442.967
101442.973
101442.981
101442.99
101443.001
101443.015
101443.03
101443.047
101443.066
101443.087
101443.111
101443.136
101443.164
101443.194
101443.226
101443.261
101443.299
101443.338
101443.381
101443.426
101443.474
101443.525
101443.579
101443.635
101443.695
101443.758
101443.825
101443.894
101443.968
101444.045
101444.126
101444.212
101444.303
101444.399
101444.5
101444.605
101444.711
101444.822
101444.937
101445.056
101445.181
101445.314
101445.459
101445.612
101445.77
101445.935
101446.104
101446.281
101446.46
101446.645
101446.843
101447.053
101447.277
101447.516
101447.771
101448.047
101448.349
101448.68
101449.048
101449.457
101449.918
101450.436
101451.022
101451.678
101452.407
101453.227
101454.177
101455.263
101456.551
101457.973
101459.334
101460.608
101461.471
101444.853
101444.847
101444.841
101444.837
101444.835
101444.834
101444.834
101444.837
101444.841
101444.847
101444.855
101444.865
101444.876
101444.89
101444.905
101444.923
101444.942
101444.964
101444.988
101445.014
101445.042
101445.073
101445.106
101445.141
101445.179
101445.219
101445.262
101445.308
101445.356
101445.407
101445.462
101445.519
101445.58
101445.645
101445.713
101445.785
101445.858
101445.934
101446.013
101446.095
101446.18
101446.269
101446.367
101446.472
101446.582
101446.695
101446.813
101446.935
101447.062
101447.19
101447.322
101447.463
101447.612
101447.769
101447.934
101448.107
101448.287
101448.475
101448.673
101448.882
101449.104
101449.341
101449.597
101449.876
101450.182
101450.523
101450.905
101451.337
101451.826
101452.38
101453.018
101453.772
101454.723
101455.847
101456.981
101458.13
101459.424
101461.016
101462.828
101463.821
101446.527
101446.519
101446.511
101446.504
101446.5
101446.497
101446.495
101446.495
101446.497
101446.5
101446.506
101446.513
101446.522
101446.533
101446.546
101446.561
101446.577
101446.596
101446.617
101446.64
101446.666
101446.693
101446.723
101446.756
101446.79
101446.828
101446.867
101446.91
101446.954
101447.001
101447.049
101447.1
101447.153
101447.209
101447.267
101447.327
101447.394
101447.465
101447.538
101447.615
101447.695
101447.778
101447.862
101447.948
101448.04
101448.136
101448.239
101448.347
101448.461
101448.58
101448.704
101448.834
101448.969