/*--------------------------------*- C++ -*----------------------------------*\
  =========                 |
  \\      /  F ield         | OpenFOAM: The Open Source CFD Toolbox
   \\    /   O peration     | Website:  https://openfoam.org
    \\  /    A nd           | Version:  8
     \\/     M anipulation  |
\*---------------------------------------------------------------------------*/
FoamFile
{
    version     2.0;
    format      ascii;
    class       volScalarField;
    location    "0.037";
    object      T;
}
// * * * * * * * * * * * * * * * * * * * * * * * * * * * * * * * * * * * * * //

dimensions      [0 0 0 1 0 0 0];

internalField   nonuniform List<scalar> 
42400
(
472.248785
470.729657
469.170446
467.570132
465.927733
464.24232
462.51303
460.739077
458.919772
457.054542
455.142949
453.184716
451.17975
449.128174
447.030353
444.886932
442.698863
440.467447
438.194367
435.881723
433.532069
431.148448
428.734421
426.294097
423.832153
421.353855
418.86506
416.372224
413.882388
411.403158
408.942675
406.509571
404.112911
401.762134
399.466969
397.237363
395.083392
393.015182
391.042795
389.176143
387.424974
385.798761
384.306589
382.956928
381.757511
380.715232
379.835905
379.124119
378.583115
378.214717
378.019131
377.993993
378.133839
378.434972
378.888819
379.482801
380.199791
381.019132
381.904463
382.824184
383.762979
384.758925
385.449009
385.785692
385.710109
385.105072
384.193128
382.95023
381.294055
379.031572
376.216344
372.411584
367.151168
362.110982
357.369201
350.441332
341.85182
335.486289
328.236702
323.335505
472.278329
470.818966
469.321162
467.783986
466.206555
464.588048
462.927713
461.224887
459.479011
457.689649
455.85651
453.979473
452.058611
450.094223
448.086861
446.037364
443.946898
441.816983
439.649534
437.446902
435.2119
432.947848
430.658597
428.34856
426.022736
423.686725
421.346736
419.009588
416.6827
414.374067
412.092227
409.846217
407.645519
405.499986
403.419763
401.415197
399.496762
397.675001
395.960378
394.363133
392.893118
391.55959
390.370982
389.334594
388.45646
387.741149
387.191486
386.808089
386.589396
386.531152
386.625529
386.86446
387.232284
387.710904
388.273538
388.892724
389.550272
390.260129
390.744446
390.949039
390.833894
390.16746
389.295621
388.129265
386.590443
384.569804
381.911062
378.591266
374.594027
369.798143
364.477163
358.547979
351.293447
343.851382
337.47632
330.757279
323.766335
316.894817
311.322774
307.00021
472.317612
470.937714
469.52154
468.068273
466.577152
465.047486
463.478661
461.870165
460.221595
458.532685
456.80332
455.033567
453.223697
451.374213
449.485886
447.559781
445.597296
443.600196
441.570647
439.511256
437.425103
435.315775
433.187397
431.044657
428.892831
426.737792
424.586021
422.444601
420.321204
418.224062
416.161933
414.144043
412.180038
410.279923
408.453952
406.712517
405.066013
403.524663
402.09827
400.795964
399.625892
398.595
397.708717
396.970606
396.381898
395.941314
395.645524
395.487431
395.455691
395.52763
395.690641
395.919778
396.195347
396.514364
396.681005
396.642209
396.345791
395.612709
394.69355
393.519431
392.020989
390.119578
387.665436
384.610882
380.919832
376.577407
371.56449
365.939633
359.873391
353.304284
346.406522
339.575376
332.527236
325.466998
319.067609
313.655111
308.961336
305.04986
301.803829
300.219416
472.363482
471.076364
469.75549
468.400166
467.009768
465.583748
464.121651
462.62313
461.087964
459.516074
457.90755
456.26267
454.581927
452.86606
451.116079
449.333303
447.519384
445.67635
443.806631
441.913096
439.999087
438.068441
436.125522
434.175243
432.223072
430.27505
428.33778
426.418421
424.52467
422.664721
420.847215
419.081154
417.37581
415.740603
414.184912
412.717886
411.348197
410.083737
408.93135
407.896494
406.982856
406.191918
405.522596
404.97134
404.530312
404.188042
403.931374
403.744759
403.61325
403.471703
403.241075
402.867895
402.287142
401.413639
400.376961
399.116993
397.575499
395.685322
393.328721
390.456549
387.028843
383.018291
378.411373
373.226509
367.512163
361.353978
354.830132
348.021656
341.179237
334.426496
327.838953
321.67774
316.110548
311.21502
307.064858
303.900043
301.370842
300.206658
299.929006
299.889027
472.41228
471.223864
470.004367
468.753226
467.469955
466.154158
464.805545
463.423941
462.009313
460.561779
459.081639
457.569388
456.02575
454.451697
452.848481
451.217665
449.561144
447.881184
446.180443
444.462001
442.729386
440.98659
439.238086
437.488841
435.744314
434.010449
432.293648
430.600735
428.938904
427.315631
425.738567
424.215399
422.753679
421.360601
420.042766
418.805909
417.654568
416.591724
415.618418
414.733394
413.933067
413.210651
412.556617
411.960206
411.388716
410.802162
410.160871
409.418767
408.522322
407.471957
406.270648
404.871717
403.225476
401.270637
398.919257
396.131998
392.874866
389.123079
384.864815
380.101003
374.834048
369.101458
362.95731
356.500058
349.830574
343.104369
336.461983
330.013881
323.907015
318.312406
313.352901
309.126917
305.698366
303.154784
301.292721
300.159977
299.926027
299.874596
299.864138
299.863928
472.459924
471.367876
470.247363
469.097949
467.919284
466.711117
465.473312
464.20586
462.908895
461.582716
460.227806
458.844848
457.434753
455.99868
454.538062
453.054623
451.550411
450.027806
448.48955
446.938755
445.378916
443.813912
442.248003
440.685812
439.1323
437.592716
436.072535
434.577375
433.112873
431.684547
430.297621
428.956819
427.666114
426.428447
425.245428
424.116979
423.040987
422.013164
421.026441
420.070901
419.127565
418.171474
417.173633
416.101691
414.941652
413.676562
412.274274
410.69871
408.907369
406.842947
404.453123
401.701268
398.554656
394.987187
390.982736
386.536166
381.653843
376.357264
370.675425
364.660077
358.361362
351.868371
345.272482
338.722337
332.349566
326.305209
320.70151
315.655604
311.252039
307.57818
304.687307
302.55672
301.098284
300.179728
299.93476
299.879893
299.865101
299.862421
299.859679
299.853481
472.501888
471.494723
470.461405
469.401613
468.315115
467.201781
466.061596
464.894673
463.70127
462.481804
461.236864
459.967234
458.673906
457.358097
456.021265
454.66512
453.291639
451.903069
450.501932
449.091016
447.673364
446.252251
444.831146
443.413658
442.003468
440.604232
439.219474
437.852438
436.505922
435.182077
433.882187
432.606405
431.353456
430.120321
428.90202
427.691165
426.477382
425.245922
423.980063
422.660056
421.266993
419.779597
418.172532
416.415232
414.468648
412.293477
409.856165
407.12372
404.065834
400.656835
396.877401
392.71582
388.169332
383.245122
377.960449
372.344651
366.431678
360.285128
353.979543
347.601815
341.228471
334.967497
328.94002
323.272299
318.083461
313.487023
309.560594
306.364369
303.899355
302.12494
300.933146
300.213598
299.952961
299.889484
299.869014
299.863842
299.859352
299.85361
299.844121
299.827185
472.533413
471.59002
470.622224
469.629788
468.612557
467.570472
466.503581
465.412042
464.296143
463.156306
461.993101
460.807257
459.599664
458.371387
457.123663
455.857904
454.575692
453.278761
451.968985
450.648338
449.318861
447.982599
446.641531
445.297479
443.951998
442.606244
441.260815
439.915575
438.569445
437.22019
435.864198
434.496458
433.110131
431.695836
430.242241
428.735493
427.15941
425.49669
423.725704
421.821527
419.758803
417.510744
415.049741
412.348168
409.37934
406.119317
402.548073
398.650561
394.417925
389.848562
384.948996
379.734341
374.228703
368.4649
362.481361
356.332826
350.092556
343.851988
337.707108
331.757532
326.106002
320.841251
316.073331
311.885662
308.353911
305.516195
303.363407
301.839283
300.847258
300.265969
299.997951
299.922243
299.889087
299.873754
299.864512
299.853192
299.835335
299.823196
299.819648
299.82156
472.550044
471.640301
470.707082
469.750182
468.769462
467.764853
466.736368
465.6841
464.608234
463.509043
462.386898
461.242262
460.075691
458.887828
457.679392
456.451163
455.203959
453.938608
452.655907
451.356567
450.041152
448.709997
447.363099
446
444.619662
443.220324
441.799271
440.352546
438.874577
437.357607
435.793139
434.171299
432.480396
430.707292
428.836517
426.850693
424.730747
422.45617
420.005372
417.35622
414.486675
411.375437
408.003274
404.353921
400.4149
396.17852
391.642831
386.812526
381.699744
376.324767
370.716356
364.911022
358.952134
352.88745
346.787899
340.734519
334.820874
329.147183
323.815454
318.912119
314.535313
310.741149
307.578567
305.057804
303.151227
301.799675
300.914247
300.387935
300.112038
299.987031
299.937493
299.906538
299.881159
299.857503
299.839335
299.828997
299.824044
299.816631
299.813703
299.81479
472.548809
471.63657
470.700784
469.741216
468.757677
467.750024
466.718159
465.662029
464.581624
463.476973
462.348127
461.195158
460.018127
458.817082
457.592034
456.342932
455.069616
453.771767
452.448842
451.099992
449.723967
448.318989
446.882597
445.409687
443.894172
442.330838
440.713643
439.035447
437.288143
435.463129
433.549577
431.534557
429.403766
427.141648
424.73155
422.156006
419.397092
416.436862
413.257826
409.843937
406.181323
402.258893
398.069146
393.609005
388.880644
383.892304
378.659082
373.203719
367.557305
361.759878
355.860159
349.911932
343.977983
338.132816
332.465661
327.071402
322.041716
317.455808
313.392854
309.909813
307.043361
304.783229
303.077531
301.858067
301.03995
300.530508
300.234187
300.070788
299.981715
299.928149
299.886358
299.859631
299.842355
299.827779
299.821937
299.821158
299.82232
299.81659
299.80928
299.806423
472.530072
471.579975
470.605379
469.606025
468.581664
467.532055
466.456961
465.356143
464.229354
463.076333
461.896799
460.690377
459.455575
458.190534
456.894075
455.564781
454.200903
452.800301
451.360372
449.877977
448.34937
446.770131
445.13515
443.440387
441.680988
439.849411
437.936936
435.933798
433.829136
431.611098
429.266858
426.782718
424.144282
421.336709
418.345013
415.154405
411.750992
408.122413
404.258276
400.150824
395.795657
391.192496
386.345983
381.266493
375.970942
370.483551
364.836603
359.071149
353.237482
347.395047
341.609589
335.957012
330.516618
325.371772
320.606639
316.29821
312.509338
309.279077
306.628353
304.544197
302.976679
301.850137
301.078414
300.576422
300.264806
300.079319
299.962556
299.89646
299.857487
299.836592
299.832596
299.829018
299.825026
299.822428
299.816027
299.809645
299.80942
299.810951
299.80991
299.805992
472.49225
471.465678
470.412576
469.332568
468.225238
467.090119
465.926682
464.733885
463.510307
462.254738
460.965736
459.641645
458.281556
456.884478
455.448213
453.970176
452.447378
450.876367
449.253171
447.57326
445.831473
444.021933
442.138068
440.172542
438.117147
435.962807
433.69958
431.316696
428.802633
426.145242
423.331906
420.349755
417.185917
413.827973
410.264543
406.485592
402.48299
398.251124
393.787595
389.093972
384.176597
379.047439
373.724946
368.234856
362.610878
356.895211
351.138839
345.401596
339.751506
334.261933
329.011033
324.080434
319.544094
315.468568
311.901458
308.873594
306.390866
304.426804
302.934174
301.848887
301.093857
300.59049
300.268452
300.070083
299.952023
299.882205
299.857455
299.845651
299.838715
299.834578
299.830648
299.826432
299.82269
299.820076
299.815076
299.806214
299.799292
299.799446
299.801927
299.803681
472.436753
471.297943
470.129553
468.931005
467.701617
466.440579
465.146289
463.817777
462.454103
461.053709
459.614794
458.135286
456.612807
455.044627
453.427611
451.758173
450.032236
448.245185
446.3918
444.46625
442.462044
440.371968
438.188101
435.901812
433.503769
430.983989
428.3319
425.536454
422.586272
419.469828
416.175724
412.693237
409.01253
405.125112
401.024372
396.706181
392.169587
387.417577
382.457896
377.303918
371.975507
366.499836
360.912057
355.255715
349.582794
343.953252
338.433976
333.097344
328.018488
323.270022
318.919769
315.024997
311.628438
308.749943
306.383518
304.499999
303.053923
301.983921
301.220293
300.696365
300.350944
300.132206
299.999464
299.921417
299.880513
299.862487
299.852317
299.843966
299.835518
299.827386
299.820295
299.813581
299.806287
299.800747
299.797821
299.794221
299.787661
299.782434
299.784277
299.790958
472.367882
471.089792
469.778391
468.432903
467.052391
465.635532
464.181242
462.68799
461.153993
459.57718
457.95516
456.285185
454.564115
452.788378
450.953931
449.05621
447.090115
445.049966
442.929459
440.721662
438.419009
436.013298
433.495716
430.856885
428.086931
425.17559
422.112339
418.886576
415.488057
411.907097
408.134927
404.164147
399.989251
395.607234
391.018281
386.226533
381.240902
376.075926
370.752605
365.29915
359.75158
354.154034
348.558685
343.025062
337.618788
332.409288
327.467133
322.860696
318.651632
314.886901
311.599979
308.805441
306.500537
304.65676
303.224077
302.144038
301.357999
300.807885
300.436567
300.194791
300.043711
299.953965
299.900649
299.870971
299.854756
299.842818
299.832463
299.823174
299.815214
299.808337
299.803306
299.798472
299.793739
299.790014
299.786584
299.784513
299.781367
299.777176
299.776645
299.785622
472.288584
470.850138
469.37411
467.859529
466.305199
464.70968
463.07145
461.388583
459.658835
457.879613
456.047935
454.160395
452.213134
450.201796
448.121505
445.96682
443.731726
441.409615
438.993283
436.474937
433.846221
431.098264
428.221748
425.207017
422.044203
418.723498
415.235415
411.571048
407.72244
403.683027
399.448165
395.015731
390.386804
385.566413
380.564335
375.395903
370.082786
364.653663
359.144707
353.599776
348.070162
342.613821
337.293975
332.176853
327.328919
322.812937
318.68527
314.990248
311.757026
308.995613
306.699197
304.84406
303.389482
302.28363
301.469009
300.88752
300.485845
300.219171
300.050443
299.948585
299.890614
299.859185
299.845549
299.839094
299.83177
299.825121
299.819769
299.815034
299.80984
299.805408
299.802066
299.799176
299.794832
299.79078
299.7871
299.785392
299.783589
299.777687
299.776541
299.781902
472.200761
470.584717
468.926373
467.224548
465.47778
463.684444
461.842625
459.949992
458.003836
456.001037
453.938027
451.810755
449.614662
447.344649
444.995059
442.559663
440.031658
437.403679
434.667823
431.8157
428.838506
425.727124
422.472274
419.064797
415.495832
411.757117
407.841359
403.742674
399.457102
394.983196
390.322689
385.481212
380.469055
375.301931
370.001686
364.596901
359.123284
353.623767
348.148177
342.752377
337.49675
332.444072
327.65694
323.194089
319.107084
315.436515
312.2103
309.439178
307.118484
305.223257
303.716184
302.552243
301.681141
301.050244
300.608706
300.311303
300.118592
299.998543
299.926419
299.886644
299.865612
299.853052
299.843893
299.837403
299.830629
299.824308
299.818656
299.812923
299.807821
299.802898
299.798978
299.795942
299.793887
299.791572
299.788498
299.787788
299.793923
299.792913
299.786044
299.782918
472.105605
470.297137
468.441257
466.536593
464.581488
462.57401
460.511826
458.392188
456.21191
453.96734
451.654326
449.268193
446.803718
444.255124
441.61607
438.87967
436.038515
433.084724
430.010021
426.80583
423.463466
419.974329
416.330124
412.523156
408.546692
404.395388
400.065793
395.556914
390.870859
386.013522
380.995301
375.831814
370.544552
365.161419
359.717064
354.252911
348.8168
343.462136
338.246453
333.22935
328.469757
324.022912
319.937737
316.25254
312.993239
310.170872
307.782185
305.809633
304.221929
302.977121
302.027903
301.325508
300.822074
300.472971
300.238544
300.085392
299.987685
299.927585
299.891106
299.863724
299.846572
299.834995
299.826402
299.819837
299.815175
299.810789
299.805634
299.800706
299.794933
299.790503
299.788289
299.788104
299.787904
299.788339
299.79137
299.792405
299.793184
299.807444
299.807055
299.798942
472.004097
469.990355
467.923777
465.802804
463.625524
461.389639
459.092431
456.730726
454.300866
451.798683
449.219474
446.55799
443.808433
440.964464
438.019233
434.965423
431.795323
428.500928
425.074126
421.50686
417.791355
413.920406
409.887724
405.688344
401.319112
396.77922
392.070817
387.199656
382.175774
377.014156
371.735353
366.365979
360.93901
355.49381
350.075782
344.735555
339.527664
334.50871
329.734956
325.259537
321.129171
317.381488
314.043079
311.126961
308.633033
306.546793
304.840698
303.47893
302.420975
301.622114
301.035821
300.617888
300.329087
300.1356
300.009508
299.928162
299.875925
299.847736
299.831261
299.828221
299.824262
299.821003
299.817781
299.814397
299.811168
299.809021
299.806657
299.802715
299.797331
299.791341
299.787527
299.786035
299.786459
299.787301
299.790743
299.793449
299.794107
299.799714
299.817434
299.817347
471.897235
469.66739
467.378974
465.030204
462.618896
460.142431
457.597723
454.981189
452.288727
449.515698
446.656926
443.706695
440.658781
437.50649
434.242726
430.860083
427.351021
423.708009
419.923748
415.991441
411.90512
407.660036
403.253107
398.683432
393.95286
389.066602
384.033867
378.868493
373.58953
368.221715
362.795777
357.348494
351.922411
346.565148
341.328231
336.265428
331.430627
326.875417
322.646257
318.78224
315.311997
312.252021
309.606426
307.368081
305.517892
304.025243
302.850439
301.948027
301.273203
300.783586
300.439276
300.204404
300.049478
299.95136
299.89155
299.859252
299.849552
299.841374
299.835218
299.829242
299.823809
299.820387
299.817049
299.813672
299.810583
299.807504
299.80484
299.802159
299.797758
299.794536
299.789535
299.78635
299.78529
299.786019
299.787896
299.794055
299.795618
299.79665
299.81889
299.833669
471.786072
469.33142
466.812228
464.226488
461.571747
458.845081
456.043061
453.161737
450.196626
447.142716
443.99448
440.745913
437.390589
433.921748
430.332439
426.615664
422.764582
418.772755
414.634457
410.345028
405.901299
401.302071
396.54864
391.645382
386.600347
381.425862
376.139093
370.762522
365.324274
359.858233
354.403861
349.005671
343.712266
338.574956
333.645918
328.975968
324.612123
320.595199
316.956734
313.718392
310.889995
308.46984
306.442846
304.781694
303.452149
302.415136
301.628479
301.048452
300.633204
300.345107
300.151815
300.026416
299.947416
299.899136
299.871198
299.855684
299.846782
299.839392
299.833514
299.82872
299.824344
299.819059
299.813578
299.808409
299.804239
299.801189
299.798405
299.795691
299.794302
299.794526
299.797987
299.795339
299.791492
299.789725
299.790701
299.798927
299.808906
299.817775
299.82163
299.831147
472.58155
471.735408
470.867098
469.976129
469.062003
468.124213
467.162246
466.175581
465.163686
464.126019
463.062024
461.971133
460.852758
459.706297
458.531123
457.32659
456.092021
454.826712
453.529924
452.200877
450.838746
449.442649
448.011645
446.544715
445.040756
443.49856
441.916799
440.294004
438.628538
436.918571
435.162044
433.356637
431.49973
429.588354
427.619147
425.58828
423.491385
421.323474
419.078962
416.751776
414.335452
411.821519
409.189543
406.425528
403.513005
400.456187
397.241987
393.858046
390.295491
386.548345
382.615598
378.503484
374.227911
369.816983
365.313291
360.775954
356.281012
351.919558
347.792788
344.003537
340.64471
337.786151
335.462779
333.667484
332.351715
331.434577
330.818295
330.405409
330.11249
329.877069
329.657469
329.427233
329.167247
328.859602
328.485489
328.032327
327.506865
326.945601
326.409393
325.969624
472.583984
471.742737
470.879401
469.993453
469.084365
468.151602
467.194621
466.212868
465.205784
464.172793
463.113314
462.026747
460.912483
459.769896
458.598343
457.397166
456.165687
454.903208
453.609008
452.282341
450.92243
449.528461
448.099583
446.634892
445.133426
443.594155
442.015961
440.397627
438.737812
437.035033
435.287633
433.493751
431.651295
429.757905
427.810917
425.807328
423.743771
421.616178
419.419969
417.149977
414.800382
412.364663
409.835626
407.206003
404.469028
401.595149
398.568319
395.369447
392.011303
388.481145
384.771315
380.881017
376.816425
372.593827
368.242531
363.80738
359.350354
354.950908
350.703622
346.712325
343.080555
339.898847
337.230814
335.101287
333.490478
332.337223
331.551406
331.03169
330.682351
330.424388
330.199642
329.96911
329.707575
329.397325
329.024072
328.578001
328.063396
327.503348
326.931328
326.371933
472.584209
471.743394
470.880456
469.994843
469.085998
468.153355
467.196343
466.214377
465.206866
464.173208
463.112787
462.024978
460.909143
459.764634
458.590791
457.386941
456.152404
454.886485
453.588478
452.257667
450.89332
449.494691
448.061015
446.591507
445.085353
443.541704
441.959669
440.338303
438.67659
436.973425
435.227593
433.437738
431.602327
429.719612
427.787567
425.803833
423.765643
421.66989
419.513119
417.291383
415.000239
412.634772
410.189692
407.658537
405.03379
402.307352
399.471667
396.52015
393.414121
390.136783
386.679181
383.057973
379.26677
375.309631
371.201878
366.971495
362.662534
358.336681
354.073023
349.965342
346.116413
342.627921
339.587462
337.054744
335.050041
333.548978
332.486747
331.771415
331.301736
330.983324
330.739002
330.512045
330.263392
329.966055
329.602051
329.164774
328.67137
328.152867
327.618335
327.07231
472.582052
471.736853
470.869373
469.97903
469.065239
468.127404
467.164923
466.177184
465.163566
464.123436
463.056154
461.961064
460.837507
459.68481
458.502295
457.289277
456.045065
454.768967
453.460287
452.118328
450.742395
449.331792
447.885825
446.403802
444.88503
443.328811
441.734444
440.101215
438.428387
436.715197
434.960835
433.164429
431.325021
429.441536
427.512746
425.537236
423.513353
421.439144
419.312289
417.130006
414.888953
412.585103
410.213617
407.7686
405.244864
402.636803
399.938777
397.14392
394.243889
391.232573
388.095663
384.794803
381.314041
377.666443
373.872656
369.940298
365.894434
361.774111
357.634557
353.549787
349.60964
345.912332
342.554563
339.620269
337.168149
335.220932
333.759754
332.726576
332.034858
331.585466
331.282776
331.0464
330.816323
330.552757
330.235122
329.8613
329.44413
328.994964
328.499055
327.942231
472.577241
471.722292
470.844771
469.944068
469.019572
468.07066
467.096704
466.097068
465.071105
464.018157
462.93756
461.828638
460.690709
459.523085
458.325071
457.095972
455.835094
454.541743
453.215233
451.854885
450.460031
449.030017
447.564208
446.061983
444.522747
442.945924
441.330962
439.677331
437.984522
436.252042
434.479411
432.666146
430.811752
428.915702
426.977417
424.996245
422.971421
420.902029
418.786938
416.624743
414.413686
412.151563
409.835622
407.462456
405.027892
402.526845
399.953173
397.298424
394.557509
391.725447
388.798256
385.768707
382.633669
379.367046
375.938948
372.337649
368.616523
364.791836
360.892528
356.969777
353.089204
349.331343
345.788661
342.554504
339.711236
337.319576
335.408609
333.969461
332.954022
332.281781
331.854303
331.573289
331.35604
331.143717
330.902201
330.616683
330.280965
329.887541
329.42605
328.889431
472.569375
471.698507
470.804623
469.887091
468.945276
467.978534
466.986219
465.967672
464.922229
463.849217
462.747954
461.617751
460.457915
459.267746
458.046545
456.793615
455.508263
454.189802
452.837559
451.450875
450.029111
448.571651
447.077907
445.547324
443.979382
442.373602
440.729549
439.046837
437.325129
435.564142
433.763645
431.923452
430.043425
428.123465
426.163504
424.163495
422.12339
420.043109
417.922513
415.761354
413.559216
411.315451
409.029088
406.69873
404.322439
401.897598
399.420771
396.887578
394.292619
391.629339
388.889971
386.065331
383.152238
380.148937
377.052892
373.867106
370.547157
367.088602
363.490993
359.834091
356.150335
352.492767
348.934529
345.559719
342.456695
339.709318
337.385247
335.523461
334.124202
333.145455
332.509668
332.118391
331.872387
331.689114
331.511074
331.304033
331.048605
330.733806
330.357335
329.917691
472.557981
471.664061
470.746509
469.804671
468.837895
467.845524
466.826895
465.781339
464.708182
463.606741
462.47633
461.316256
460.125823
458.904335
457.651098
456.365421
455.046625
453.69404
452.307015
450.884917
449.427141
447.933111
446.402289
444.834176
443.228323
441.584331
439.901862
438.180645
436.420478
434.621238
432.782887
430.905469
428.98912
427.034074
425.040654
423.009281
420.940458
418.834769
416.692854
414.515392
412.303062
410.056497
407.776224
405.462583
403.11563
400.735012
398.319827
395.868464
393.378432
390.846193
388.267028
385.63501
382.943104
380.183293
377.342728
374.420557
371.417344
368.334843
365.181798
361.918261
358.559576
355.138605
351.741333
348.422143
345.25425
342.320238
339.702657
337.472556
335.676649
334.325461
333.386477
332.787924
332.435551
332.232323
332.095348
331.96411
331.798997
331.575176
331.277466
330.898672
472.542581
471.617518
470.668003
469.693369
468.692948
467.666074
466.612074
465.530275
464.419998
463.280561
462.111279
460.911464
459.680429
458.41749
457.121968
455.793192
454.430506
453.033267
451.600858
450.132683
448.628181
447.086826
445.508135
443.891675
442.23707
440.544005
438.812235
437.041597
435.232013
433.383502
431.496187
429.57031
427.606234
425.604455
423.565614
421.490501
419.380058
417.235391
415.057761
412.848579
410.609395
408.341874
406.047754
403.728797
401.386712
399.023058
396.639114
394.235725
391.813119
389.370696
386.906816
384.418584
381.901729
379.350518
376.757988
374.116358
371.417476
368.646357
365.806616
362.904053
359.945978
356.941387
353.879241
350.795863
347.76846
344.865479
342.157636
339.720923
337.624209
335.917048
334.619103
333.713679
333.146492
332.83296
332.680404
332.605808
332.539358
332.42721
332.227988
331.918556
472.522754
471.557598
470.566943
469.550108
468.506412
467.435177
466.335727
465.207382
464.049465
462.861296
461.642195
460.391488
459.108501
457.79257
456.443039
455.059268
453.640633
452.186534
450.696397
449.169682
447.605886
446.00455
444.365266
442.687683
440.971516
439.216552
437.422661
435.589803
433.71804
431.807548
429.858626
427.871712
425.847394
423.786424
421.689736
419.558456
417.393917
415.197676
412.971518
410.717471
408.4378
406.135005
403.811803
401.471096
399.115916
396.749351
394.374441
391.994031
389.610606
387.226072
384.841528
382.456959
380.071016
377.680713
375.281523
372.867388
370.430834
367.963633
365.457818
362.906668
360.298099
357.642337
354.954076
352.251249
349.543637
346.869659
344.284482
341.861
339.6632
337.752353
336.176629
334.96199
334.10654
333.57793
333.31297
333.248026
333.28175
333.333946
333.320844
333.177484
472.498211
471.483429
470.441855
469.372787
468.275527
467.149386
465.993675
464.80771
463.590811
462.3423
461.061506
459.747764
458.40042
457.018834
455.602379
454.150454
452.662479
451.137908
449.576228
447.976969
446.339709
444.664081
442.949779
441.196565
439.404282
437.572856
435.702314
433.792787
431.844526
429.857914
427.833479
425.771911
423.674073
421.541024
419.374032
417.174598
414.944466
412.685652
410.400451
408.091461
405.761586
403.414042
401.052355
398.68034
396.30207
393.921823
391.544
389.172989
386.813001
384.467862
382.140788
379.834041
377.548629
375.283976
373.037773
370.805897
368.582278
366.35952
364.129203
361.882669
359.612474
357.314505
354.989092
352.636198
350.274978
347.929578
345.629202
343.409997
341.322397
339.41972
337.754474
336.372847
335.30889
334.580082
334.181682
334.112853
334.278777
334.533335
334.720547
334.789815
472.46894
471.394971
470.292663
469.161285
468.000115
466.808443
465.585562
464.330775
463.043394
461.722738
460.368138
458.978941
457.55451
456.094229
454.597508
453.063788
451.492546
449.883302
448.235625
446.549137
444.823526
443.058549
441.254043
439.409932
437.526239
435.603093
433.640744
431.639571
429.600098
427.523003
425.409141
423.259549
421.075472
418.858375
416.609965
414.332208
412.027348
409.697929
407.34681
404.977184
402.592592
400.196935
397.794471
395.389816
392.987895
390.593885
388.213144
385.851093
383.513051
381.204034
378.928521
376.690171
374.491482
372.333457
370.215271
368.134178
366.085284
364.062063
362.056636
360.060413
358.065005
356.063549
354.05212
352.031273
350.007553
347.993536
346.007058
344.075549
342.228571
340.506449
338.94997
337.60136
336.502517
335.694026
335.212621
335.103448
335.326048
335.930639
336.603016
337.091865
472.435344
471.293442
470.121416
468.918498
467.683929
466.416966
465.116875
463.782935
462.41444
461.010698
459.571039
458.094813
456.581398
455.030206
453.440686
451.812332
450.144687
448.437358
446.690016
444.902409
443.07437
441.205827
439.296812
437.347475
435.358091
433.329073
431.260986
429.154558
427.010696
424.830495
422.615258
420.366511
418.086013
415.775778
413.43809
411.07552
408.690941
406.287554
403.86889
401.438816
399.001545
396.561649
394.124037
391.693979
389.277036
386.879026
384.505942
382.163839
379.858662
377.596088
375.381232
373.218415
371.110822
369.060152
367.066302
365.12716
363.238447
361.393869
359.585529
357.804584
356.042224
354.29078
352.544964
350.803062
349.06798
347.347901
345.656646
344.012004
342.436313
340.966245
339.633398
338.471934
337.519411
336.817403
336.416065
336.389223
336.805311
337.654237
338.843043
340.089816
472.398367
471.181692
469.93292
468.651231
467.335819
465.985895
464.600686
463.179437
461.721413
460.225904
458.692228
457.119738
455.507828
453.855935
452.163555
450.430246
448.655636
446.83944
444.981461
443.08161
441.139911
439.156518
437.131723
435.065972
432.95988
430.814238
428.630033
426.408459
424.15093
421.859096
419.534856
417.180368
414.798061
412.390646
409.961127
407.512813
405.04932
402.574598
400.092919
397.608893
395.127455
392.653866
390.19369
387.752794
385.337301
382.953553
380.608025
378.307203
376.057421
373.864646
371.73419
369.670408
367.676385
365.753612
363.901707
362.1182
360.398539
358.736221
357.123203
355.550591
354.009595
352.492657
350.994611
349.513643
348.052449
346.61951
345.230004
343.892248
342.614668
341.459741
340.449175
339.609978
338.97445
338.57705
338.461929
338.665019
339.375423
340.520358
342.101071
344.01251
472.359571
471.06444
469.735133
468.370766
466.970477
465.533422
464.058777
462.545744
460.993553
459.401469
457.768797
456.09489
454.379157
452.621072
450.820186
448.976137
447.088661
445.157607
443.182947
441.164797
439.103424
436.999265
434.852941
432.665274
430.437298
428.170279
425.865726
423.525404
421.151351
418.745883
416.311613
413.851456
411.368639
408.866705
406.34952
403.821269
401.286457
398.749912
396.216772
393.69249
391.182815
388.693776
386.231664
383.802975
381.414361
379.072552
376.784267
374.556083
372.394287
370.304649
368.292214