/*--------------------------------*- C++ -*----------------------------------*\
  =========                 |
  \\      /  F ield         | OpenFOAM: The Open Source CFD Toolbox
   \\    /   O peration     | Website:  https://openfoam.org
    \\  /    A nd           | Version:  8
     \\/     M anipulation  |
\*---------------------------------------------------------------------------*/
FoamFile
{
    version     2.0;
    format      ascii;
    class       volVectorField;
    location    "0.037";
    object      U;
}
// * * * * * * * * * * * * * * * * * * * * * * * * * * * * * * * * * * * * * //

dimensions      [0 1 -1 0 0 0 0];

internalField   nonuniform List<vector> 
42400
(
(-0.0168890553 0.0161444923 -1.06655535e-26)
(-0.0521754168 0.0487601451 3.45171847e-26)
(-0.0891570032 0.0816413409 3.62059214e-26)
(-0.127257374 0.11417327 0)
(-0.166001858 0.14591728 0)
(-0.205083611 0.176570234 6.89240829e-28)
(-0.244330511 0.205950472 0)
(-0.283659289 0.233963795 -7.73510046e-28)
(-0.323039632 0.260569582 0)
(-0.362469254 0.285756368 -8.66228405e-28)
(-0.401957435 0.309526383 -9.15965898e-28)
(-0.441514674 0.331886269 9.68070702e-28)
(-0.481146599 0.352841972 -2.25769586e-26)
(-0.520850886 0.372396543 -2.05227943e-26)
(-0.56061622 0.390549941 1.13949452e-27)
(-0.600422547 0.407300102 0)
(-0.640242034 0.422644694 0)
(-0.680040295 0.436583124 0)
(-0.719777584 0.449118515 0)
(-0.7594098 0.460259473 0)
(-0.798889173 0.470021546 0)
(-0.838164584 0.478428347 3.27999304e-27)
(-0.877181515 0.485512323 1.09943143e-27)
(-0.915881597 0.491315169 1.33334817e-27)
(-0.954201778 0.495887934 -2.96390728e-28)
(-0.992073084 0.499290808 3.99908243e-27)
(-1.02941896 0.501592632 4.19765927e-27)
(-1.0661532 0.502870111 -8.80843199e-27)
(-1.10217738 0.503206765 0)
(-1.13737796 0.502691645 0)
(-1.17162283 0.501418071 5.79179193e-27)
(-1.20475755 0.499482871 8.92444784e-27)
(-1.23660177 0.496986578 -1.11277432e-26)
(-1.26694819 0.4940338 -1.78266449e-26)
(-1.2955649 0.490731663 -1.18600338e-26)
(-1.32218842 0.487179918 0)
(-1.34651495 0.483464747 0)
(-1.36829807 0.479751017 0)
(-1.38740415 0.476351708 0)
(-1.4030169 0.474400795 5.50442221e-26)
(-1.41475621 0.472005922 1.10137799e-25)
(-1.42118995 0.470260308 3.60493446e-26)
(-1.42274916 0.467199069 -3.30135675e-25)
(-1.41632155 0.46718479 3.37294096e-26)
(-1.40227714 0.46832611 2.68628083e-25)
(-1.37743321 0.47051044 2.64919497e-25)
(-1.33959232 0.472896883 -3.66665971e-26)
(-1.28773965 0.475090548 -4.63593384e-26)
(-1.21944793 0.478113829 -4.32030208e-26)
(-1.13279892 0.482104149 -9.85577231e-26)
(-1.02523319 0.487262303 -2.66790961e-33)
(-0.894597623 0.493582394 1.89458963e-25)
(-0.738578602 0.500290555 2.13963231e-25)
(-0.552947485 0.507807834 -1.19950305e-25)
(-0.342403819 0.51643259 0)
(-0.0953588914 0.529809346 0)
(0.181410763 0.547046977 0)
(0.515301846 0.565622884 1.53173774e-25)
(0.89748888 0.583060831 1.62432316e-25)
(1.34368047 0.601811287 0)
(1.85243832 0.623345909 1.46201168e-24)
(2.43349682 0.649075292 1.31819307e-24)
(3.09294904 0.677845409 -1.60917769e-24)
(3.83395167 0.70947238 -1.9840448e-24)
(4.65938968 0.744760142 0)
(5.57375399 0.781609699 0)
(6.59077491 0.82177292 -3.66355765e-24)
(7.68118056 0.8876716 -3.30723714e-24)
(8.87739616 0.93243036 6.7780458e-25)
(10.2370008 0.925456765 0)
(11.312213 1.29741487 0)
(12.6853611 1.35684638 6.08262188e-25)
(15.1960004 0.124842851 4.13141305e-25)
(16.5822173 0.0784863755 0)
(16.5462403 2.6756846 1.41286331e-24)
(18.0429353 2.84861477 2.91799967e-24)
(20.8235562 0.502228418 1.9169727e-23)
(22.2967179 -0.852784318 -1.63342661e-24)
(22.4920754 0.722469785 -2.65627656e-23)
(22.68924 2.01119226 -6.31997576e-23)
(-0.0216341273 0.0191515027 0)
(-0.0660388121 0.0575729662 2.85649734e-26)
(-0.111844702 0.0961534774 3.02853277e-26)
(-0.158415859 0.134280066 0)
(-0.205261761 0.171528863 0)
(-0.25206193 0.207610666 2.81654763e-26)
(-0.298637191 0.242354746 2.6892804e-26)
(-0.344900425 0.275674332 -5.90748318e-28)
(-0.390818169 0.307533142 0)
(-0.436383897 0.33792138 -6.6756658e-28)
(-0.481600465 0.366840571 -7.09154787e-28)
(-0.526469101 0.394294544 -2.05170785e-26)
(-0.570982981 0.420284556 -3.84203482e-26)
(-0.615124004 0.444807318 -1.69965847e-26)
(-0.658861753 0.467855003 1.59982117e-26)
(-0.702153826 0.489416526 1.12236527e-26)
(-0.744946908 0.509479517 0)
(-0.787178117 0.528032564 -2.14828239e-27)
(-0.828776292 0.545067447 0)
(-0.869663029 0.560581158 0)
(-0.90975333 0.574577636 0)
(-0.94895581 0.58706913 6.97698284e-28)
(-0.987172424 0.598077201 1.55869851e-27)
(-1.02429772 0.60763337 4.22416942e-28)
(-1.06021763 0.615779453 0)
(-1.09480781 0.622567648 6.77651985e-27)
(-1.12793155 0.628060425 3.58763809e-27)
(-1.15943723 0.632330295 -7.59699826e-27)
(-1.18915545 0.635459319 -3.35665216e-28)
(-1.21689669 0.637538115 -2.18541983e-27)
(-1.24244716 0.638661346 9.02351636e-27)
(-1.26556109 0.6389215 9.55221856e-27)
(-1.28594786 0.638406961 -3.17511021e-26)
(-1.30330152 0.637243352 -1.74260039e-26)
(-1.31735171 0.635585133 3.69825679e-26)
(-1.32786742 0.633570847 2.09921834e-26)
(-1.33415755 0.63191902 0)
(-1.33576167 0.629528028 -1.36297636e-26)
(-1.33156215 0.627223679 0)
(-1.32242084 0.624079784 -2.99378416e-26)
(-1.30483264 0.622859368 -2.53543142e-25)
(-1.27840124 0.621476933 -1.94796662e-25)
(-1.23971252 0.620612749 -3.37475344e-26)
(-1.18926722 0.618716483 3.73756269e-26)
(-1.12457888 0.617322499 -8.2777809e-26)
(-1.04405406 0.6166038 4.48979442e-26)
(-0.945570985 0.616603049 -4.86371369e-26)
(-0.826975482 0.617240321 -3.40876453e-26)
(-0.686039865 0.618311585 -1.92742198e-25)
(-0.52151914 0.619109032 0)
(-0.328490318 0.620398575 6.47943876e-26)
(-0.107202825 0.625733102 -1.35155773e-25)
(0.136605972 0.637893009 1.57407836e-25)
(0.419715772 0.652150543 -4.66437706e-25)
(0.761014468 0.664261473 -1.6973008e-25)
(1.15530091 0.675660871 3.54094825e-25)
(1.60499953 0.690208266 6.61964465e-25)
(2.11860029 0.708953178 2.03714985e-25)
(2.7007138 0.73131688 2.25036542e-25)
(3.3560569 0.757283861 1.20257616e-24)
(4.08878912 0.787052738 1.65954711e-24)
(4.90365253 0.821191134 -2.89845352e-25)
(5.80522009 0.860286346 3.12407112e-25)
(6.79727786 0.905167007 0)
(7.87558358 0.960788486 -2.80236073e-24)
(9.03652372 1.02033246 -8.32289361e-24)
(10.3098848 1.05929508 -4.2148973e-24)
(11.6239263 1.13860633 0)
(12.942009 1.28189121 2.4888256e-26)
(14.4882764 1.20054223 8.1139262e-25)
(15.8417663 1.30436989 2.79740199e-24)
(16.7819407 2.00335722 6.12497575e-24)
(18.6308153 1.58598105 -1.15498787e-23)
(20.6365485 0.226675505 -9.85172775e-24)
(21.5111895 0.746973684 4.44256896e-26)
(21.952362 2.12754195 1.68924822e-23)
(22.6349891 2.24354355 2.05456464e-23)
(23.0754825 1.32974272 -2.65979036e-24)
(23.1236734 1.0686297 -1.600197e-23)
(23.1035678 1.159203 -1.93024102e-23)
(-0.0257715694 0.0210943882 3.51507732e-27)
(-0.0781588448 0.0632878294 -1.6266429e-28)
(-0.131706802 0.105596333 1.69862607e-28)
(-0.185725412 0.147415611 -1.84932221e-28)
(-0.239675231 0.188320907 0)
(-0.293231177 0.228041488 -2.18241864e-26)
(-0.346201035 0.266418873 -4.13128766e-34)
(-0.398489522 0.303373604 2.00563291e-26)
(-0.450055452 0.338873519 1.8874909e-26)
(-0.500882901 0.372910284 3.50168731e-26)
(-0.550962506 0.4054845 1.53886507e-26)
(-0.6002798 0.436596928 -6.07162822e-28)
(-0.648808441 0.466243859 -6.47474738e-28)
(-0.696506837 0.494415342 1.03298695e-26)
(-0.743317086 0.521095372 8.16132768e-27)
(-0.789165359 0.546263325 -2.35956147e-27)
(-0.833963051 0.569896074 -1.81985803e-27)
(-0.877608195 0.59197039 -2.11392863e-27)
(-0.919986794 0.612465327 1.41815607e-27)
(-0.960973838 0.631364425 -2.04107774e-27)
(-1.00043389 0.648657627 2.18042525e-27)
(-1.03822117 0.664342849 2.33075841e-27)
(-1.07417909 0.67842721 0)
(-1.10813919 0.690927925 -5.34545954e-27)
(-1.13991931 0.701872924 -1.47825614e-26)
(-1.16932128 0.711300983 1.00367386e-29)
(-1.19612775 0.719260802 1.76522746e-26)
(-1.2200977 0.72581037 1.87848657e-26)
(-1.24096409 0.731024307 1.93424703e-26)
(-1.25844043 0.73499268 -2.6439785e-26)
(-1.27223873 0.737807364 8.89056944e-27)
(-1.2820757 0.739560245 6.72667131e-26)
(-1.28746416 0.740607973 2.64631157e-26)
(-1.28807389 0.740491721 0)
(-1.28327269 0.7397431 0)
(-1.2725449 0.738895964 1.24678717e-26)
(-1.25617685 0.73731241 0)
(-1.23081638 0.73623755 -2.78665485e-26)
(-1.19577315 0.734298783 -8.60552451e-26)
(-1.14823273 0.732027917 -6.39397597e-26)
(-1.08866136 0.728796882 -5.23800429e-26)
(-1.01496541 0.725678168 0)
(-0.92561173 0.722809192 0)
(-0.818464818 0.720128549 -8.22117496e-27)
(-0.691288984 0.717552947 -1.01889016e-25)
(-0.542965588 0.714567165 -5.65702833e-26)
(-0.369860123 0.711774117 0)
(-0.174250419 0.710502537 0)
(0.0528560498 0.714424839 2.24003211e-25)
(0.2995072 0.72250357 -7.03082087e-26)
(0.599142119 0.730088301 7.86633562e-26)
(0.945460977 0.736724452 0)
(1.34333137 0.745852725 -4.39871838e-25)
(1.79779822 0.759099332 -2.54768349e-25)
(2.31442054 0.776470168 -6.58740274e-25)
(2.89620609 0.797861907 -1.01924897e-24)
(3.54777651 0.823727884 -1.06052071e-24)
(4.27395372 0.854449102 3.16750591e-32)
(5.07909958 0.891071976 -4.20523409e-32)
(5.96680974 0.93408923 -4.06149495e-24)
(6.93969168 0.983471941 -2.52602971e-24)
(7.99764453 1.0399965 3.0141686e-24)
(9.13756354 1.10341161 3.88969454e-24)
(10.3579219 1.17206037 0)
(11.6390683 1.25079079 5.19205073e-24)
(12.9567978 1.35153036 9.80548534e-24)
(14.3451889 1.41381518 5.91157552e-24)
(15.7834873 1.43732952 0)
(17.0463762 1.63530299 -2.91694028e-26)
(18.3479455 1.77495867 7.29897484e-24)
(19.8112657 1.59573757 5.12367597e-24)
(20.830322 1.81216627 0)
(21.7334102 2.24991855 0)
(22.7169731 1.89842958 1.10096378e-24)
(23.1882511 1.33572566 -1.13378036e-24)
(23.2590253 1.54109502 1.49795846e-24)
(23.2380986 1.78703618 1.10040434e-23)
(23.158656 2.01965295 0)
(23.0859152 1.78978535 -1.97720911e-24)
(23.0988213 1.68153194 1.01868384e-23)
(-0.029380865 0.0221957293 -8.12959535e-29)
(-0.088753377 0.0664976326 -1.26529462e-28)
(-0.149088096 0.110861819 9.75486858e-27)
(-0.209627368 0.154692273 -9.59059203e-27)
(-0.269810874 0.197581072 -8.91220908e-27)
(-0.329257776 0.239258092 0)
(-0.387784102 0.279583166 -1.54495047e-26)
(-0.445279086 0.318488988 -1.36472151e-26)
(-0.501689024 0.355949367 -1.23798128e-26)
(-0.556983766 0.391959032 -1.04775031e-26)
(-0.611136064 0.426519512 -9.2332037e-27)
(-0.664109272 0.459630598 -1.18805134e-34)
(-0.71585028 0.491285931 -5.26126433e-28)
(-0.76628602 0.521471432 -7.23102596e-34)
(-0.815322382 0.550165679 6.05001037e-28)
(-0.862844634 0.577341462 5.00699165e-27)
(-0.908718609 0.602968004 -8.55836118e-27)
(-0.952792154 0.627013445 1.51326875e-27)
(-0.994896462 0.649447319 1.78963872e-26)
(-1.03484703 0.670242902 -1.76447718e-27)
(-1.07244398 0.68937945 3.8007042e-27)
(-1.10747179 0.706844402 -3.11256689e-26)
(-1.13969865 0.722635238 -3.58287325e-26)
(-1.16887491 0.736760386 -2.42387541e-27)
(-1.19472534 0.749235814 0)
(-1.21695333 0.760082616 -2.84814105e-27)
(-1.23525009 0.769328317 0)
(-1.24926958 0.777042208 5.73253849e-26)
(-1.25861589 0.783172167 1.41051532e-25)
(-1.26296251 0.787890223 7.57454495e-26)
(-1.26188247 0.79136866 -9.90572604e-26)
(-1.25491219 0.793985675 -8.68024311e-26)
(-1.24199604 0.795684451 -2.01445618e-26)
(-1.22114304 0.796815516 -1.08735825e-26)
(-1.19130577 0.79686931 -2.31660297e-26)
(-1.15110908 0.795672863 -2.85999802e-26)
(-1.09827207 0.793556501 0)
(-1.0331269 0.790545031 9.17903793e-26)
(-0.953863429 0.787281729 1.04066382e-25)
(-0.858933125 0.783854848 -3.74091284e-26)
(-0.746282716 0.780263673 -4.05469818e-26)
(-0.613721917 0.776496526 0)
(-0.45996822 0.772075741 0)
(-0.281521096 0.76761752 0)
(-0.0780090368 0.766943338 -5.41090822e-26)
(0.142332574 0.771277143 9.28139238e-27)
(0.405172245 0.776284994 -6.96044521e-26)
(0.712116651 0.779673609 0)
(1.06584974 0.783743379 0)
(1.46937296 0.791208231 2.86752585e-25)
(1.92849232 0.80301748 3.35603087e-25)
(2.44663243 0.819208462 2.53702415e-25)
(3.02800529 0.84029838 3.10715336e-25)
(3.67745946 0.866941395 2.19995152e-25)
(4.39971822 0.900005899 -2.67356765e-25)
(5.198282 0.940557298 -8.64036779e-25)
(6.07547629 0.989261557 -1.43458309e-24)
(7.0318393 1.04649332 -2.04418038e-24)
(8.06641021 1.11198149 0)
(9.17558789 1.18532567 -3.22834984e-25)
(10.3578718 1.2645099 -3.32212604e-24)
(11.6045716 1.34874791 -7.48184754e-24)
(12.9036887 1.43832793 3.33823406e-25)
(14.2411674 1.53325472 3.46867577e-25)
(15.5901827 1.62452017 -6.07828757e-24)
(16.9124468 1.75131673 5.35380926e-24)
(18.1609898 1.87880463 6.04848248e-24)
(19.4610392 1.91568946 -7.24336037e-25)
(20.5947966 1.94058712 -3.22160564e-24)
(21.6042037 2.11931863 -9.84094954e-24)
(22.4453298 2.13870502 8.37931098e-26)
(23.1042415 2.05017496 -1.7288233e-23)
(23.2400663 2.18335583 -4.642722e-24)
(23.2725304 2.2420584 0)
(23.2448359 2.25556608 -6.81081254e-24)
(23.2112368 2.05894297 -3.50017472e-23)
(23.2245211 1.95867115 1.6325411e-24)
(23.2222659 1.92890797 7.64594949e-24)
(23.1834757 2.00208632 1.07632485e-23)
(23.140083 1.97662035 1.8610215e-23)
(-0.0327438719 0.0227794236 2.5628542e-27)
(-0.0986031318 0.0681048801 0)
(-0.165215904 0.113372112 0)
(-0.231755675 0.15799707 2.39956703e-30)
(-0.297620057 0.201591982 0)
(-0.362427304 0.24390796 0)
(-0.425923646 0.28480313 0)
(-0.488004659 0.324223392 5.24101808e-28)
(-0.548611153 0.362159554 0)
(-0.607691267 0.398615069 -3.02672561e-28)
(-0.665193695 0.433595479 -6.5813944e-28)
(-0.721052372 0.467103208 -4.39689349e-34)
(-0.775179067 0.499133526 -7.99525228e-27)
(-0.827459888 0.529673081 0)
(-0.877754189 0.558700417 4.50289479e-28)
(-0.92589497 0.586187682 -9.74609992e-28)
(-0.971690015 0.612103017 0)
(-1.01492324 0.636413392 3.38216645e-26)
(-1.05535603 0.659087592 -1.25851301e-27)
(-1.09272802 0.680098412 -9.57905714e-26)
(-1.12675018 0.699420817 -5.2937053e-26)
(-1.15710404 0.717032289 -1.67490167e-27)
(-1.18344969 0.732914588 0)
(-1.20545548 0.747012187 -6.97321358e-26)
(-1.22269009 0.759410648 -7.83476614e-26)
(-1.23484615 0.770166375 -9.3594776e-26)
(-1.24154433 0.779435435 -1.0374829e-25)
(-1.24239022 0.787341694 1.1051638e-25)
(-1.23686265 0.794063501 1.16354908e-25)
(-1.22362822 0.799339473 0)
(-1.20180581 0.803121921 -1.19151694e-25)
(-1.17027831 0.805364606 -1.30384005e-25)
(-1.12747089 0.806176406 -9.61696574e-27)
(-1.07301054 0.80589129 -1.83627928e-25)
(-1.0056845 0.804847674 -1.79409314e-25)
(-0.92399657 0.803173277 2.6279595e-26)
(-0.826339154 0.800957819 -1.42133722e-26)
(-0.710712333 0.798292611 -1.87676514e-25)
(-0.574981709 0.795286738 -1.64369497e-25)
(-0.417673612 0.791607873 1.77247223e-25)
(-0.235499861 0.787755477 6.4580005e-25)
(-0.0270192643 0.787198982 3.06576794e-25)
(0.199152036 0.790361094 0)
(0.471082147 0.79345425 5.2998532e-26)
(0.783747286 0.795882313 -2.48240489e-25)
(1.14198051 0.800652838 5.93465862e-26)
(1.54943351 0.809272414 -1.29141021e-32)
(2.01041651 0.822024106 -3.71180158e-25)
(2.52889554 0.839239772 0)
(3.10936075 0.861778519 8.46833117e-26)
(3.75655573 0.890503325 -2.46507373e-25)
(4.47438583 0.926339869 -4.91684047e-25)
(5.26582324 0.970242788 4.33740731e-25)
(6.1327084 1.02292099 -1.89745828e-25)
(7.07536603 1.08493376 -7.89692039e-25)
(8.09243136 1.15682634 -9.66344179e-25)
(9.18046255 1.23893676 -3.83449604e-24)
(10.33235 1.33205116 -3.00117181e-24)
(11.5404386 1.43546766 -3.05705294e-24)
(12.7902034 1.54473918 -3.87086701e-24)
(14.0787442 1.65579454 0)
(15.3803161 1.76395776 3.10823181e-25)
(16.6849659 1.87257315 -4.85049175e-24)
(17.9453685 1.98581563 -6.09986126e-24)
(19.1617235 2.0831876 -3.19623499e-26)
(20.306349 2.19177227 0)
(21.2516678 2.30690119 7.38935036e-24)
(22.1717851 2.38699955 1.08257955e-23)
(22.877083 2.36319429 9.68629787e-25)
(23.2061942 2.38539873 -8.49055259e-25)
(23.2671978 2.42405816 -7.96330639e-27)
(23.2738785 2.44250964 -7.8415207e-25)
(23.2303973 2.44117673 -1.03141878e-23)
(23.2256744 2.40543032 -1.08329404e-23)
(23.2276554 2.36730596 -7.49427145e-25)
(23.2087327 2.33351524 0)
(23.2092241 2.28730809 -6.5590118e-24)
(23.2165497 2.19191485 -1.09307177e-23)
(23.2400298 2.11642943 0)
(23.2386025 2.05723426 -8.96812413e-24)
(-0.0361733043 0.0231120639 -5.23694328e-27)
(-0.108557674 0.068871478 -8.386804e-27)
(-0.181396318 0.114356657 -8.14200466e-27)
(-0.253794449 0.159000994 3.35952853e-29)
(-0.325107834 0.202441078 6.010643e-27)
(-0.394924555 0.244454871 8.21718521e-29)
(-0.463004723 0.284922772 -3.78287195e-27)
(-0.529174933 0.323796171 -1.84923419e-27)
(-0.593371791 0.361073241 -1.06237124e-28)
(-0.655521295 0.396772331 -2.36270678e-28)
(-0.715538824 0.430908987 -4.70102766e-27)
(-0.773319837 0.463492925 -2.15160351e-26)
(-0.828730616 0.494526351 -2.01127115e-26)
(-0.881604462 0.524002858 -2.66354471e-26)
(-0.931740608 0.551908108 -2.09987483e-28)
(-0.978904784 0.578221902 4.04254624e-26)
(-1.02282993 0.602921126 0)
(-1.06321052 0.625980587 0)
(-1.09970351 0.64737145 6.47475479e-26)
(-1.13197177 0.667015858 1.39289571e-25)
(-1.1595718 0.684995622 7.85815645e-26)
(-1.18217573 0.701297593 9.13757662e-26)
(-1.19939007 0.716001049 -3.75068759e-34)
(-1.21073217 0.729236284 -1.2527043e-25)
(-1.21540119 0.740749089 1.41980376e-25)
(-1.21264766 0.750598099 3.00282661e-25)
(-1.20165206 0.758794872 1.62600375e-25)
(-1.18144023 0.76531339 2.24555616e-27)
(-1.15088423 0.770236838 -2.53890469e-27)
(-1.10955209 0.773970926 5.72475508e-27)
(-1.05619429 0.776615882 0)
(-0.989466505 0.778249021 2.20517691e-25)
(-0.907908377 0.778967531 8.14498694e-27)
(-0.809870087 0.778903492 -2.52634579e-25)
(-0.693331086 0.77821863 0)
(-0.556201927 0.777085119 -2.36975526e-25)
(-0.396854853 0.77529352 -2.91719697e-25)
(-0.212245315 0.773291066 0)
(-0.000360614325 0.774159964 0)
(0.230652967 0.778165595 -2.62733947e-25)
(0.5072947 0.782248943 -2.27262178e-25)
(0.824030484 0.786068226 -7.80549506e-26)
(1.18500904 0.792616544 0)
(1.59428054 0.803104331 4.40416929e-25)
(2.05555127 0.817880799 8.42703876e-25)
(2.57301491 0.837636562 4.72788185e-25)
(3.15116249 0.863130185 -6.1229597e-26)
(3.79417201 0.895180644 -1.17333537e-27)
(4.50548617 0.934675537 0)
(5.28769078 0.982496967 -5.06324732e-25)
(6.14235448 1.03939952 1.76226647e-25)
(7.06970229 1.10610865 7.92975202e-25)
(8.06826402 1.18320591 2.14358031e-25)
(9.13470819 1.27108651 -8.60710253e-25)
(10.2634448 1.369589 -2.8685668e-24)
(11.4463083 1.47899042 3.31151708e-32)
(12.6726914 1.5988015 1.57814483e-24)
(13.9248309 1.72753774 0)
(15.1870538 1.86635277 0)
(16.4288601 2.00608515 2.84072877e-25)
(17.6580413 2.14197026 2.88948385e-25)
(18.8266044 2.25677016 0)
(19.9622815 2.36497831 5.0405571e-24)
(20.9655071 2.45574465 4.48273722e-24)
(21.9331241 2.53036118 -8.030409e-24)
(22.639719 2.57465983 -2.91208473e-23)
(23.1260389 2.62288267 -1.23174561e-23)
(23.234112 2.70088622 -5.53046166e-24)
(23.2621608 2.72157385 -1.0628461e-24)
(23.2572996 2.71162629 -7.18783934e-25)
(23.2447755 2.68078163 7.30936952e-24)
(23.2283877 2.6341029 8.18195714e-24)
(23.2178949 2.5897161 -9.72020785e-24)
(23.2169916 2.56047394 -7.58703064e-24)
(23.2204224 2.52734117 -8.46999624e-24)
(23.2109014 2.5036013 -8.41811668e-24)
(23.2086383 2.47708382 -1.15389215e-23)
(23.2131302 2.43790779 8.88795916e-32)
(23.2341764 2.45040127 1.2460412e-23)
(23.2642181 2.2519915 1.82294843e-23)
(-0.0398786032 0.0233244715 2.73639058e-27)
(-0.11916858 0.0691897737 6.03910509e-29)
(-0.198450747 0.114477586 8.03812992e-27)
(-0.276762615 0.158646374 -1.02642091e-34)
(-0.35341699 0.201363019 -4.96302353e-27)
(-0.427972705 0.242432677 -3.39482996e-27)
(-0.500162066 0.281763661 -2.88130738e-27)
(-0.569823497 0.319322503 5.44929249e-28)
(-0.636793058 0.355119173 3.48130227e-27)
(-0.70100422 0.389178723 6.58330983e-27)
(-0.762321144 0.421536942 9.80799068e-27)
(-0.820585513 0.452215141 1.31855048e-26)
(-0.875601424 0.481226691 1.72559528e-26)
(-0.927130327 0.508577666 2.17392933e-26)
(-0.974888081 0.534269602 1.2201163e-28)
(-1.01854496 0.558299739 1.07337851e-28)
(-1.05775414 0.580616191 6.78216242e-26)
(-1.092094 0.601291542 7.9426595e-26)
(-1.12117758 0.620358574 -5.64539849e-29)
(-1.14442324 0.637766431 -5.1783667e-29)
(-1.16126395 0.653454889 1.33181973e-25)
(-1.17099764 0.667469906 1.46880116e-25)
(-1.17286056 0.679785945 0)
(-1.16602371 0.690429025 -3.56955114e-28)
(-1.1498764 0.699651181 0)
(-1.12342363 0.707474789 0)
(-1.08558076 0.713964007 -8.16820289e-28)
(-1.03514704 0.719202444 -2.36461784e-25)
(-0.970804523 0.723289172 -2.57325429e-25)
(-0.891080635 0.72637175 2.77801626e-25)
(-0.794297998 0.728637213 2.93681249e-25)
(-0.678506594 0.730281977 -4.49511167e-27)
(-0.54165417 0.731524735 5.50774728e-27)
(-0.382008686 0.732257905 0)
(-0.196735251 0.732875 -6.39696482e-27)
(0.0166222339 0.735985149 0)
(0.250678092 0.74173909 0)
(0.529628425 0.747866608 -9.76273954e-27)
(0.848030217 0.75424285 0)
(1.20938761 0.763757208 0)
(1.61814399 0.777412226 4.67160513e-25)
(2.07773318 0.795484662 4.41676188e-25)
(2.59214519 0.818709443 0)
(3.16555602 0.847876762 0)
(3.80172363 0.883849472 0)
(4.5038174 0.927561723 -4.60354881e-26)
(5.2742512 0.979952372 -5.2665193e-26)
(6.114411 1.041866 7.69084301e-25)
(7.02431656 1.11405075 7.99611377e-25)
(8.00234888 1.19707755 9.11465041e-25)
(9.04499431 1.29121774 1.05389235e-24)
(10.1468302 1.39640001 1.31189086e-24)
(11.3001742 1.51194991 1.53910126e-24)
(12.4953655 1.63736342 0)
(13.7198656 1.77100338 0)
(14.9578103 1.91007556 -1.68679478e-24)
(16.1923962 2.05367289 -3.8394443e-24)
(17.3946512 2.19943104 -2.17099561e-24)
(18.5441801 2.35085119 -2.19005851e-24)
(19.6001861 2.49527786 -1.67671232e-24)
(20.5905318 2.6284389 4.94114782e-24)
(21.4599546 2.71916064 1.06578899e-23)
(22.2935588 2.77201052 4.2083368e-25)
(22.9048829 2.79842017 -1.27052873e-23)
(23.1567335 2.83631462 3.62228989e-25)
(23.2238221 2.87009873 -6.45470917e-25)
(23.2451156 2.87420239 3.19075233e-24)
(23.2440475 2.87713892 -4.69366577e-32)
(23.2175514 2.87477878 -8.87619557e-24)
(23.1939642 2.87104043 -7.58586229e-25)
(23.1732811 2.83228583 8.40913118e-24)
(23.1708621 2.79845315 8.69058794e-24)
(23.1852873 2.75124649 0)
(23.2157358 2.7002158 8.38859243e-25)
(23.2303568 2.69095764 0)
(23.2389348 2.66432491 9.30681845e-24)
(23.2652653 2.63646077 1.74315282e-23)
(23.3360567 2.56876061 1.01147155e-23)
(23.3550651 2.67494042 8.09703721e-24)
(23.2969585 2.68890257 1.93345313e-23)
(-0.0439160887 0.0234205727 2.75583183e-27)
(-0.130529965 0.0690947416 8.51678705e-27)
(-0.216432951 0.113829616 -1.97182591e-28)
(-0.300593885 0.157117442 -5.50288266e-27)
(-0.382280403 0.198661318 -3.32376123e-27)
(-0.46101821 0.238297662 -1.16636291e-27)
(-0.536509271 0.275961826 -4.77449353e-28)
(-0.608555239 0.311649197 -5.01589392e-27)
(-0.676990096 0.345380868 -8.31042923e-27)
(-0.741618169 0.377200647 -1.23788946e-26)
(-0.802286811 0.407145266 0)
(-0.858760432 0.435264672 -1.14602403e-27)
(-0.910760446 0.461591213 5.96587095e-28)
(-0.957953997 0.486151868 0)
(-0.999953531 0.508965961 0)
(-1.03631294 0.530050574 0)
(-1.06650086 0.549469607 0)
(-1.08993546 0.567155981 -6.43337336e-28)
(-1.10591491 0.58311319 0)
(-1.11380243 0.597512681 -7.56266827e-26)
(-1.11281306 0.610354196 -8.43674987e-26)
(-1.10205128 0.621680453 1.83182848e-25)
(-1.080511 0.631570577 2.03045569e-25)
(-1.04712128 0.640093657 -2.21888805e-25)
(-1.00068295 0.647367016 -2.44893276e-25)
(-0.939865835 0.653538264 -2.64929243e-25)
(-0.863198227 0.658771336 -2.85771903e-25)
(-0.769013014 0.663239306 -3.10690718e-25)
(-0.655426236 0.667156938 -6.58387929e-25)
(-0.520422394 0.670776319 -3.36224192e-25)
(-0.362185654 0.674071297 0)
(-0.178059206 0.677391044 -3.38908793e-28)
(0.0347606561 0.682918026 1.34849709e-28)
(0.269535307 0.690801214 0)
(0.548088931 0.699484556 -2.02459898e-27)
(0.865337025 0.708962566 0)
(1.22451281 0.721842413 0)
(1.63001505 0.738972017 5.199071e-25)
(2.08509513 0.760628484 4.74339418e-27)
(2.59352671 0.78758984 -5.61030886e-25)
(3.15920939 0.82069767 5.79891016e-25)
(3.78562449 0.860854391 6.17799868e-25)
(4.47572563 0.909024671 -9.94260951e-27)
(5.23176197 0.966156196 0)
(6.05500397 1.03311631 7.81791933e-25)
(6.94543664 1.11068029 7.88647027e-25)
(7.90147894 1.19945995 0)
(8.91972322 1.29982689 0)
(9.9947171 1.41180938 -1.10498655e-24)
(11.1188596 1.53501997 -1.26211272e-24)
(12.2822583 1.66836564 1.5321774e-24)
(13.4734836 1.81030879 1.78152687e-24)
(14.6787143 1.95815699 -1.76899342e-24)
(15.8817654 2.109146 2.56621006e-32)
(17.0628643 2.26076274 2.22584031e-24)
(18.2013582 2.40883522 1.20158129e-26)
(19.2789531 2.55030539 0)
(20.2621822 2.68235049 2.31196457e-25)
(21.1346805 2.80669143 -2.58208646e-24)
(21.8708773 2.91806305 3.52838917e-25)
(22.4899834 2.9909846 4.73891682e-24)
(22.9918857 3.04850559 0)
(23.119689 3.08123195 3.41738286e-25)
(23.1508123 3.08042614 0)
(23.1803802 3.06122444 2.41203513e-25)
(23.203257 3.00546855 -3.2999292e-25)
(23.2099205 2.98213633 -5.36988094e-25)
(23.2108831 2.95510311 -8.27853838e-24)
(23.1820219 2.92922856 -9.98945313e-24)
(23.1540745 2.92551794 -7.89177321e-25)
(23.1373884 2.93025748 -7.50580895e-24)
(23.1331315 2.8940538 -8.65910889e-24)
(23.1345205 2.89523875 -6.50982274e-24)
(23.222306 2.78012423 -9.34727086e-24)
(23.2916097 2.74103125 -9.48273331e-24)
(23.2972904 2.7634621 -1.11807338e-23)
(23.3137527 2.75050816 9.38265227e-24)
(23.4827179 2.65592084 1.18018347e-23)
(23.6046284 2.6128187 -2.04500606e-24)
(23.5671449 2.75532923 1.46626153e-24)
(-0.0480748681 0.0232645748 2.45111757e-27)
(-0.141958936 0.0682246821 -7.69880971e-27)
(-0.234130914 0.111873969 -3.81798168e-28)
(-0.323491905 0.153749141 -3.90629024e-34)
(-0.409261954 0.193593863 -3.44870786e-28)
(-0.490926199 0.231278637 -4.3989564e-28)
(-0.568145474 0.266767009 6.28480226e-27)
(-0.640674176 0.300082135 7.28977301e-34)
(-0.70830279 0.331272953 -2.76884553e-26)
(-0.770784609 0.360413556 -1.925213e-26)
(-0.827839755 0.387548534 1.09922113e-27)
(-0.87913012 0.412743052 -3.15319222e-26)
(-0.92425527 0.436053675 -3.55142404e-26)
(-0.962745057 0.457532148 -4.34865663e-26)
(-0.994054369 0.477230336 -5.08365413e-26)
(-1.01756133 0.495200373 5.87323376e-26)
(-1.03256343 0.511501349 6.71647696e-26)
(-1.03826739 0.526195391 -1.35595261e-27)
(-1.03378022 0.539357242 0)
(-1.01814566 0.551049065 -9.37815139e-26)
(-0.990231875 0.561404961 -1.05856073e-25)
(-0.948869612 0.570533935 -3.07272568e-27)
(-0.892727532 0.578595094 1.28368205e-25)
(-0.82033886 0.585764289 1.43576819e-25)
(-0.730052569 0.592252088 -6.23665944e-27)
(-0.620061124 0.598329363 0)
(-0.488591567 0.604138249 3.09804254e-27)
(-0.333717948 0.609704786 2.28330288e-28)
(-0.152786514 0.615486409 -4.54394387e-25)
(0.0571995433 0.623287314 -4.68684423e-25)
(0.290304635 0.633259807 4.10126675e-25)
(0.565757635 0.644461318 4.27343542e-25)
(0.878968986 0.656951747 -1.14672061e-26)
(1.23336841 0.672948435 -5.5212329e-25)
(1.63290999 0.69323874 -3.45162449e-33)
(2.08071378 0.718181625 5.84413666e-25)
(2.58033832 0.748594659 -6.17990458e-25)
(3.13541494 0.785348986 -6.4355931e-25)
(3.74919017 0.829353119 -5.24863026e-27)
(4.42444425 0.881562206 2.03548998e-27)
(5.16332003 0.942911348 -1.44336627e-28)
(5.96706579 1.01426901 -8.06230359e-25)
(6.83576265 1.09641842 -1.738482e-24)
(7.76805475 1.18999403 -9.42215173e-25)
(8.76088568 1.29541386 -1.01593632e-24)
(9.80925812 1.41280453 -1.14472592e-24)
(10.9060453 1.54192926 0)
(12.041859 1.68210479 1.47520078e-24)
(13.2050646 1.83209974 1.68204353e-24)
(14.381923 1.99023094 1.85612166e-24)
(15.5564837 2.15392342 3.89090236e-24)
(16.7115653 2.31962757 4.09573864e-24)
(17.8283318 2.48208292 4.43571776e-24)
(18.8905867 2.63793002 4.78442349e-24)
(19.8736984 2.7831526 2.56846968e-24)
(20.7650236 2.91605261 -2.80600947e-25)
(21.5469476 3.032705 0)
(22.2009845 3.12633837 -2.74948191e-24)
(22.7242742 3.20065165 -4.01018254e-24)
(23.0670411 3.24424067 0)
(23.1615438 3.30209649 -4.08608887e-24)
(23.1346864 3.30545992 -1.40091192e-24)
(23.1226506 3.29155908 0)
(23.1135625 3.26511834 -2.66711335e-25)
(23.1194712 3.23220945 0)
(23.1337319 3.15551551 -9.39744827e-24)
(23.1335072 3.11804095 -8.7378354e-25)
(23.1299794 3.06866122 7.29737808e-24)
(23.1230182 3.0328685 -4.63714386e-25)
(23.1227977 2.98411421 -5.60968637e-25)
(23.1274769 2.95489599 -8.28886442e-24)
(23.1265933 2.92593024 -9.69764913e-24)
(23.1049781 2.94222347 -5.22187909e-25)
(23.1947683 2.88538016 -4.69584713e-25)
(23.3207443 2.76149557 -4.87415782e-26)
(23.3615426 2.78477977 -6.5698728e-25)
(23.3744569 2.828588 1.11654424e-23)
(23.4695981 2.78848757 1.95570479e-23)
(23.6797027 2.63448283 1.0434861e-23)
(23.7279338 2.63821692 -7.61007435e-25)
(-0.0519324552 0.0226673583 0)
(-0.15217901 0.0660633723 -5.80194274e-28)
(-0.249392295 0.107817784 6.08801948e-28)
(-0.342407346 0.147524842 -1.33741611e-27)
(-0.430393226 0.18497425 6.72416647e-28)
(-0.51278398 0.220075363 7.05744857e-28)
(-0.589178542 0.252832355 -1.31892308e-26)
(-0.659259093 0.283283062 0)
(-0.722706256 0.311510138 1.61114488e-27)
(-0.779177583 0.337582283 -2.9121492e-26)
(-0.828257686 0.361612481 -3.35160257e-26)
(-0.869481837 0.383676379 4.22912855e-26)
(-0.902294053 0.403864279 1.93659913e-27)
(-0.92604759 0.422265809 -1.14082747e-25)
(-0.940001555 0.438972901 -1.33851672e-25)
(-0.943310514 0.454091453 -7.40236861e-26)
(-0.935037636 0.467704198 -2.26176999e-27)
(-0.914100519 0.479965408 -9.63757701e-26)
(-0.879338638 0.490989834 -1.05134606e-25)
(-0.829442778 0.500943884 2.44015094e-27)
(-0.762968559 0.510010487 -2.60015657e-27)
(-0.678300759 0.518400495 -1.05412044e-26)
(-0.57368566 0.526341453 -1.52819709e-25)
(-0.447342452 0.533934322 -3.32523843e-25)
(-0.297114021 0.541419683 -1.95240749e-25)
(-0.120303874 0.549916508 -5.91764544e-27)
(0.0805556269 0.560516218 -2.00076511e-25)
(0.310748581 0.57275457 5.81078571e-27)
(0.580959941 0.585959888 -6.00790794e-27)
(0.887928316 0.600957748 -2.57312922e-25)
(1.23512281 0.619614375 0)
(1.62611675 0.642646256 -5.80837448e-25)
(2.06394553 0.670468452 -1.25646274e-26)
(2.55199478 0.703895248 6.5073857e-25)
(3.09366495 0.743785927 6.86637909e-25)
(3.692018 0.791038399 7.24917481e-25)
(4.34970178 0.846589696 -1.20675206e-26)
(5.06878898 0.911361395 0)
(5.85054662 0.986216877 -2.2115048e-26)
(6.69519654 1.07193688 -9.08276128e-25)