/*--------------------------------*- C++ -*----------------------------------*\
  =========                 |
  \\      /  F ield         | OpenFOAM: The Open Source CFD Toolbox
   \\    /   O peration     | Website:  https://openfoam.org
    \\  /    A nd           | Version:  8
     \\/     M anipulation  |
\*---------------------------------------------------------------------------*/
FoamFile
{
    version     2.0;
    format      ascii;
    class       volScalarField;
    location    "0.064";
    object      p;
}
// * * * * * * * * * * * * * * * * * * * * * * * * * * * * * * * * * * * * * //

dimensions      [1 -1 -2 0 0 0 0];

internalField   nonuniform List<scalar> 
42400
(
101605.548
101605.534
101605.519
101605.506
101605.494
101605.483
101605.473
101605.463
101605.455
101605.449
101605.443
101605.438
101605.435
101605.433
101605.432
101605.432
101605.434
101605.436
101605.44
101605.445
101605.451
101605.458
101605.466
101605.475
101605.485
101605.496
101605.507
101605.519
101605.531
101605.544
101605.558
101605.572
101605.586
101605.6
101605.615
101605.629
101605.643
101605.657
101605.681
101605.716
101605.758
101605.804
101605.826
101605.819
101605.808
101605.807
101605.826
101605.859
101605.894
101605.931
101605.968
101606.004
101606.035
101606.096
101606.19
101606.301
101606.381
101606.415
101606.478
101606.591
101606.737
101606.883
101607.034
101607.205
101607.401
101607.628
101607.852
101608.129
101608.582
101608.551
101608.477
101610.028
101610.576
101608.963
101607.945
101610.853
101614.72
101613.404
101614.876
101615.151
101604.951
101604.94
101604.928
101604.917
101604.907
101604.898
101604.89
101604.884
101604.878
101604.873
101604.869
101604.866
101604.865
101604.864
101604.865
101604.867
101604.87
101604.874
101604.879
101604.886
101604.893
101604.902
101604.911
101604.921
101604.933
101604.945
101604.958
101604.971
101604.985
101605
101605.015
101605.031
101605.047
101605.063
101605.079
101605.102
101605.136
101605.174
101605.204
101605.213
101605.208
101605.202
101605.212
101605.237
101605.264
101605.291
101605.32
101605.346
101605.365
101605.399
101605.465
101605.554
101605.612
101605.62
101605.648
101605.714
101605.809
101605.9
101605.99
101606.091
101606.208
101606.348
101606.516
101606.705
101606.915
101607.187
101607.469
101607.742
101608.34
101608.736
101608.3
101609.017
101610.06
101610.158
101611.664
101614.416
101616.906
101620.018
101620.704
101622.117
101604.212
101604.203
101604.194
101604.186
101604.179
101604.172
101604.167
101604.162
101604.158
101604.156
101604.154
101604.154
101604.155
101604.157
101604.16
101604.164
101604.17
101604.177
101604.185
101604.194
101604.204
101604.216
101604.229
101604.242
101604.257
101604.273
101604.29
101604.308
101604.327
101604.346
101604.366
101604.389
101604.417
101604.449
101604.484
101604.512
101604.527
101604.535
101604.543
101604.563
101604.593
101604.624
101604.655
101604.687
101604.715
101604.735
101604.776
101604.859
101604.945
101604.955
101604.943
101604.983
101605.053
101605.121
101605.185
101605.251
101605.324
101605.411
101605.514
101605.631
101605.759
101605.904
101606.095
101606.344
101606.63
101606.998
101607.462
101607.95
101608.713
101609.81
101610.451
101611.052
101612.878
101615.688
101617.163
101616.746
101617.661
101620.593
101621.599
101622.997
101603.355
101603.348
101603.34
101603.334
101603.329
101603.324
101603.32
101603.318
101603.317
101603.316
101603.317
101603.32
101603.323
101603.328
101603.334
101603.342
101603.351
101603.361
101603.373
101603.387
101603.402
101603.419
101603.437
101603.457
101603.478
101603.5
101603.523
101603.548
101603.576
101603.607
101603.641
101603.674
101603.702
101603.727
101603.751
101603.778
101603.812
101603.852
101603.891
101603.93
101603.971
101604.009
101604.04
101604.088
101604.169
101604.222
101604.235
101604.266
101604.323
101604.389
101604.443
101604.494
101604.55
101604.613
101604.685
101604.764
101604.853
101604.953
101605.064
101605.192
101605.351
101605.531
101605.773
101606.086
101606.487
101606.963
101607.545
101608.183
101608.548
101609.581
101611.819
101614.017
101615.167
101615.866
101616.625
101616.78
101617.903
101619.386
101620.628
101622.309
101602.381
101602.374
101602.368
101602.363
101602.359
101602.355
101602.353
101602.352
101602.353
101602.355
101602.358
101602.363
101602.369
101602.377
101602.387
101602.399
101602.412
101602.427
101602.445
101602.464
101602.485
101602.508
101602.532
101602.557
101602.585
101602.615
101602.649
101602.684
101602.719
101602.756
101602.793
101602.831
101602.874
101602.921
101602.969
101603.018
101603.067
101603.117
101603.166
101603.208
101603.265
101603.35
101603.409
101603.433
101603.478
101603.542
101603.603
101603.659
101603.716
101603.777
101603.839
101603.903
101603.972
101604.046
101604.13
101604.228
101604.34
101604.472
101604.637
101604.819
101605.035
101605.255
101605.565
101605.924
101606.433
101606.881
101607.397
101608.847
101611.335
101612.732
101613.013
101613.344
101614.024
101615.258
101616.777
101618.231
101619.159
101620.038
101621.89
101623.288
101601.276
101601.27
101601.263
101601.259
101601.255
101601.253
101601.252
101601.253
101601.255
101601.259
101601.264
101601.272
101601.281
101601.293
101601.307
101601.323
101601.341
101601.362
101601.383
101601.407
101601.432
101601.461
101601.495
101601.532
101601.571
101601.613
101601.656
101601.702
101601.751
101601.801
101601.854
101601.908
101601.963
101602.021
101602.08
101602.139
101602.193
101602.259
101602.35
101602.416
101602.454
101602.513
101602.587
101602.656
101602.721
101602.787
101602.853
101602.919
101602.986
101603.055
101603.129
101603.209
101603.299
101603.403
101603.522
101603.662
101603.833
101604.035
101604.287
101604.57
101604.901
101605.209
101605.586
101605.961
101606.615
101608.679
101610.583
101611.413
101611.678
101612.153
101612.946
101613.913
101615.094
101616.48
101617.854
101619.208
101620.427
101621.906
101623.039
101623.886
101600.008
101600.001
101599.995
101599.991
101599.988
101599.986
101599.987
101599.989
101599.993
101599.999
101600.007
101600.018
101600.031
101600.047
101600.065
101600.085
101600.107
101600.133
101600.164
101600.198
101600.236
101600.276
101600.318
101600.363
101600.411
101600.462
101600.515
101600.571
101600.63
101600.692
101600.757
101600.824
101600.887
101600.95
101601.024
101601.12
101601.196
101601.248
101601.32
101601.406
101601.485
101601.561
101601.637
101601.713
101601.788
101601.865
101601.943
101602.025
101602.111
101602.205
101602.308
101602.425
101602.559
101602.715
101602.901
101603.121
101603.386
101603.709
101604.129
101604.631
101605.241
101605.823
101606.308
101607.898
101609.652
101609.864
101609.949
101610.533
101611.347
101612.71
101614.204
101615.258
101616.283
101617.679
101619.296
101620.824
101621.848
101622.516
101623.046
101623.897
101598.543
101598.537
101598.531
101598.527
101598.525
101598.525
101598.527
101598.531
101598.538
101598.547
101598.557
101598.571
101598.587
101598.608
101598.631
101598.658
101598.689
101598.722
101598.759
101598.799
101598.842
101598.889
101598.94
101598.994
101599.051
101599.112
101599.176
101599.244
101599.314
101599.381
101599.456
101599.549
101599.645
101599.714
101599.78
101599.864
101599.957
101600.046
101600.133
101600.221
101600.309
101600.398
101600.488
101600.579
101600.674
101600.771
101600.874
101600.985
101601.107
101601.245
101601.4
101601.577
101601.784
101602.02
101602.297
101602.628
101603.019
101603.462
101603.969
101604.442
101605.366
101606.882
101608.222
101608.628
101608.713
101609.482
101610.53
101611.426
101612.597
101613.57
101614.504
101615.897
101617.254
101618.741
101620.024
101620.952
101621.969
101623.04
101624.534
101625.74
101596.825
101596.82
101596.815
101596.813
101596.812
101596.815
101596.819
101596.827
101596.837
101596.851
101596.868
101596.888
101596.911
101596.937
101596.966
101596.999
101597.035
101597.076
101597.12
101597.169
101597.221
101597.277
101597.336
101597.4
101597.468
101597.538
101597.608
101597.687
101597.781
101597.865
101597.94
101598.027
101598.123
101598.221
101598.316
101598.412
101598.51
101598.609
101598.71
101598.812
101598.917
101599.024
101599.135
101599.252
101599.375
101599.508
101599.654
101599.816
101599.998
101600.203
101600.435
101600.694
101600.985
101601.312
101601.681
101602.102
101602.561
101603.142
101604.222
101605.995
101606.637
101606.79
101607.4
101607.989
101608.847
101609.755
101610.893
101611.93
101613.21
101615.048
101616.085
101617.054
101618.271
101619.15
101620.205
101621.578
101622.917
101624.089
101625.567
101626.754
101594.824
101594.821
101594.818
101594.819
101594.822
101594.828
101594.837
101594.849
101594.864
101594.882
101594.904
101594.929
101594.958
101594.991
101595.028
101595.069
101595.114
101595.163
101595.216
101595.274
101595.336
101595.402
101595.472
101595.542
101595.621
101595.714
101595.799
101595.877
101595.967
101596.067
101596.166
101596.267
101596.371
101596.477
101596.585
101596.695
101596.808
101596.923
101597.043
101597.167
101597.296
101597.433
101597.58
101597.74
101597.915
101598.11
101598.33
101598.578
101598.858
101599.175
101599.534
101599.945
101600.415
101600.962
101601.525
101602.132
101603.078
101604.509
101605.481
101605.762
101606.222
101606.723
101607.401
101608.517
101609.781
101610.918
101612.033
101613.404
101614.581
101615.45
101616.163
101617.21
101618.53
101619.976
101621.365
101622.76
101624.046
101625.238
101627.005
101629.314
101592.493
101592.493
101592.495
101592.5
101592.508
101592.519
101592.533
101592.55
101592.571
101592.596
101592.625
101592.658
101592.695
101592.737
101592.783
101592.833
101592.887
101592.947
101593.01
101593.078
101593.149
101593.226
101593.316
101593.401
101593.482
101593.574
101593.675
101593.776
101593.88
101593.987
101594.097
101594.211
101594.327
101594.447
101594.57
101594.698
101594.831
101594.97
101595.116
101595.273
101595.441
101595.625
101595.827
101596.052
101596.303
101596.586
101596.903
101597.256
101597.644
101598.072
101598.539
101599.034
101599.565
101600.293
101601.357
101602.725
101603.74
101604.149
101604.598
101605.334
101606.374
101607.379
101608.309
101609.625
101610.89
101611.775
101612.503
101613.164
101613.923
101614.787
101616.075
101617.824
101619.545
101621.402
101623.178
101624.859
101626.759
101628.55
101629.926
101631.147
101589.789
101589.793
101589.801
101589.811
101589.825
101589.842
101589.864
101589.889
101589.918
101589.951
101589.989
101590.032
101590.079
101590.13
101590.187
101590.248
101590.313
101590.382
101590.458
101590.544
101590.629
101590.712
101590.805
101590.905
101591.008
101591.113
101591.223
101591.336
101591.453
101591.574
101591.698
101591.827
101591.961
101592.1
101592.245
101592.399
101592.562
101592.738
101592.928
101593.137
101593.368
101593.626
101593.913
101594.236
101594.599
101595.006
101595.458
101595.96
101596.507
101597.11
101597.765
101598.41
101599.461
101600.826
101601.714
101602.074
101602.437
101603.168
101604.209
101605.217
101606.266
101607.377
101608.736
101609.823
101610.45
101611.459
101612.938
101614.497
101616.242
101617.973
101619.311
101620.357
101621.502
101622.823
101624.198
101625.669
101627.297
101629.228
101630.714
101631.791
101586.665
101586.676
101586.69
101586.708
101586.73
101586.756
101586.786
101586.82
101586.859
101586.903
101586.951
101587.005
101587.063
101587.125
101587.194
101587.271
101587.353
101587.433
101587.518
101587.611
101587.711
101587.814
101587.921
101588.032
101588.148
101588.268
101588.392
101588.521
101588.654
101588.793
101588.938
101589.089
101589.249
101589.419
101589.601
101589.798
101590.013
101590.25
101590.512
101590.804
101591.132
101591.499
101591.912
101592.377
101592.897
101593.478
101594.129
101594.862
101595.641
101596.458
101597.326
101598.651
101599.688
101600.117
101600.683
101601.407
101602.309
101603.337
101604.404
101605.807
101607.171
101608.525
101609.735
101610.867
101612.336
101613.667
101614.921
101616.131
101617.41
101618.899
101620.225
101621.296
101622.405
101623.685
101625.218
101626.776
101628.212
101630.022
101632.467
101633.718
101583.077
101583.096
101583.12
101583.147
101583.179
101583.215
101583.256
101583.302
101583.352
101583.407
101583.468
101583.534
101583.607
101583.684
101583.764
101583.851
101583.944
101584.043
101584.145
101584.253
101584.365
101584.482
101584.604
101584.731
101584.863
101585
101585.143
101585.291
101585.448
101585.612
101585.787
101585.973
101586.174
101586.391
101586.629
101586.891
101587.18
101587.5
101587.855
101588.25
101588.687
101589.168
101589.695
101590.269
101590.876
101591.5
101592.164
101592.973
101594.155
101595.61
101596.972
101597.71
101598.247
101599.122
101600.229
101601.403
101602.505
101603.602
101605.027
101606.453
101607.764
101609.135
101610.416
101611.772
101613.171
101614.262
101615.311
101616.448
101617.468
101618.701
101620.234
101621.86
101623.292
101624.62
101626.337
101628.499
101630.988
101633.597
101634.929
101636.204
101578.983
101579.012
101579.047
101579.086
101579.13
101579.178
101579.231
101579.289
101579.353
101579.423
101579.498
101579.577
101579.662
101579.754
101579.85
101579.952
101580.059
101580.171
101580.289
101580.412
101580.541
101580.675
101580.814
101580.96
101581.113
101581.273
101581.443
101581.622
101581.814
101582.021
101582.245
101582.489
101582.757
101583.054
101583.383
101583.748
101584.155
101584.607
101585.108
101585.662
101586.271
101586.939
101587.664
101588.455
101589.301
101590.167
101591.379
101592.92
101593.758
101594.214
101594.876
101595.916
101597.236
101598.531
101599.943
101601.367
101602.888
101604.576
101605.935
101606.96
101607.943
101608.882
101609.888
101610.982
101612.327
101613.814
101615.196
101616.703
101618.12
101619.751
101621.748
101623.621
101625.684
101628.094
101630.315
101632.064
101633.797
101635.117
101636.634
101638.455
101574.357
101574.398
101574.448
101574.5
101574.557
101574.62
101574.687
101574.76
101574.837
101574.921
101575.011
101575.106
101575.206
101575.312
101575.424
101575.541
101575.664
101575.793
101575.928
101576.069
101576.217
101576.372
101576.536
101576.708
101576.892
101577.088
101577.299
101577.527
101577.776
101578.049
101578.351
101578.685
101579.057
101579.47
101579.93
101580.442
101581.009
101581.636
101582.324
101583.076
101583.89
101584.766
101585.695
101586.678
101587.692
101588.736
101589.912
101590.919
101591.878
101593.15
101594.381
101595.636
101596.903
101598.32
101599.684
101600.876
101602.021
101603.056
101604.374
101605.849
101607.184
101608.558
101609.967
101611.575
101613.263
101615.08
101616.994
101618.866
101620.78
101622.34
101623.882
101625.699
101627.419
101629.081
101630.48
101631.594
101632.896
101635.339
101636.981
101638.397
101569.194
101569.249
101569.314
101569.382
101569.454
101569.531
101569.614
101569.702
101569.796
101569.895
101570
101570.111
101570.227
101570.35
101570.478
101570.613
101570.754
101570.902
101571.058
101571.222
101571.395
101571.579
101571.775
101571.986
101572.213
101572.459
101572.729
101573.024
101573.35
101573.711
101574.111
101574.555
101575.046
101575.59
101576.188
101576.844
101577.56
101578.338
101579.176
101580.08
101581.043
101582.078
101583.163
101584.262
101585.306
101586.604
101588.105
101589.489
101591.128
101592.565
101593.695
101594.905
101596.127
101597.311
101598.444
101599.634
101600.93
101602.56
101604.644
101606.322
101607.812
101609.697
101611.435
101612.982
101614.633
101616.242
101617.867
101619.722
101621.619
101623.147
101624.626
101626.402
101628.117
101629.563
101631.278
101633.159
101634.995
101637.061
101639.051
101640.949
101563.522
101563.592
101563.674
101563.759
101563.847
101563.94
101564.039
101564.143
101564.252
101564.368
101564.489
101564.616
101564.749
101564.89
101565.037
101565.193
101565.356
101565.53
101565.714
101565.911
101566.123
101566.351
101566.599
101566.87
101567.168
101567.497
101567.861
101568.266
101568.715
101569.213
101569.766
101570.376
101571.048
101571.781
101572.578
101573.436
101574.352
101575.317
101576.309
101577.334
101578.353
101579.734
101581.555
101583.292
101585.034
101586.442
101587.469
101588.725
101590.076
101591.407
101592.876
101594.273
101595.669
101597.105
101598.918
101600.955
101602.902
101604.629
101605.95
101607.271
101608.758
101610.353
101612.527
101614.271
101615.521
101616.926
101618.426
101619.989
101621.634
101623.219
101625.067
101627.45
101629.845
101631.964
101634.102
101636.136
101637.32
101638.576
101640.939
101643.043
101557.405
101557.491
101557.591
101557.693
101557.798
101557.908
101558.023
101558.144
101558.271
101558.404
101558.544
101558.691
101558.846
101559.01
101559.184
101559.369
101559.567
101559.779
101560.01
101560.26
101560.534
101560.835
101561.167
101561.537
101561.947
101562.405
101562.915
101563.484
101564.116
101564.816
101565.591
101566.442
101567.374
101568.39
101569.491
101570.682
101571.964
101573.322
101574.757
101576.624
101579.158
101580.948
101581.999
101582.982
101583.983
101585.061
101586.172
101587.256
101588.194
101589.664
101592.193
101594.761
101597.287
101599.676
101601.054
101601.995
101603.064
101604.287
101605.53
101606.676
101607.974
101610.005
101611.737
101613.308
101615.368
101617.248
101618.936
101621.152
101624.061
101627.277
101629.377
101630.529
101631.721
101633.073
101634.948
101637.093
101639.149
101640.884
101641.686
101643.353
101550.961
101551.063
101551.181
101551.299
101551.42
101551.545
101551.677
101551.814
101551.958
101552.109
101552.269
101552.437
101552.616
101552.808
101553.014
101553.237
101553.479
101553.744
101554.035
101554.358
101554.716
101555.116
101555.562
101556.061
101556.62
101557.243
101557.937
101558.707
101559.558
101560.493
101561.516
101562.626
101563.823
101565.105
101566.467
101567.902
101569.394
101570.916
101572.515
101574.236
101575.493
101576.632
101578.187
101579.879
101581.582
101583.269
101585.001
101586.771
101588.666
101590.641
101592.594
101594.277
101595.731
101597.125
101598.862
101600.983
101602.864
101604.756
101606.914
101608.843
101610.34
101611.379
101612.346
101614.383
101617.13
101619.923
101622.895
101624.801
101625.923
101627.464
101629.326
101631.622
101633.987
101635.789
101637.299
101639.065
101640.954
101641.842
101642.483
101644.766
101574.547
101574.548
101574.55
101574.553
101574.559
101574.565
101574.574
101574.584
101574.596
101574.61
101574.625
101574.642
101574.661
101574.683
101574.706
101574.731
101574.758
101574.788
101574.82
101574.854
101574.89
101574.93
101574.972
101575.016
101575.064
101575.115
101575.169
101575.227
101575.288
101575.353
101575.422
101575.495
101575.573
101575.656
101575.743
101575.836
101575.935
101576.04
101576.152
101576.27
101576.396
101576.529
101576.671
101576.822
101576.982
101577.152
101577.333
101577.525
101577.728
101577.943
101578.171
101578.412
101578.667
101578.937
101579.224
101579.527
101579.844
101580.165
101580.489
101580.804
101581.091
101581.331
101581.504
101581.583
101581.606
101581.662
101581.761
101581.636
101581.325
101580.937
101580.467
101579.898
101579.226
101578.492
101577.679
101576.79
101575.896
101574.948
101573.151
101571.266
101578.358
101578.359
101578.362
101578.366
101578.373
101578.381
101578.391
101578.403
101578.417
101578.433
101578.451
101578.471
101578.493
101578.518
101578.545
101578.574
101578.606
101578.64
101578.676
101578.716
101578.758
101578.804
101578.852
101578.903
101578.958
101579.017
101579.079
101579.145
101579.214
101579.289
101579.367
101579.451
101579.539
101579.632
101579.732
101579.837
101579.948
101580.066
101580.191
101580.324
101580.464
101580.613
101580.77
101580.936
101581.112
101581.299
101581.496
101581.705
101581.925
101582.157
101582.403
101582.661
101582.931
101583.214
101583.509
101583.812
101584.123
101584.437
101584.752
101585.062
101585.369
101585.671
101585.969
101586.262
101586.502
101586.588
101586.442
101586.402
101586.542
101586.617
101586.67
101586.525
101586.16
101585.658
101585.086
101584.519
101583.96
101583.576
101583.5
101582.568
101581.925
101581.926
101581.93
101581.935
101581.942
101581.951
101581.962
101581.976
101581.991
101582.009
101582.029
101582.051
101582.075
101582.102
101582.131
101582.163
101582.198
101582.235
101582.275
101582.318
101582.364
101582.413
101582.465
101582.521
101582.58
101582.643
101582.709
101582.78
101582.855
101582.934
101583.019
101583.108
101583.202
101583.301
101583.407
101583.518
101583.636
101583.76
101583.891
101584.03
101584.176
101584.332
101584.497
101584.671
101584.856
101585.05
101585.256
101585.473
101585.701
101585.943
101586.198
101586.466
101586.748
101587.041
101587.347
101587.664
101587.992
101588.33
101588.674
101589.026
101589.386
101589.751
101590.117
101590.476
101590.82
101591.157
101591.506
101591.74
101591.707
101591.473
101591.072
101590.9
101590.947
101590.928
101590.919
101590.645
101589.952
101589.238
101589.269
101589.516
101585.223
101585.225
101585.229
101585.235
101585.242
101585.252
101585.264
101585.278
101585.295
101585.313
101585.334
101585.357
101585.383
101585.411
101585.442
101585.475
101585.511
101585.55
101585.592
101585.636
101585.684
101585.735
101585.789
101585.847
101585.908
101585.973
101586.042
101586.115
101586.193
101586.275
101586.362
101586.453
101586.55
101586.652
101586.759
101586.872
101586.992
101587.119
101587.252
101587.392
101587.54
101587.695
101587.858
101588.029
101588.209
101588.398
101588.598
101588.81
101589.035
101589.273
101589.526
101589.791
101590.066
101590.354
101590.654
101590.967
101591.294
101591.636
101591.991
101592.359
101592.739
101593.128
101593.52
101593.908
101594.281
101594.631
101594.941
101595.211
101595.474
101595.746
101595.957
101595.935
101595.637
101595.127
101594.558
101594.453
101594.715
101594.875
101595.271
101595.415
101588.246
101588.248
101588.252
101588.258
101588.266
101588.276
101588.288
101588.303
101588.32
101588.339
101588.36
101588.384
101588.41
101588.438
101588.469
101588.503
101588.539
101588.579
101588.621
101588.666
101588.714
101588.765
101588.82
101588.878
101588.939
101589.005
101589.074
101589.147
101589.225
101589.307
101589.394
101589.485
101589.58
101589.681
101589.788
101589.901
101590.019
101590.144
101590.274
101590.413
101590.559
101590.713
101590.874
101591.044
101591.223
101591.411
101591.608
101591.816
101592.034
101592.262
101592.5
101592.746
101593.003
101593.269
101593.543
101593.832
101594.138
101594.456
101594.786
101595.13
101595.488
101595.865
101596.261
101596.676
101597.113
101597.578
101598.028
101598.415
101598.763
101599.036
101599.223
101599.356
101599.461
101599.559
101599.525
101599.092
101598.243
101598.143
101598.531
101598.545
101590.986
101590.988
101590.993
101590.999
101591.007
101591.017
101591.029
101591.044
101591.06
101591.079
101591.1
101591.124
101591.149
101591.178
101591.208
101591.241
101591.277
101591.316
101591.357
101591.401
101591.448
101591.499
101591.552
101591.609
101591.669
101591.733
101591.8
101591.872
101591.948
101592.027
101592.111
101592.199
101592.292
101592.39
101592.493
101592.602
101592.715
101592.835
101592.962
101593.095
101593.234
101593.382
101593.537
101593.699
101593.871
101594.051
101594.24
101594.439
101594.648
101594.866
101595.094
101595.332
101595.582
101595.844
101596.12
101596.41
101596.715
101597.031
101597.36
101597.7
101598.053
101598.419
101598.797
101599.184
101599.574
101599.958
101600.34
101600.721
101601.115
101601.584
101602.055
101602.407
101602.691
101602.892
101602.993
101603.066
101603.212
101603.228
101602.954
101602.326
101593.454
101593.456
101593.46
101593.466
101593.474
101593.484
101593.496
101593.51
101593.526
101593.544
101593.565
101593.587
101593.612
101593.639
101593.668
101593.7
101593.735
101593.772
101593.811
101593.853
101593.899
101593.947
101593.998
101594.052
101594.109
101594.17
101594.234
101594.302
101594.374
101594.449
101594.529
101594.612
101594.7
101594.793
101594.89
101594.993
101595.1
101595.213
101595.332
101595.456
101595.588
101595.727
101595.872
101596.025
101596.186
101596.354
101596.532
101596.719
101596.915
101597.121
101597.339
101597.568
101597.809
101598.063
101598.332
101598.616
101598.913
101599.224
101599.549
101599.888
101600.24
101600.604
101600.979
101601.36
101601.743
101602.122
101602.49
101602.863
101603.229
101603.591
101603.916
101604.231
101604.571
101605.005
101605.426
101605.669
101605.763
101605.613
101605.446
101605.517
101595.655
101595.657
101595.661
101595.666
101595.674
101595.683
101595.694
101595.707
101595.722
101595.74
101595.759
101595.78
101595.803
101595.828
101595.856
101595.886
101595.918
101595.953
101595.99
101596.029
101596.071
101596.116
101596.164
101596.214
101596.268
101596.325
101596.384
101596.448
101596.515
101596.585
101596.658
101596.736
101596.818
101596.903
101596.994
101597.088
101597.188
101597.293
101597.403
101597.518
101597.64
101597.768
101597.903
101598.045
101598.194
101598.351
101598.516
101598.69
101598.874
101599.067
101599.271
101599.487
101599.714
101599.953
101600.205
101600.47
101600.749
101601.042
101601.348
101601.669
101602.003
101602.351
101602.713
101603.089
101603.479
101603.88
101604.294
101604.711
101605.13
101605.505
101605.836
101606.191
101606.519
101606.791
101606.951
101607.093
101607.213
101607.314
101607.34
101607.39
101597.609
101597.611
101597.614
101597.619
101597.626
101597.634
101597.644
101597.656
101597.67
101597.685
101597.703
101597.722
101597.743
101597.766
101597.792
101597.819
101597.848
101597.88
101597.914
101597.95
101597.989
101598.03
101598.073
101598.12
101598.169
101598.22
101598.275
101598.333
101598.394
101598.458
101598.525
101598.595
101598.67
101598.748
101598.83
101598.916
101599.006
101599.101
101599.201
101599.306
101599.417
101599.535
101599.657
101599.787
101599.924
101600.068
101600.22
101600.38
101600.549
101600.728
101600.917
101601.117
101601.328
101601.552
101601.789
101602.039
101602.304
101602.583
101602.878
101603.188
101603.514
101603.857
101604.217
101604.595
101604.991
101605.404
101605.834
101606.28
101606.739
101607.207
101607.684
101608.124
101608.518
101608.804
101609.008
101609.234
101609.354
101609.373
101609.192
101609.082
101599.331
101599.332
101599.334
101599.338
101599.344
101599.351
101599.359
101599.37
101599.382
101599.395
101599.411
101599.428
101599.446
101599.467
101599.49
101599.514
101599.54
101599.569
101599.599
101599.632
101599.666
101599.703
101599.742
101599.784
101599.827
101599.874
101599.922
101599.974
101600.028
101600.085
101600.145
101600.207
101600.273
101600.342
101600.415
101600.492
101600.574
101600.659
101600.75
101600.846
101600.947
101601.051
101601.161
101601.278
101601.401
101601.532
101601.671
101601.818
101601.973
101602.137
101602.312
101602.498
101602.695
101602.905
101603.129
101603.367
101603.62
101603.889
101604.175
101604.479
101604.802
101605.145
101605.509
101605.893
101606.298
101606.725
101607.174
101607.644
101608.132
101608.635
101609.15
101609.669
101610.181
101610.681
101611.173
101611.552
101611.792
101611.868
101611.775
101611.749
101600.84
101600.84
101600.841
101600.843
101600.847
101600.852
101600.859
101600.867
101600.877
101600.888
101600.901
101600.915
101600.931
101600.949
101600.968
101600.989
101601.011
101601.036
101601.062
101601.09
101601.12
101601.152
101601.186
101601.222
101601.26
101601.301
101601.344
101601.389
101601.437
101601.488
101601.541
101601.597
101601.656
101601.718
101601.784
101601.853
101601.925
101602.002
101602.081
101602.164
101602.251
101602.345
101602.445
101602.55
101602.662
101602.781
101602.906
101603.039
101603.18
101603.33
101603.489
101603.662
101603.85
101604.051
101604.267
101604.497
101604.744
101605.009
101605.29
101605.59
101605.909
101606.249
101606.614
101607.003
101607.418
101607.859
101608.327
101608.822
101609.343
101609.889
101610.455
101611.035
101611.619
101612.197
101612.753
101613.262
101613.706
101614.049
101614.294
101614.286
101602.156
101602.154
101602.153
101602.154
101602.156
101602.159
101602.164
101602.17
101602.177
101602.186
101602.196
101602.207
101602.22
101602.235
101602.251
101602.269
101602.288
101602.309
101602.332
101602.356
101602.382
101602.41
101602.439
101602.471
101602.504
101602.539
101602.576
101602.615
101602.657
101602.7
101602.746
101602.794
101602.845
101602.899
101602.956
101603.014
101603.075
101603.14
101603.211
101603.287
101603.365
101603.447
101603.536
101603.63
101603.73
101603.838
101603.953
101604.078
101604.214
101604.361
101604.518
101604.682
101604.853
101605.039
101605.238
101605.453
101605.684
101605.931
101606.195
101606.477
101606.777
101607.126
101607.522
101607.941
101608.385
101608.856
101609.353
101609.875
101610.422
101610.996
101611.602
101612.232
101612.879
101613.534
101614.183
101614.808
101615.385
101615.883
101616.273
101616.487
101603.29
101603.286
101603.283
101603.281
101603.281
101603.281
101603.283
101603.286
101603.29
101603.296
101603.303
101603.311
101603.321
101603.332
101603.344
101603.358
101603.373
101603.39
101603.408
101603.428
101603.449
101603.472
101603.497
101603.523
101603.551
101603.581
101603.612
101603.646
101603.681
101603.719
101603.759
101603.8
101603.842
101603.886
101603.932
101603.983
101604.039
101604.098
101604.157
101604.22
101604.288
101604.359
101604.436
101604.518
101604.606
101604.699
101604.8
101604.908
101605.025
101605.152
101605.294
101605.45
101605.62
101605.806
101606.01
101606.233
101606.478
101606.751
101607.056
101607.394
101607.75
101608.086
101608.421
101608.796
101609.207
101609.651
101610.122
101610.625
101611.152
101611.775
101612.481
101613.196
101613.923
101614.658
101615.391
101616.113
101616.796
101617.401
101617.882
101618.198
101604.244
101604.238
101604.232
101604.227
101604.224
101604.221
101604.22
101604.22
101604.221
101604.224
101604.228
101604.233
101604.239
101604.247
101604.256
101604.266
101604.278
101604.291
101604.306
101604.322
101604.34
101604.359
101604.38
101604.403
101604.427
101604.453
101604.48
101604.507
101604.537
101604.567
101604.599
101604.635
101604.674
101604.716
101604.759
101604.804
101604.85
101604.899
101604.951
101605.006
101605.066
101605.129
101605.197
101605.271
101605.35
101605.435
101605.528
101605.629
101605.738
101605.856
101605.986