/*--------------------------------*- C++ -*----------------------------------*\
  =========                 |
  \\      /  F ield         | OpenFOAM: The Open Source CFD Toolbox
   \\    /   O peration     | Website:  https://openfoam.org
    \\  /    A nd           | Version:  8
     \\/     M anipulation  |
\*---------------------------------------------------------------------------*/
FoamFile
{
    version     2.0;
    format      ascii;
    class       volScalarField;
    location    "0.064";
    object      p_rgh;
}
// * * * * * * * * * * * * * * * * * * * * * * * * * * * * * * * * * * * * * //

dimensions      [1 -1 -2 0 0 0 0];

internalField   nonuniform List<scalar> 
42400
(
101605.266
101605.253
101605.238
101605.225
101605.213
101605.201
101605.191
101605.182
101605.174
101605.167
101605.162
101605.157
101605.154
101605.152
101605.151
101605.151
101605.153
101605.155
101605.159
101605.164
101605.17
101605.177
101605.185
101605.194
101605.204
101605.215
101605.226
101605.238
101605.251
101605.264
101605.277
101605.291
101605.305
101605.32
101605.334
101605.349
101605.363
101605.377
101605.401
101605.437
101605.478
101605.523
101605.543
101605.535
101605.524
101605.524
101605.544
101605.576
101605.611
101605.648
101605.685
101605.721
101605.752
101605.813
101605.906
101606.017
101606.096
101606.13
101606.194
101606.308
101606.453
101606.598
101606.749
101606.919
101607.115
101607.34
101607.564
101607.852
101608.261
101608.203
101608.31
101609.735
101609.823
101608.269
101607.854
101611.27
101615.206
101613.664
101614.666
101614.49
101604.67
101604.659
101604.647
101604.636
101604.626
101604.617
101604.61
101604.603
101604.597
101604.592
101604.588
101604.586
101604.584
101604.584
101604.585
101604.587
101604.59
101604.594
101604.599
101604.606
101604.613
101604.622
101604.631
101604.642
101604.653
101604.665
101604.678
101604.692
101604.706
101604.721
101604.736
101604.752
101604.768
101604.784
101604.8
101604.824
101604.857
101604.895
101604.925
101604.933
101604.929
101604.923
101604.933
101604.96
101604.987
101605.014
101605.042
101605.069
101605.088
101605.122
101605.189
101605.278
101605.335
101605.343
101605.371
101605.438
101605.533
101605.625
101605.715
101605.815
101605.933
101606.075
101606.243
101606.432
101606.644
101606.916
101607.193
101607.495
101608.086
101608.393
101608.12
101609.046
101609.921
101609.966
101611.28
101614.06
101617.147
101620.179
101620.512
101621.997
101603.933
101603.924
101603.915
101603.907
101603.899
101603.893
101603.888
101603.883
101603.88
101603.877
101603.876
101603.875
101603.876
101603.878
101603.882
101603.886
101603.892
101603.899
101603.907
101603.916
101603.927
101603.939
101603.951
101603.966
101603.981
101603.997
101604.014
101604.032
101604.051
101604.07
101604.09
101604.114
101604.142
101604.174
101604.209
101604.238
101604.252
101604.26
101604.269
101604.29
101604.321
101604.352
101604.383
101604.415
101604.444
101604.464
101604.506
101604.589
101604.674
101604.683
101604.673
101604.715
101604.785
101604.854
101604.918
101604.984
101605.059
101605.147
101605.25
101605.369
101605.498
101605.646
101605.841
101606.09
101606.378
101606.751
101607.206
101607.702
101608.483
101609.497
101610.138
101610.852
101612.604
101615.267
101616.892
101617.34
101618.724
101620.78
101621.8
101623.312
101603.078
101603.071
101603.064
101603.057
101603.052
101603.047
101603.044
101603.042
101603.04
101603.04
101603.041
101603.044
101603.047
101603.052
101603.059
101603.066
101603.076
101603.086
101603.099
101603.112
101603.128
101603.145
101603.163
101603.183
101603.204
101603.227
101603.25
101603.276
101603.304
101603.335
101603.369
101603.403
101603.431
101603.456
101603.481
101603.508
101603.543
101603.583
101603.623
101603.662
101603.703
101603.742
101603.773
101603.822
101603.904
101603.958
101603.971
101604.003
101604.061
101604.127
101604.182
101604.234
101604.291
101604.355
101604.428
101604.509
101604.599
101604.701
101604.814
101604.944
101605.107
101605.294
101605.546
101605.868
101606.273
101606.758
101607.351
101608.009
101608.416
101609.386
101611.486
101613.675
101615.112
101616.009
101616.773
101617.175
101618.37
101619.771
101621
101622.644
101602.107
101602.101
101602.094
101602.089
101602.085
101602.082
101602.08
101602.079
101602.08
101602.082
101602.085
101602.09
101602.097
101602.105
101602.115
101602.127
101602.141
101602.156
101602.173
101602.193
101602.214
101602.237
101602.262
101602.287
101602.315
101602.346
101602.38
101602.416
101602.452
101602.488
101602.526
101602.565
101602.608
101602.656
101602.704
101602.753
101602.803
101602.854
101602.903
101602.946
101603.004
101603.09
101603.149
101603.174
101603.22
101603.285
101603.346
101603.404
101603.462
101603.523
101603.587
101603.653
101603.723
101603.799
101603.885
101603.985
101604.1
101604.235
101604.403
101604.589
101604.81
101605.041
101605.369
101605.746
101606.275
101606.734
101607.219
101608.653
101611.156
101612.683
101613.076
101613.501
101614.319
101615.497
101617.008
101618.411
101619.265
101620.315
101622.187
101623.515
101601.004
101600.998
101600.992
101600.988
101600.984
101600.982
101600.981
101600.982
101600.984
101600.988
101600.994
101601.002
101601.012
101601.024
101601.038
101601.054
101601.072
101601.093
101601.115
101601.139
101601.165
101601.194
101601.228
101601.266
101601.306
101601.347
101601.391
101601.438
101601.487
101601.538
101601.591
101601.646
101601.702
101601.76
101601.82
101601.88
101601.934
101602
101602.092
101602.159
101602.197
101602.258
101602.333
101602.403
101602.469
101602.536
101602.603
101602.671
101602.739
101602.809
101602.885
101602.967
101603.06
101603.166
101603.288
101603.431
101603.606
101603.813
101604.069
101604.355
101604.692
101605.014
101605.421
101605.804
101606.481
101608.571
101610.57
101611.434
101611.638
101612.093
101612.927
101613.963
101615.146
101616.485
101617.935
101619.352
101620.633
101622.073
101623.21
101624.164
101599.738
101599.732
101599.726
101599.721
101599.719
101599.717
101599.718
101599.72
101599.724
101599.731
101599.739
101599.75
101599.763
101599.779
101599.798
101599.818
101599.841
101599.867
101599.898
101599.933
101599.971
101600.011
101600.054
101600.099
101600.147
101600.199
101600.253
101600.31
101600.369
101600.432
101600.497
101600.564
101600.628
101600.693
101600.769
101600.866
101600.941
101600.993
101601.067
101601.153
101601.233
101601.31
101601.387
101601.465
101601.542
101601.62
101601.7
101601.783
101601.871
101601.967
101602.072
101602.192
101602.329
101602.488
101602.678
101602.902
101603.171
101603.498
101603.916
101604.405
101604.991
101605.563
101606.126
101607.829
101609.542
101609.758
101609.865
101610.515
101611.429
101612.808
101614.242
101615.266
101616.323
101617.768
101619.474
101620.905
101621.894
101622.671
101623.331
101624.26
101598.274
101598.268
101598.262
101598.258
101598.257
101598.257
101598.259
101598.264
101598.27
101598.279
101598.29
101598.304
101598.321
101598.341
101598.365
101598.393
101598.424
101598.457
101598.494
101598.534
101598.578
101598.626
101598.677
101598.731
101598.789
101598.851
101598.915
101598.984
101599.054
101599.122
101599.198
101599.292
101599.386
101599.456
101599.525
101599.611
101599.705
101599.795
101599.883
101599.972
101600.062
101600.152
101600.243
101600.336
101600.432
101600.531
101600.637
101600.75
101600.875
101601.015
101601.174
101601.355
101601.566
101601.808
101602.092
101602.43
101602.832
101603.297
101603.843
101604.356
101605.212
101606.716
101608.052
101608.485
101608.686
101609.433
101610.437
101611.439
101612.608
101613.537
101614.543
101615.97
101617.334
101618.846
101620.178
101621.18
101622.205
101623.23
101624.729
101625.978
101596.555
101596.55
101596.545
101596.543
101596.543
101596.545
101596.55
101596.558
101596.568
101596.582
101596.599
101596.62
101596.643
101596.669
101596.699
101596.732
101596.769
101596.81
101596.855
101596.904
101596.956
101597.013
101597.073
101597.137
101597.205
101597.276
101597.347
101597.427
101597.522
101597.607
101597.682
101597.77
101597.867
101597.966
101598.062
101598.159
101598.258
101598.359
101598.461
101598.565
101598.671
101598.78
101598.893
101599.012
101599.138
101599.274
101599.423
101599.588
101599.775
101599.984
101600.221
101600.488
101600.786
101601.122
101601.501
101601.926
101602.378
101602.93
101603.997
101605.784
101606.647
101606.863
101607.358
101607.938
101608.777
101609.718
101610.833
101611.887
101613.209
101614.924
101616.058
101617.212
101618.441
101619.34
101620.416
101621.763
101623.107
101624.356
101625.941
101627.207
101594.551
101594.548
101594.546
101594.546
101594.549
101594.555
101594.564
101594.577
101594.592
101594.61
101594.632
101594.658
101594.687
101594.721
101594.758
101594.799
101594.845
101594.894
101594.948
101595.006
101595.069
101595.135
101595.205
101595.277
101595.357
101595.45
101595.536
101595.614
101595.706
101595.806
101595.907
101596.009
101596.113
101596.22
101596.329
101596.441
101596.555
101596.673
101596.794
101596.919
101597.051
101597.19
101597.34
101597.502
101597.68
101597.879
101598.103
101598.355
101598.64
101598.963
101599.327
101599.746
101600.225
101600.784
101601.373
101602.021
101602.963
101604.403
101605.346
101605.581
101606.007
101606.544
101607.328
101608.452
101609.702
101610.858
101611.994
101613.338
101614.667
101615.634
101616.353
101617.37
101618.656
101620.077
101621.495
101622.926
101624.2
101625.393
101627.13
101629.345
101592.214
101592.214
101592.216
101592.221
101592.229
101592.24
101592.254
101592.272
101592.293
101592.319
101592.348
101592.381
101592.418
101592.46
101592.507
101592.557
101592.612
101592.672
101592.736
101592.805
101592.875
101592.954
101593.044
101593.13
101593.211
101593.305
101593.406
101593.508
101593.613
101593.721
101593.833
101593.947
101594.065
101594.186
101594.311
101594.44
101594.575
101594.716
101594.864
101595.023
101595.194
101595.381
101595.587
101595.816
101596.071
101596.359
101596.682
101597.042
101597.439
101597.877
101598.355
101598.866
101599.414
101600.139
101601.19
101602.56
101603.653
101604.085
101604.532
101605.249
101606.217
101607.215
101608.219
101609.582
101610.869
101611.761
101612.535
101613.25
101613.982
101614.797
101616.101
101617.816
101619.531
101621.38
101623.187
101624.973
101626.906
101628.687
101630.153
101631.398
101589.501
101589.506
101589.513
101589.524
101589.538
101589.555
101589.576
101589.602
101589.631
101589.665
101589.703
101589.746
101589.793
101589.845
101589.902
101589.963
101590.029
101590.099
101590.175
101590.262
101590.347
101590.431
101590.524
101590.626
101590.729
101590.835
101590.946
101591.06
101591.178
101591.3
101591.426
101591.556
101591.691
101591.831
101591.978
101592.134
101592.299
101592.477
101592.67
101592.882
101593.115
101593.375
101593.666
101593.993
101594.359
101594.769
101595.225
101595.729
101596.278
101596.884
101597.536
101598.193
101599.247
101600.623
101601.494
101601.911
101602.33
101603.053
101604.121
101605.14
101606.203
101607.353
101608.725
101609.785
101610.414
101611.414
101612.817
101614.327
101616.075
101617.851
101619.308
101620.456
101621.62
101622.917
101624.275
101625.749
101627.423
101629.342
101630.836
101632.111
101586.366
101586.377
101586.391
101586.409
101586.431
101586.457
101586.487
101586.522
101586.561
101586.605
101586.654
101586.707
101586.766
101586.829
101586.898
101586.975
101587.057
101587.137
101587.223
101587.317
101587.418
101587.521
101587.629
101587.741
101587.857
101587.978
101588.103
101588.233
101588.368
101588.508
101588.654
101588.807
101588.968
101589.14
101589.324
101589.523
101589.741
101589.98
101590.246
101590.541
101590.872
101591.244
101591.661
101592.131
101592.656
101593.242
101593.897
101594.632
101595.415
101596.241
101597.106
101598.409
101599.498
101599.934
101600.479
101601.209
101602.114
101603.204
101604.379
101605.825
101607.131
101608.379
101609.484
101610.552
101612.039
101613.485
101614.835
101616.098
101617.413
101618.903
101620.213
101621.325
101622.55
101623.908
101625.391
101626.889
101628.381
101630.226
101632.434
101633.733
101582.765
101582.784
101582.808
101582.836
101582.868
101582.904
101582.945
101582.991
101583.041
101583.097
101583.157
101583.224
101583.298
101583.374
101583.454
101583.542
101583.636
101583.734
101583.837
101583.945
101584.058
101584.176
101584.299
101584.426
101584.559
101584.697
101584.84
101584.99
101585.148
101585.313
101585.489
101585.678
101585.88
101586.1
101586.341
101586.605
101586.897
101587.222
101587.582
101587.983
101588.427
101588.917
101589.455
101590.042
101590.664
101591.314
101592.004
101592.811
101593.944
101595.374
101596.775
101597.543
101598.069
101598.948
101600.09
101601.269
101602.368
101603.514
101604.938
101606.276
101607.522
101608.87
101610.134
101611.509
101612.943
101614.184
101615.35
101616.509
101617.585
101618.832
101620.3
101621.864
101623.244
101624.592
101626.29
101628.315
101630.703
101633.303
101634.95
101636.248
101578.658
101578.687
101578.722
101578.762
101578.805
101578.854
101578.907
101578.965
101579.029
101579.099
101579.174
101579.253
101579.339
101579.43
101579.527
101579.629
101579.736
101579.849
101579.967
101580.091
101580.22
101580.354
101580.494
101580.641
101580.794
101580.955
101581.125
101581.306
101581.498
101581.706
101581.931
101582.176
101582.446
101582.743
101583.073
101583.44
101583.848
101584.301
101584.802
101585.357
101585.966
101586.632
101587.355
101588.14
101588.971
101589.847
101591.08
101592.624
101593.55
101594.099
101594.739
101595.706
101597.021
101598.357
101599.79
101601.197
101602.677
101604.184
101605.4
101606.543
101607.656
101608.674
101609.81
101611.041
101612.434
101613.811
101615.171
101616.711
101618.16
101619.791
101621.694
101623.487
101625.453
101627.806
101630.122
101632.023
101633.701
101634.989
101636.441
101638.205
101574.02
101574.061
101574.11
101574.163
101574.22
101574.282
101574.35
101574.423
101574.5
101574.584
101574.674
101574.769
101574.87
101574.976
101575.088
101575.205
101575.328
101575.458
101575.593
101575.734
101575.883
101576.038
101576.202
101576.375
101576.559
101576.756
101576.967
101577.197
101577.447
101577.721
101578.024
101578.359
101578.732
101579.148
101579.61
101580.124
101580.694
101581.323
101582.014
101582.77
101583.591
101584.474
101585.413
101586.409
101587.437
101588.53
101589.674
101590.621
101591.593
101592.835
101594.075
101595.379
101596.704
101598.093
101599.396
101600.544
101601.688
101602.899
101604.394
101605.83
101607.121
101608.485
101609.868
101611.418
101613.068
101614.818
101616.669
101618.521
101620.43
101622.126
101623.844
101625.752
101627.562
101629.237
101630.553
101631.605
101632.998
101635.41
101637.06
101638.421
101568.844
101568.899
101568.964
101569.032
101569.104
101569.182
101569.264
101569.353
101569.446
101569.546
101569.651
101569.762
101569.878
101570.001
101570.129
101570.264
101570.406
101570.555
101570.711
101570.875
101571.049
101571.234
101571.431
101571.642
101571.87
101572.118
101572.389
101572.687
101573.016
101573.379
101573.782
101574.229
101574.725
101575.272
101575.876
101576.537
101577.259
101578.041
101578.884
101579.79
101580.756
101581.787
101582.864
101583.96
101585.023
101586.254
101587.778
101589.304
101590.866
101592.219
101593.363
101594.561
101595.758
101596.943
101598.143
101599.438
101600.867
101602.496
101604.415
101605.997
101607.51
101609.408
101611.222
101612.91
101614.577
101616.182
101617.798
101619.577
101621.389
101622.933
101624.53
101626.363
101628.052
101629.513
101631.19
101633.1
101635.036
101637.013
101638.78
101640.502
101563.162
101563.232
101563.315
101563.399
101563.487
101563.58
101563.679
101563.783
101563.893
101564.008
101564.129
101564.256
101564.39
101564.53
101564.677
101564.833
101564.996
101565.17
101565.354
101565.551
101565.762
101565.99
101566.238
101566.509
101566.807
101567.136
101567.5
101567.904
101568.353
101568.851
101569.404
101570.015
101570.687
101571.423
101572.222
101573.084
101574.006
101574.98
101575.985
101577.032
101578.078
101579.399
101581.105
101582.794
101584.507
101585.992
101587.113
101588.366
101589.781
101591.152
101592.564
101593.961
101595.392
101596.926
101598.76
101600.692
101602.537
101604.218
101605.616
101606.998
101608.485
101610.043
101612.131
101613.969
101615.357
101616.826
101618.358
101619.946
101621.62
101623.26
101625.081
101627.387
101629.713
101631.707
101633.796
101635.718
101637.026
101638.536
101640.802
101642.832
101557.037
101557.123
101557.223
101557.325
101557.429
101557.539
101557.655
101557.776
101557.903
101558.036
101558.175
101558.322
101558.477
101558.641
101558.814
101558.999
101559.197
101559.409
101559.639
101559.888
101560.162
101560.462
101560.794
101561.163
101561.572
101562.028
101562.537
101563.103
101563.732
101564.429
101565.199
101566.044
101566.968
101567.972
101569.059
101570.231
101571.486
101572.807
101574.203
101576.023
101578.484
101580.423
101581.64
101582.71
101583.774
101584.862
101585.945
101587
101587.988
101589.566
101592.121
101594.613
101596.953
101599.006
101600.3
101601.383
101602.632
101603.957
101605.195
101606.459
101608.036
101610.146
101611.979
101613.51
101615.346
101617.121
101618.762
101620.831
101623.471
101626.46
101628.79
101630.161
101631.528
101633.188
101635.127
101637.224
101639.162
101640.647
101641.761
101643.596
101550.589
101550.691
101550.809
101550.927
101551.048
101551.174
101551.306
101551.443
101551.587
101551.738
101551.898
101552.067
101552.246
101552.438
101552.645
101552.868
101553.111
101553.376
101553.669
101553.992
101554.352
101554.753
101555.201
101555.702
101556.262
101556.888
101557.585
101558.359
101559.215
101560.156
101561.186
101562.306
101563.515
101564.812
101566.195
101567.655
101569.175
101570.733
101572.436
101574.159
101575.38
101576.498
101577.973
101579.606
101581.235
101582.888
101584.639
101586.417
101588.323
101590.294
101592.226
101594.017
101595.635
101597.175
101598.972
101600.973
101602.735
101604.563
101606.62
101608.417
101609.854
101610.95
101612.01
101614.047
101616.786
101619.502
101622.317
101624.409
101625.938
101627.715
101629.508
101631.595
101633.782
101635.496
101637.089
101638.91
101640.659
101641.78
101642.68
101644.759
101574.932
101574.933
101574.935
101574.938
101574.944
101574.951
101574.959
101574.97
101574.982
101574.996
101575.012
101575.029
101575.049
101575.07
101575.094
101575.119
101575.147
101575.177
101575.21
101575.244
101575.282
101575.322
101575.364
101575.41
101575.458
101575.51
101575.565
101575.623
101575.686
101575.752
101575.822
101575.896
101575.975
101576.058
101576.147
101576.242
101576.342
101576.448
101576.561
101576.681
101576.808
101576.943
101577.086
101577.238
101577.4
101577.572
101577.754
101577.948
101578.152
101578.369
101578.598
101578.84
101579.096
101579.366
101579.65
101579.951
101580.263
101580.582
101580.906
101581.226
101581.526
101581.787
101581.986
101582.096
101582.134
101582.152
101582.196
101582.108
101581.845
101581.472
101581.007
101580.447
101579.791
101579.069
101578.273
101577.403
101576.535
101575.688
101574.223
101572.278
101578.694
101578.695
101578.698
101578.703
101578.709
101578.717
101578.728
101578.74
101578.754
101578.77
101578.788
101578.809
101578.831
101578.856
101578.883
101578.913
101578.945
101578.979
101579.016
101579.056
101579.099
101579.145
101579.193
101579.245
101579.301
101579.36
101579.422
101579.489
101579.559
101579.634
101579.713
101579.797
101579.886
101579.98
101580.079
101580.185
101580.297
101580.415
101580.541
101580.674
101580.815
101580.964
101581.122
101581.289
101581.466
101581.653
101581.851
101582.06
101582.28
101582.513
101582.758
101583.016
101583.286
101583.569
101583.863
101584.166
101584.477
101584.792
101585.107
101585.418
101585.725
101586.026
101586.318
101586.601
101586.841
101586.964
101586.891
101586.81
101586.857
101586.906
101586.94
101586.828
101586.526
101586.085
101585.549
101584.985
101584.429
101584.035
101583.924
101582.951
101582.208
101582.21
101582.213
101582.219
101582.226
101582.235
101582.246
101582.26
101582.276
101582.293
101582.313
101582.336
101582.36
101582.387
101582.417
101582.449
101582.483
101582.521
101582.561
101582.604
101582.65
101582.699
101582.752
101582.808
101582.867
101582.93
101582.997
101583.068
101583.143
101583.223
101583.307
101583.396
101583.491
101583.59
101583.696
101583.807
101583.925
101584.049
101584.18
101584.318
101584.464
101584.619
101584.783
101584.957
101585.14
101585.335
101585.54
101585.756
101585.983
101586.224
101586.477
101586.744
101587.024
101587.316
101587.621
101587.937
101588.263
101588.599
101588.942
101589.291
101589.648
101590.009
101590.37
101590.726
101591.068
101591.401
101591.735
101591.988
101592.025
101591.849
101591.488
101591.23
101591.154
101591.078
101591.008
101590.765
101590.183
101589.523
101589.415
101589.434
101585.452
101585.454
101585.458
101585.463
101585.471
101585.481
101585.493
101585.507
101585.524
101585.543
101585.564
101585.587
101585.613
101585.641
101585.672
101585.705
101585.741
101585.78
101585.822
101585.866
101585.914
101585.965
101586.019
101586.077
101586.138
101586.203
101586.272
101586.345
101586.422
101586.504
101586.591
101586.682
101586.779
101586.88
101586.987
101587.1
101587.22
101587.346
101587.478
101587.618
101587.765
101587.919
101588.081
101588.252
101588.431
101588.619
101588.817
101589.026
101589.247
101589.482
101589.731
101589.992
101590.266
101590.551
101590.849
101591.159
101591.485
101591.823
101592.172
101592.535
101592.91
101593.294
101593.683
101594.067
101594.438
101594.785
101595.093
101595.357
101595.598
101595.835
101596.025
101596.037
101595.801
101595.332
101594.751
101594.409
101594.422
101594.53
101594.837
101594.899
101588.419
101588.421
101588.425
101588.431
101588.439
101588.449
101588.462
101588.476
101588.493
101588.512
101588.533
101588.557
101588.583
101588.612
101588.643
101588.676
101588.713
101588.752
101588.794
101588.839
101588.887
101588.938
101588.992
101589.05
101589.111
101589.176
101589.245
101589.318
101589.395
101589.477
101589.563
101589.653
101589.749
101589.849
101589.955
101590.067
101590.184
101590.308
101590.438
101590.575
101590.72
101590.872
101591.032
101591.201
101591.378
101591.564
101591.759
101591.965
101592.181
101592.407
101592.643
101592.889
101593.144
101593.409
101593.683
101593.97
101594.271
101594.583
101594.906
101595.239
101595.586
101595.95
101596.331
101596.728
101597.146
101597.59
101598.032
101598.429
101598.778
101599.055
101599.247
101599.37
101599.449
101599.499
101599.442
101599.099
101598.388
101598.051
101598.162
101598.04
101591.104
101591.106
101591.11
101591.117
101591.125
101591.135
101591.147
101591.162
101591.178
101591.197
101591.218
101591.241
101591.267
101591.295
101591.326
101591.359
101591.394
101591.433
101591.474
101591.518
101591.564
101591.614
101591.667
101591.724
101591.784
101591.847
101591.914
101591.985
101592.06
101592.139
101592.222
101592.309
101592.401
101592.498
101592.6
101592.708
101592.82
101592.939
101593.064
101593.196
101593.333
101593.479
101593.632
101593.793
101593.962
101594.14
101594.327
101594.523
101594.729
101594.945
101595.17
101595.406
101595.653
101595.911
101596.181
101596.466
101596.763
101597.072
101597.392
101597.724
101598.068
101598.425
101598.792
101599.166
101599.545
101599.917
101600.284
101600.642
101601.012
101601.443
101601.89
101602.253
101602.543
101602.741
101602.824
101602.854
101602.909
101602.884
101602.658
101602.044
101593.518
101593.52
101593.525
101593.531
101593.539
101593.548
101593.56
101593.574
101593.59
101593.608
101593.629
101593.651
101593.676
101593.702
101593.732
101593.763
101593.797
101593.834
101593.873
101593.915
101593.96
101594.007
101594.058
101594.112
101594.168
101594.228
101594.292
101594.359
101594.43
101594.505
101594.583
101594.666
101594.753
101594.844
101594.941
101595.042
101595.148
101595.259
101595.376
101595.499
101595.629
101595.765
101595.908
101596.059
101596.217
101596.383
101596.557
101596.741
101596.933
101597.136
101597.349
101597.573
101597.809
101598.058
101598.32
101598.596
101598.885
101599.188
101599.505
101599.835
101600.179
101600.537
101600.904
101601.279
101601.657
101602.03
101602.39
101602.746
101603.098
101603.445
101603.754
101604.04
101604.344
101604.716
101605.088
101605.344
101605.475
101605.364
101605.207
101605.224
101595.668
101595.67
101595.674
101595.679
101595.687
101595.696
101595.707
101595.72
101595.735
101595.752
101595.771
101595.792
101595.815
101595.84
101595.868
101595.897
101595.929
101595.963
101596
101596.039
101596.081
101596.125
101596.172
101596.222
101596.275
101596.331
101596.39
101596.452
101596.518
101596.587
101596.66
101596.736
101596.817
101596.901
101596.99
101597.083
101597.181
101597.284
101597.392
101597.506
101597.625
101597.751
101597.884
101598.022
101598.169
101598.323
101598.485
101598.655
101598.835
101599.025
101599.224
101599.435
101599.657
101599.891
101600.138
101600.397
101600.67
101600.957
101601.257
101601.571
101601.898
101602.24
101602.596
101602.965
101603.348
101603.743
101604.149
101604.561
101604.973
101605.345
101605.673
101606.001
101606.311
101606.567
101606.718
101606.814
101606.869
101606.909
101606.887
101606.931
101597.574
101597.576
101597.58
101597.585
101597.591
101597.6
101597.61
101597.621
101597.635
101597.65
101597.667
101597.687
101597.708
101597.73
101597.755
101597.782
101597.811
101597.843
101597.876
101597.912
101597.95
101597.99
101598.033
101598.079
101598.127
101598.178
101598.232
101598.289
101598.349
101598.411
101598.477
101598.547
101598.62
101598.697
101598.777
101598.862
101598.95
101599.043
101599.141
101599.244
101599.353
101599.468
101599.588
101599.715
101599.849
101599.99
101600.139
101600.295
101600.461
101600.636
101600.821
101601.016
101601.224
101601.443
101601.675
101601.92
101602.179
101602.453
101602.742
101603.046
101603.367
101603.704
101604.057
101604.429
101604.818
101605.225
101605.647
101606.085
101606.536
101606.994
101607.459
101607.898
101608.289
101608.582
101608.789
101608.972
101609.042
101609.027
101608.832
101608.71
101599.252
101599.253
101599.256
101599.26
101599.265
101599.272
101599.281
101599.291
101599.303
101599.316
101599.331
101599.348
101599.367
101599.387
101599.409
101599.433
101599.459
101599.487
101599.517
101599.549
101599.583
101599.619
101599.658
101599.698
101599.741
101599.787
101599.835
101599.885
101599.938
101599.994
101600.053
101600.114
101600.179
101600.246
101600.318
101600.393
101600.473
101600.556
101600.645
101600.739
101600.837
101600.94
101601.047
101601.161
101601.282
101601.41
101601.546
101601.689
101601.841
101602.002
101602.173
101602.355
101602.548
101602.754
101602.973
101603.206
101603.454
101603.718
101603.999
101604.298
101604.616
101604.953
101605.311
101605.689
101606.088
101606.509
101606.951
101607.413
101607.893
101608.388
101608.893
101609.402
101609.903
101610.389
101610.856
101611.227
101611.476
101611.561
101611.471
101611.377
101600.722
101600.722
101600.723
101600.725
101600.729
101600.734
101600.741
101600.749
101600.759
101600.77
101600.782
101600.796
101600.812
101600.829
101600.848
101600.868
101600.89
101600.914
101600.94
101600.967
101600.997
101601.028
101601.061
101601.097
101601.134
101601.174
101601.216
101601.261
101601.308
101601.357
101601.409
101601.464
101601.522
101601.582
101601.646
101601.714
101601.785
101601.859
101601.937
101602.017
101602.103
101602.195
101602.292
101602.395
101602.504
101602.62
101602.742
101602.872
101603.01
101603.156
101603.313
101603.483
101603.667
101603.864
101604.075
101604.301
101604.544
101604.803
101605.079
101605.373
101605.687
101606.022
101606.381
101606.765
101607.174
101607.609
101608.071
101608.559
101609.074
101609.612
101610.17
101610.742
101611.317
101611.885
101612.431
101612.931
101613.365
101613.697
101613.924
101613.916
101602.002
101602.001
101602
101602.001
101602.003
101602.006
101602.01
101602.016
101602.023
101602.032
101602.042
101602.053
101602.066
101602.08
101602.096
101602.113
101602.132
101602.153
101602.175
101602.198
101602.224
101602.251
101602.28
101602.311
101602.343
101602.377
101602.414
101602.452
101602.492
101602.535
101602.58
101602.627
101602.676
101602.729
101602.784
101602.841
101602.899
101602.963
101603.033
101603.107
101603.183
101603.263
101603.349
101603.441
101603.539
101603.645
101603.758
101603.88
101604.013
101604.156
101604.308
101604.467
101604.636
101604.818
101605.014
101605.224
101605.451
101605.693
101605.951
101606.227
101606.529
101606.877
101607.266
101607.678
101608.115
101608.578
101609.067
101609.581
101610.122
101610.69
101611.289
101611.912
101612.552
101613.199
101613.841
101614.461
101615.035
101615.53
101615.92
101616.137
101603.107
101603.103
101603.1
101603.098
101603.097
101603.098
101603.099
101603.102
101603.106
101603.112
101603.119
101603.127
101603.136
101603.147
101603.159
101603.172
101603.187
101603.203
101603.221
101603.24
101603.261
101603.284
101603.308
101603.333
101603.36
101603.389
101603.42
101603.452
101603.487
101603.524
101603.563
101603.603
101603.643
101603.686
101603.73
101603.78
101603.836
101603.892
101603.95
101604.011
101604.077
101604.146
101604.221
101604.301
101604.387
101604.478
101604.576
101604.681
101604.796
101604.921
101605.06
101605.213
101605.38
101605.563
101605.763
101605.983
101606.226
101606.496
101606.8
101607.132
101607.471
101607.795
101608.128
101608.499
101608.904
101609.341
101609.804
101610.297
101610.833
101611.461
101612.153
101612.857
101613.573
101614.298
101615.023
101615.74
101616.42
101617.028
101617.519
101617.846
101604.035
101604.029
101604.023
101604.018
101604.014
101604.012
101604.011
101604.01
101604.012
101604.014
101604.017
101604.022
101604.028
101604.036
101604.044
101604.055
101604.066
101604.079
101604.093
101604.109
101604.126
101604.145
101604.165
101604.187
101604.211
101604.236
101604.262
101604.289
101604.317
101604.347
101604.378
101604.412
101604.451
101604.491
101604.533
101604.576
101604.621
101604.669
101604.719
101604.773
101604.831
101604.893
101604.959
101605.03
101605.107
101605.191
101605.281
101605.379
101605.485
101605.601
101605.728