/*--------------------------------*- C++ -*----------------------------------*\
  =========                 |
  \\      /  F ield         | OpenFOAM: The Open Source CFD Toolbox
   \\    /   O peration     | Website:  https://openfoam.org
    \\  /    A nd           | Version:  8
     \\/     M anipulation  |
\*---------------------------------------------------------------------------*/
FoamFile
{
    version     2.0;
    format      ascii;
    class       volScalarField;
    location    "0.064";
    object      T;
}
// * * * * * * * * * * * * * * * * * * * * * * * * * * * * * * * * * * * * * //

dimensions      [0 0 0 1 0 0 0];

internalField   nonuniform List<scalar> 
42400
(
472.184928
470.536531
468.844377
467.107186
465.323724
463.492829
461.613423
459.684538
457.70534
455.67516
453.593524
451.460189
449.27518
447.038831
444.751833
442.415276
440.030695
437.600126
435.126148
432.611933
430.061293
427.478716
424.869406
422.239306
419.595117
416.944303
414.295079
411.656389
409.037858
406.449731
403.902788
401.408239
398.977597
396.622537
394.354736
392.185706
390.126623
388.188131
386.380185
384.711931
383.191587
381.826296
380.622017
379.583413
378.713823
378.01513
377.487673
377.130315
376.940435
376.913366
377.041612
377.320567
377.741463
378.295104
378.968086
379.744104
380.602239
381.518901
382.458276
383.394066
384.333247
385.10214
385.520839
385.496264
385.036828
384.199792
383.016521
381.389582
379.149676
376.342206
372.484755
367.565834
362.98049
357.512628
349.725527
342.374489
336.31325
330.578567
322.653511
317.134338
472.223152
470.652088
469.039397
467.383924
465.684565
463.940294
462.150175
460.313389
458.429253
456.497255
454.51708
452.488647
450.412144
448.28807
446.117277
443.901014
441.640975
439.339344
436.99884
434.622769
432.215059
429.780306
427.3238
424.851557
422.37033
419.887615
417.41164
414.951339
412.51631
410.116752
407.76338
405.467328
403.240025
401.093057
399.038016
397.086352
395.249229
393.537365
391.960844
390.528917
389.249816
388.130483
387.176399
386.391396
385.777571
385.335099
385.06208
384.954412
385.003886
385.20267
385.53931
385.998069
386.558844
387.198578
387.884811
388.58692
389.281424
389.940259
390.315761
390.322921
389.98738
389.205333
388.144933
386.718125
384.828596
382.295708
379.070617
375.069982
370.255891
365.041484
359.107934
352.01162
345.233726
338.985133
331.919803
324.498202
318.445189
312.971616
308.784408
304.261832
472.271364
470.797838
469.28537
467.732955
466.139656
464.504614
462.827073
461.106397
459.342096
457.533854
455.681557
453.785326
451.845555
449.862948
447.838558
445.773833
443.670653
441.531383
439.358907
437.156676
434.928747
432.679814
430.415242
428.141085
425.864102
423.591752
421.332184
419.094209
416.88725
414.721281
412.606744
410.554459
408.575512
406.68114
404.882565
403.190818
401.61653
400.169701
398.859411
397.693539
396.678491
395.81894
395.117557
394.574738
394.188158
393.95263
393.860844
393.897876
394.049142
394.293013
394.605826
394.960593
395.335088
395.686226
395.841221
395.759338
395.32959
394.513658
393.469665
392.121102
390.395
388.153731
385.303953
381.790236
377.579854
372.664436
367.121136
361.025189
354.3588
347.563749
340.871124
333.831639
326.89332
320.806783
315.392407
310.517761
306.367603
303.013816
300.569778
300.094293
472.326038
470.963119
469.564296
468.128737
466.655684
465.144472
463.594544
462.005476
460.376996
458.709011
457.00164
455.25524
453.470441
451.648184
449.789758
447.896837
445.97152
444.016375
442.034469
440.029413
438.00539
435.967186
433.920208
431.870499
429.824745
427.790262
425.774978
423.787399
421.836566
419.931969
418.083463
416.301141
414.595199
412.975758
411.452622
410.03504
408.731396
407.548917
406.493345
405.568597
404.776392
404.115795
403.582853
403.170892
402.868422
402.660229
402.530072
402.45946
402.433319
402.342726
402.133222
401.745702
401.111458
400.192294
399.077411
397.703878
396.005248
393.887372
391.256746
388.070072
384.293612
379.896634
374.866389
369.248475
363.133256
356.616388
349.821666
342.959837
336.106118
329.452951
323.326268
317.745326
312.718149
308.373669
304.953612
302.327993
300.448367
299.981379
299.874166
299.850815
472.383179
471.135858
469.855807
468.54237
467.194977
465.813162
464.396576
462.945014
461.458428
459.936961
458.380967
456.791046
455.168069
453.513215
451.828004
450.114327
448.374485
446.61122
444.827742
443.027761
441.215507
439.395748
437.5738
435.755526
433.947323
432.156098
430.389221
428.654472
426.959948
425.31395
423.72484
422.200865
420.749937
419.379383
418.095663
416.904055
415.808305
414.810264
413.909478
413.102802
412.384507
411.745347
411.173111
410.654653
410.146291
409.605642
408.988468
408.243322
407.310116
406.232779
404.97907
403.500507
401.743422
399.633464
397.094164
394.085904
390.575568
386.540018
381.97291
376.874861
371.275665
365.240553
358.83047
352.161633
345.375327
338.648188
332.098982
325.904948
320.189455
315.044766
310.588292
306.929547
304.097788
301.99844
300.498629
299.996359
299.886523
299.865109
299.85696
299.85706
472.438387
471.302754
470.137458
468.942013
467.716029
466.459224
465.171446
463.852685
462.5031
461.123036
459.713054
458.273949
456.806783
455.31291
453.794002
452.252075
450.689516
449.1091
447.514013
445.907861
444.294678
442.678921
441.065457
439.459535
437.866746
436.292957
434.744228
433.226699
431.746451
430.309332
428.920756
427.585461
426.307231
425.088589
423.930452
422.83179
421.789257
420.797105
419.846456
418.924951
418.00923
417.071184
416.078634
414.996296
413.816632
412.51857
411.067987
409.426581
407.548703
405.370604
402.843262
399.930603
396.601326
392.83192
388.609419
383.93129
378.806239
373.246676
367.290051
361.021294
354.539474
347.955862
341.359356
334.876144
328.655916
322.857855
317.58613
312.938717
308.985525
305.790159
303.3611
301.60786
300.4597
300.013222
299.908789
299.877782
299.864223
299.857615
299.851489
299.850229
472.486845
471.449243
470.384674
469.292794
468.173362
467.026244
465.851435
464.649069
463.419441
462.163024
460.880486
459.572713
458.240825
456.886198
455.510479
454.115596
452.703777
451.277547
449.839731
448.393446
446.942075
445.489242
444.03876
442.594568
441.160644
439.740896
438.339034
436.958402
435.601788
434.271212
432.967668
431.690846
430.438818
429.2078
427.99176
426.782091
425.566218
424.32766
423.047941
421.706323
420.284052
418.758478
417.102739
415.284437
413.261889
410.995055
408.449891
405.592973
402.395039
398.832191
394.887668
390.552952
385.829405
380.728536
375.270543
369.482673
363.398169
357.087458
350.641272
344.176011
337.812898
331.664909
325.840484
320.43152
315.555459
311.308911
307.765247
304.954494
302.850836
301.394936
300.436437
300.019429
299.91912
299.886712
299.873503
299.865982
299.859857
299.851823
299.841986
299.834559
472.523593
471.560334
470.57215
469.558798
468.520125
467.456079
466.366718
465.252227
464.112922
462.949268
461.761891
460.551585
459.319323
458.066265
456.793757
455.503334
454.196709
452.875757
451.542493
450.199033
448.847547
447.490194
446.129039
444.765953
443.40249
442.039744
440.678173
439.317409
437.956042
436.591397
435.219348
433.834064
432.427866
430.990705
429.510216
427.971448
426.357886
424.651302
422.828965
420.864417
418.73162
416.403238
413.851304
411.04799
407.966496
404.583935
400.881653
396.846503
392.472028
387.759479
382.718953
377.369489
371.739638
365.867696
359.785724
353.561377
347.276736
341.022979
334.904348
329.037651
323.544829
318.512862
314.041883
310.185896
306.998483
304.489224
302.63102
301.355325
300.569961
300.1165
299.975552
299.921691
299.895844
299.880761
299.868119
299.856629
299.846488
299.83786
299.832791
299.831674
472.544118
471.622384
470.676858
469.70733
468.713658
467.695776
466.653697
465.587521
464.497436
463.383726
462.24677
461.087038
459.905091
458.701565
457.477189
456.232748
454.969061
453.686947
452.38718
451.070439
449.73723
448.387807
447.022059
445.639387
444.238546
442.817495
441.373165
439.901168
438.395384
436.84752
435.249077
433.589799
431.857434
430.03798
428.115346
426.071616
423.887263
421.541413
419.012233
416.277493
413.31517
410.10398
406.62558
402.864726
398.810299
394.456292
389.802741
384.856595
379.632476
374.153368
368.451191
362.56584
356.542166
350.437568
344.333141
338.317485
332.484815
326.932964
321.761104
317.056057
312.906133
309.37288
306.489823
304.245916
302.588913
301.442663
300.712572
300.297106
300.082857
299.9959
299.944006
299.906879
299.878938
299.8581
299.843743
299.835245
299.832104
299.830376
299.828537
299.82924
472.545214
471.625684
470.682381
469.71504
468.723443
467.707416
466.666826
465.601588
464.511652
463.397006
462.257662
461.093647
459.90498
458.691659
457.453615
456.190703
454.902653
453.589014
452.249084
450.881824
449.485749
448.058798
446.598166
445.099852
443.557331
441.964413
440.314805
438.601109
436.815105
434.947923
432.987769
430.921453
428.734448
426.411021
423.934422
421.287165
418.451391
415.409284
412.143458
408.638546
404.881408
400.861892
396.573656
392.015013
387.189768
382.108003
376.786831
371.251241
365.53474
359.679877
353.737058
347.758673
341.818515
336.005427
330.413484
325.135327
320.260781
315.866051
312.017811
308.753862
306.100309
304.045832
302.538526
301.488875
300.801342
300.381722
300.14137
300.012693
299.933522
299.884673
299.856468
299.839787
299.83006
299.826824
299.825671
299.826726
299.827421
299.826757
299.821585
299.819992
472.527659
471.572641
470.592914
469.588157
468.558054
467.502294
466.420565
465.312545
464.177897
463.01626
461.827243
460.610409
459.364624
458.088025
456.778826
455.4355
454.056182
452.638605
451.180038
449.677212
448.126265
446.522672
444.861262
443.136452
441.343352
439.474905
437.522165
435.475139
433.32284
431.053303
428.653619
426.110061
423.408275
420.533512
417.470927
414.205872
410.724932
407.016259
403.0701
398.879489
394.440988
389.75548
384.828996
379.67355
374.307942
368.758502
363.059942
357.256131
351.40046
345.554815
339.782263
334.161112
328.77932
323.729383
319.094895
314.94627
311.340699
308.308853
305.849969
303.932451
302.505135
301.498281
300.828149
300.404144
300.148465
299.99904
299.91223
299.860817
299.847439
299.84104
299.835429
299.830067
299.827312
299.825547
299.823059
299.820184
299.818111
299.815963
299.814164
299.812693
472.490527
471.460416
470.403569
469.319525
468.207783
467.067784
465.898905
464.700143
463.469901
462.206889
460.909583
459.576185
458.2052
456.795407
455.344959
453.851106
452.31069
450.720087
449.075159
447.371199
445.602873
443.764131
441.848234
439.847687
437.754154
435.558467
433.250625
430.819834
428.254594
425.542817
422.671987
419.629364
416.402216
412.978456
409.347051
405.498401
401.424908
397.121622
392.586956
387.823479
382.838754
377.646227
372.266097
366.726115
361.062197
355.318996
349.550583
343.820119
338.198925
332.76062
327.58343
322.74598
318.323035
314.376939
310.954993
308.080414
305.754663
303.943424
302.584312
301.603998
300.926529
300.480057
300.199707
300.030456
299.931385
299.877202
299.855581
299.848373
299.843797
299.838982
299.833494
299.827667
299.822962
299.82028
299.818709
299.816673
299.816092
299.815969
299.814888
299.81403
472.435254
471.293341
470.121624
468.919418
467.685931
466.420243
465.120665
463.785995
462.415261
461.006776
459.558605
458.06853
456.534026
454.952214
453.319811
451.633087
449.887819
448.079234
446.201985
444.250113
442.217012
440.095366
437.877178
435.553765
433.115774
430.553229
427.855596
425.011895
422.010841
418.841019
415.49125
411.951033
408.210811
404.262442
400.099746
395.719149
391.120389
386.307317
381.288754
376.07938
370.700625
365.181474
359.559094
353.87911
348.195425
342.569992
337.072582
331.778074
326.762829
322.098371
317.851526
314.073999
310.801123
308.04538
305.798843
304.031074
302.692505
301.718052
301.034372
300.572295
300.272333
300.085433
299.97334
299.909274
299.875475
299.85949
299.850123
299.84113
299.834323
299.829227
299.825705
299.824518
299.822321
299.820331
299.819319
299.818078
299.816694
299.815786
299.815583
299.815873
472.366313
471.08497
469.770063
468.420693
467.035798
465.613942
464.153908
462.654036
461.112412
459.526834
457.894778
456.213361
454.479306
452.688907
450.837979
448.92184
446.935267
444.872457
442.727007
440.491907
438.159522
435.721608
433.16933
430.493311
427.683703
424.73029
421.622619
418.350204
414.902948
411.271334
407.446815
403.422275
399.192576
394.755193
390.110929
385.264708
380.226425
375.011821
369.643329
364.150831
358.572211
352.953601
347.349139
341.820003
336.432765
331.257316
326.365755
321.827533
317.701153
314.031529
310.850695
308.167664
305.971203
304.224308
302.876733
301.871682
301.150074
300.652903
300.32374
300.113753
299.985281
299.911047
299.869233
299.848343
299.838594
299.832459
299.827901
299.82709
299.826041
299.825372
299.82511
299.82453
299.822775
299.820462
299.819429
299.818008
299.815072
299.809623
299.808722
299.81152
472.286894
470.844942
469.365135
467.84637
466.28732
464.686418
463.042015
461.352055
459.61417
457.825636
455.983348
454.083774
452.122931
450.096346
447.999022
445.825415
443.569413
441.224325
438.782876
436.237219
433.578961
430.799213
427.888657
424.837658
421.636388
418.27513
414.744489
411.035685
407.140939
403.053931
398.77034
394.288476
389.609979
384.740599
379.69101
374.477643
369.123467
363.65866
358.121067
352.556326
347.017556
341.564443
336.261599
331.176053
326.373967
321.916931
317.859434
314.242841
311.09428
308.422794
306.221783
304.460605
303.092671
302.061099
301.306388
300.771987
300.406998
300.168796
300.020698
299.932376
299.881487
299.852893
299.840687
299.835493
299.832274
299.830162
299.828532
299.827373
299.82597
299.824706
299.822801
299.820853
299.818171
299.814678
299.811019
299.808244
299.803415
299.797814
299.795611
299.797377
472.198984
470.579257
468.916944
467.210732
465.459022
463.660064
461.811817
459.911825
457.957259
455.944878
453.870997
451.731452
449.521572
447.236153
444.869442
442.415118
439.866299
437.215549
434.454911
431.575953
428.569847
425.427471
422.139576
418.697028
415.091022
411.313386
407.356966
403.216077
398.887033
394.368759
389.663471
384.777418
379.721655
374.512821
369.173848
363.734549
358.231982
352.710491
347.221324
341.821684
336.573182
331.539518
326.783533
322.363967
318.331554
314.725772
311.570614
308.874108
306.628918
304.809209
303.377174
302.285184
301.479062
300.903409
300.506115
300.241527
300.072008
299.967473
299.905924
299.871627
299.853559
299.844344
299.838223
299.833847
299.830582
299.827907
299.825311
299.822722
299.819635
299.815156
299.811328
299.807713
299.804121
299.80049
299.797642
299.795594
299.797921
299.796978
299.791239
299.788415
472.103813
470.291625
468.431738
466.522651
464.56259
462.549483
460.480859
458.35385
456.165154
453.911006
451.587145
449.188791
446.71062
444.146759
441.490779
438.735712
435.874077
432.897935
429.798961
426.568556
423.198024
419.678766
416.002512
412.16163
408.149491
403.960918
399.59269
395.044135
390.31778
385.420051
380.362004
375.160047
369.836596
364.420599
358.94785
353.460981
348.009045
342.64659
337.432166
332.426211
327.688506
323.274527
319.232287
315.599985
312.402284
309.649218
307.333468
305.430049
303.904166
302.713767
301.812106
301.151528
300.68457
300.366254
300.156899
300.024285
299.943414
299.895708
299.867655
299.85089
299.840689
299.834318
299.830994
299.828753
299.826637
299.82455
299.822108
299.819031
299.816149
299.812216
299.806808
299.802866
299.800107
299.798057
299.796611
299.794616
299.795867
299.802052
299.797696
299.789304
472.002412
469.985164
467.914789
465.789589
463.607519
461.366155
459.062656
456.69373
454.255609
451.744014
449.154139
446.480634
443.717608
440.858633
437.896777
434.824654
431.634496
428.318262
424.867812
421.275079
417.532305
413.632339
409.568992
405.337456
400.934798
396.360513
391.617139
386.710924
381.652503
376.457579
371.147533
365.749916
360.298734
354.834449
349.403587
344.057871
338.852816
333.845751
329.09333
324.648717
320.559026
316.860795
313.57732
310.720726
308.287935
306.262157
304.61459
303.307125
302.295323
301.532329
300.973152
300.576056
300.303821
300.123922
300.008991
299.937656
299.894324
299.868296
299.852577
299.842652
299.837065
299.833235
299.831079
299.828957
299.826903
299.824866
299.822348
299.819426
299.816265
299.811972
299.806731
299.802295
299.799503
299.797519
299.797348
299.794354
299.793849
299.7969
299.809042
299.812053
471.895706
469.662663
467.370758
465.018065
462.602265
460.120612
457.569898
454.946424
452.245979
449.463825
446.594684
443.632756
440.571733
437.404852
434.124961
430.724622
427.196261
423.532343
419.72559
415.769259
411.657484
407.385661
402.950917
398.352624
393.592977
388.677616
383.616266
378.423375
373.118694
367.72775
362.282144
356.819583
351.383565
346.022644
340.789196
335.737686
330.922415
326.39486
322.200865
318.378145
314.953045
311.93975
309.341983
307.150142
305.342371
303.886282
302.742141
301.866872
301.216319
300.747021
300.418678
300.196592
300.052044
299.961948
299.908091
299.876986
299.859561
299.849886
299.844386
299.841976
299.83751
299.83336
299.830208
299.827474
299.825103
299.822361
299.818925
299.815663
299.811638
299.805888
299.799634
299.795155
299.793117
299.793306
299.797321
299.800703
299.797251
299.792658
299.804271
299.814504
471.784732
469.327262
466.804962
464.21568
461.556828
458.825352
456.017706
453.129829
450.157139
447.094535
443.936408
440.676684
437.308884
433.826209
430.221676
426.488277
422.619178
418.607978
414.449014
410.13773
405.671096
401.048095
396.270256
391.342239
386.272435
381.073575
375.763293
370.3646
364.90621
359.422638
353.954002
348.545449
343.246146
338.10783
333.182921
328.522307
324.172847
320.174703
316.55932
313.347692
310.549355
308.161004
306.167103
304.54096
303.247517
302.245614
301.490806
300.938593
300.547455
300.280189
300.103965
299.991954
299.923811
299.884231
299.862411
299.85112
299.845628
299.842852
299.840961
299.839015
299.836105
299.832567
299.828613
299.82494
299.821083
299.816853
299.811888
299.805842
299.80164
299.79905
299.796368
299.792066
299.788744
299.788224
299.791866
299.800535
299.808406
299.809973
299.805106
299.810956
472.589834
471.760519
470.909642
470.036846
469.141768
468.224048
467.283316
466.319201
465.331325
464.319302
463.28274
462.221239
461.134391
460.021776
458.882965
457.717514
456.524961
455.304825
454.056599
452.779747
451.473693
450.137816
448.771439
447.373818
445.944127
444.481443
442.984724
441.452787
439.884282
438.277656
436.631134
434.942665
433.209881
431.430043
429.59998
427.716025
425.77393
423.768693
421.694485
419.54451
417.31085
414.98455
412.555546
410.012579
407.343238
404.534084
401.570877
398.438956
395.123811
391.611911
387.891844
383.955843
379.801764
375.435553
370.874204
366.149082
361.309312
356.42464
351.586947
346.909229
342.520998
338.55778
335.143662
332.370475
330.276907
328.837295
327.963953
327.529616
327.435424
327.505014
327.664151
327.84221
328.011831
328.164451
328.317039
328.473864
328.65765
328.871319
329.078482
329.230725
472.583528
471.741463
470.8775
469.991273
469.082414
468.150553
467.195317
466.21633
465.213211
464.185579
463.133049
462.055237
460.951757
459.822224
458.666254
457.483462
456.273463
455.035873
453.7703
452.476348
451.153609
449.80166
448.420052
447.008306
445.565897
444.092242
442.586683
441.048469
439.476733
437.870469
436.228491
434.549412
432.831613
431.073195
429.271977
427.425386
425.530372
423.583334
421.580037
419.51555
417.384172
415.179166
412.892498
410.514684
408.034885
405.441307
402.720907
399.859591
396.84255
393.654773
390.281816
386.710909
382.932451
378.942
374.742768
370.348656
365.787684
361.105508
356.368429
351.664947
347.104478
342.811118
338.913017
335.525951
332.725593
330.554422
329.009607
328.03597
327.529228
327.383492
327.421428
327.613982
327.850805
328.105941
328.374546
328.67793
328.97622
329.327128
329.693705
330.015552
472.574358
471.713745
470.830741
469.924963
468.996027
468.04355
467.067143
466.066418
465.040988
463.990466
462.914466
461.812613
460.684535
459.529873
458.348279
457.139419
455.902977
454.638651
453.346158
452.025235
450.675636
449.297131
447.889508
446.452567
444.986113
443.489953
441.963885
440.407679
438.821066
437.203704
435.555156
433.874842
432.161987
430.415568
428.634209
426.816154
424.959212
423.060673
421.117221
419.124857
417.079621
414.977089
412.811551
410.576419
408.263952
405.86455
403.366715
400.75781
398.024339
395.151764
392.124976
388.928947
385.549727
381.975848
378.200134
374.222205
370.051532
365.710852
361.239782
356.698163
352.167957
347.751841
343.567968
339.723285
336.314631
333.423603
331.105282
329.378585
328.223465
327.577142
327.369047
327.389853
327.578698
327.87861
328.241555
328.643072
329.095876
329.532772
329.937709
330.410138
472.562342
471.677424
470.769466
469.838061
468.882804
467.903291
466.899116
465.869875
464.81517
463.734608
462.627807
461.494399
460.334034
459.146388
457.931159
456.68808
455.416918
454.117476
452.7896
451.43318
450.048148
448.634483
447.19221
445.721395
444.222148
442.694612
441.138958
439.555379
437.944067
436.305205
434.638939
432.94535
431.224417
429.47598
427.699688
425.894951
424.060881
422.196227
420.299303
418.367905
416.398454
414.386307
412.32637
410.212578
408.040324
405.80389
403.495836
401.106861
398.625368
396.037175
393.328879
390.48584
387.493132
384.336398
381.002917
377.483368
373.774031
369.879473
365.815756
361.61417
357.324839
353.018974
348.789018
344.724716
340.922052
337.477036
334.475718
331.983809
330.03896
328.644114
327.765573
327.383661
327.392303
327.549064
327.883868
328.349225
328.882592
329.448069
330.081318
330.706383
472.547477
471.632495
470.693672
469.730578
468.742785
467.729868
466.691405
465.62698
464.536189
463.418639
462.273958
461.101797
459.901839
458.6738
457.41744
456.132564
454.819031
453.476757
452.105718
450.70596
449.277595
447.820808
446.335856
444.823071
443.282855
441.715682
440.122087
438.502663
436.85805
435.188917
433.495949
431.77982
430.041162
428.280535
426.498383
424.694984
422.870397
421.024395
419.156385
417.265333
415.349646
413.407111
411.434856
409.429316
407.383831
405.290965
403.142971
400.935129
398.662075
396.315704
393.883622
391.351278
388.703858
385.927073
383.006628
379.929451
376.685058
373.267369
369.677113
365.92486
362.034415
358.046139
354.019689
350.02166
346.125623
342.41439
338.974339
335.889599
333.232185
331.055461
329.389174
328.240401
327.585996
327.465342
327.549012
327.806498
328.325179
329.032144
329.841364
330.677092
472.529667
471.578664
470.602866
469.601818
468.57507
467.522177
466.442701
465.336216
464.202315
463.040608
461.850738
460.632378
459.385246
458.109107
456.803784
455.469163
454.105199
452.711926
451.289462
449.83801
448.357871
446.849441
445.313217
443.7498
442.159889
440.544288
438.903895
437.239701
435.552776
433.844262
432.115354
430.367276
428.60126
426.818509
425.020164
423.207259
421.380668
419.541052
417.688784
415.823893
413.94596
412.054045
410.146576
408.221262
406.274977
404.303771
402.302971
400.263349
398.174565
396.027061
393.821303
391.549868
389.201232
386.76116
384.212293
381.540944
378.733872
375.779629
372.670315
369.403637
365.985442
362.432552
358.775229
355.058769
351.331611
347.653564
344.093499
340.726732
337.625032
334.857189
332.481648
330.544243
329.067061
328.042555
327.564461
327.604148
327.775576
328.15752
328.889521
329.931158
472.508703
471.515303
470.495988
469.450275
468.377687
467.277758
466.150034
464.994078
463.809478
462.59585
461.352849
460.080174
458.777581
457.444885
456.081976
454.688823
453.265485
451.812118
450.328984
448.816456
447.275025
445.705308
444.108047
442.484116
440.834522
439.1604
437.463017
435.74376
434.00413
432.245735
430.470268
428.679491
426.875207
425.059232
423.233358
421.399315
419.558718
417.713019
415.863435
414.0109
412.155975
410.298791
408.438933
406.57537
404.706345
402.829305
400.940826
399.036504
397.111104
395.158903
393.163761
391.11577
389.004265
386.837309
384.60466
382.291148
379.87964
377.353466
374.701007
371.912973
368.984346
365.916571
362.719767
359.415102
356.035689
352.619992
349.215406
345.875517
342.657114
339.620925
336.826627
334.331501
332.179128
330.408896
329.05305
328.09057
327.707767
327.816774
328.037652
328.577402
472.484305
471.441561
470.371597
469.273894
468.147946
466.993258
465.809356
464.595788
463.352135
462.078013
460.773089
459.437085
458.069791
456.671075
455.240892
453.779294
452.286445
450.762625
449.208242
447.623841
446.010111
444.36789
442.698175
441.00212
439.281042
437.53642
435.769895
433.983261
432.178457
430.357562
428.522776
426.676402
424.820815
422.958439
421.091709
419.22303
417.354729
415.489004
413.627861
411.773055
409.926007
408.087767
406.258889
404.43941
402.628689
400.825382
399.027319
397.23147
395.433879
393.629593
391.812522
389.975982
388.112991
386.19985
384.227359
382.184877
380.091573
377.932675
375.691286
373.348123
370.890002
368.309964
365.605706
362.781555
359.850409
356.835296
353.764785
350.674791
347.608624
344.613844
341.738733
339.028727
336.52909
334.280033
332.316414
330.666746
329.355171
328.39374
327.975948
328.156676
472.456211
471.356647
470.228353
469.070767
467.883342
466.665549
465.416883
464.136868
462.825069
461.481098
460.104624
458.695385
457.253201
455.777983
454.269746
452.728625
451.15488
449.548914
447.911281
446.242698
444.544051
442.816407
441.061019
439.279331
437.472983
435.643808
433.793836
431.925286
430.040556
428.142221
426.233009
424.315785
422.393522
420.469271
418.546126
416.627176
414.715463
412.813923
410.925328
409.052218
407.19683
405.36103
403.546223
401.753319
399.982602
398.233723
396.505552
394.796127
393.102619
391.421288
389.747442
388.075404
386.398453
384.708638
382.998086
381.259366
379.460212
377.591961
375.648995
373.662464
371.613738
369.485575
367.258958
364.925644
362.48562
359.945224
357.318492
354.626611
351.896553
349.160685
346.454443
343.814875
341.284557
338.897269
336.686656
334.683277
332.905059
331.36884
330.112183
329.090297
472.42429
471.260165
470.065583
468.839928
467.582598
466.293016
464.970634
463.614941
462.225471
460.801818
459.343644
457.850689
456.322791
454.759895
453.162067
451.529511
449.862582
448.161797
446.427853
444.661635
442.86423
441.036937
439.181274
437.298986
435.39205
433.462676
431.513308
429.546619
427.5655
425.573056
423.572585
421.567555
419.561578
417.558374
415.561733
413.575465
411.603348
409.649067
407.716152
405.807909
403.927344
402.077092
400.259326
398.475703
396.727264
395.014407
393.336821
391.693369
390.082065
388.500054
386.943596
385.408048
383.887862
382.376587
380.86692
379.350693
377.818717
376.263537
374.675182
373.015668
371.279431
369.459026
367.609804
365.709803
363.742887
361.693574
359.555929
357.337633
355.052706
352.720711
350.365309
348.01329
345.694027
343.436178
341.267783
339.21514
337.298296
335.539026
333.956243
332.543639
472.388691
471.152557
469.88403
468.582421
467.247059
465.877304
464.472546
463.032223
461.555826
460.042912
458.493119
456.906177
455.281928
453.620334
451.921504
450.1857
448.41336
446.605115
444.761798
442.884468
440.974416
439.033181
437.062562
435.064624
433.041706
430.996423
428.931667
426.850603
424.75666
422.653516
420.545086
418.435488
416.329019
414.23011
412.143288
410.073117
408.024143
406.00082
404.007444
402.048068
400.126429
398.245851
396.409176
394.618691
392.876055
391.182213
389.537412
387.941074
386.391772
384.887232
383.424324
381.999078
380.606687
379.241557
377.897333
376.566944
375.242663
373.916216
372.578621
371.220079
369.833912
368.416412
366.916036
365.333427
363.661997
361.982047
360.273381
358.522443
356.719916
354.857848
352.949992
351.013708
349.068734
347.136232
345.237616
343.393475
341.623091
339.942665
338.364621
336.858294
472.349967
471.035499
469.686518
468.302246
466.881927
465.424838
463.930295
462.397666
460.82638
459.215945
457.565957
455.876121
454.146267
452.376366
450.566554
448.717143
446.82865
444.901809
442.937595
440.937238
438.902243
436.834403
434.735814
432.608888
430.456354
428.281272
426.087026
423.877325
421.656192
419.427944
417.197178
414.968734
412.747661
410.53917
408.348585
406.181268
404.042552
401.937659
399.87162
397.849194
395.874773
393.95229
392.085124
390.276059
388.527135
386.83961
385.213974
383.649841
382.14596
380.700232
379.309732
377.970748
376.678808
375.428751
374.214793
373.030605
371.869386
370.723946
369.586786
368.45019
367.30638
366.147268
364.963886
363.753356
362.519858
361.200232
359.805755
358.334235
356.842417
355.363636
353.883415
352.393793
350.886083
349.368391
347.857565
346.370627
344.922873
343.525209
342.173633
340.790706
472.309181
470.912201
469.478459
468.007071
466.497181
464.947967
463.358652
461.728519
460.05692
458.343295
456.587189
454.788266
452.946333
451.061362
449.133505
447.163125
445.150815
443.097417
441.004054
438.872144
436.703422
434.499963
432.264193
429.998907
427.707277
425.39286
423.059596
420.711805
418.354179
415.991758
413.629905
411.274262
408.930703
406.605276
404.304142
402.033497
399.799492
397.608137
395.465206
393.376126
391.345869
389.378845
387.478795
385.648789
383.891018
382.206782
380.596482
379.05956
377.594517
376.198946
374.869582
373.602387
372.392624
371.234953
370.123528
369.052102
368.014132
367.002885
366.011571
365.033472
364.062121
363.091366
362.115141
361.127953
360.124653
359.098872
358.052937
356.99841
355.900358
354.747093
353.557158
352.340465
351.173175
350.029346
348.896999
347.791169
346.724848
345.70198
344.6979
343.594148
472.26804
470.787826
469.268567
467.709264
466.108949
464.466689
462.781604
461.052881
459.279784
457.461678
455.598043
453.688498
451.732823
449.730981
447.683148
445.589735
443.451419
441.269165
439.044261
436.778334
434.473385
432.131804
429.756394
427.350386
424.917451
422.461706
419.987711
417.500462
415.005373
412.508254
410.015274
407.53292
405.067943
402.627283
400.217997
397.847159
395.521766
393.24861
391.034162
388.884446
386.804916
384.800339
382.874673
381.031034
379.271552
377.597336
376.008448
374.503904
373.081703
371.738888
370.471624
369.275302