/*--------------------------------*- C++ -*----------------------------------*\
  =========                 |
  \\      /  F ield         | OpenFOAM: The Open Source CFD Toolbox
   \\    /   O peration     | Website:  https://openfoam.org
    \\  /    A nd           | Version:  8
     \\/     M anipulation  |
\*---------------------------------------------------------------------------*/
FoamFile
{
    version     2.0;
    format      ascii;
    class       volScalarField;
    location    "0.08";
    object      T;
}
// * * * * * * * * * * * * * * * * * * * * * * * * * * * * * * * * * * * * * //

dimensions      [0 0 0 1 0 0 0];

internalField   nonuniform List<scalar> 
42400
(
472.189457
470.550414
468.86824
467.141908
465.370436
463.552917
461.688534
459.77659
457.816534
455.807994
453.750805
451.645051
449.491099
447.289643
445.041744
442.748882
440.412996
438.036538
435.622516
433.174542
430.696872
428.194442
425.6729
423.13862
420.598708
418.060993
415.534001
413.026901
410.549442
408.111857
405.724749
403.398954
401.145389
398.974883
396.898004
394.924873
393.065004
391.327167
389.719262
388.24822
386.919907
385.739081
384.709379
383.833319
383.112377
382.547035
382.136803
381.880235
381.776507
381.819486
382.00563
382.328151
382.777814
383.342038
384.00644
384.750988
385.548133
386.360798
387.16918
387.995409
388.525905
388.703379
388.525821
387.852657
386.953145
385.748507
384.177227
382.07838
379.430186
376.253292
372.343494
367.863389
363.308625
357.799957
351.315369
345.8101
340.321525
334.366552
325.856535
320.694489
472.22548
470.659258
469.05179
467.40208
465.709178
463.972209
462.19039
460.363058
458.4897
456.569978
454.603767
452.591187
450.532641
448.428858
446.280937
444.090387
441.859182
439.589801
437.285282
434.949262
432.586027
430.200544
427.798493
425.386291
422.971102
420.560829
418.164096
415.790209
413.449096
411.151223
408.907491
406.729108
404.627446
402.613884
400.699655
398.895662
397.212288
395.659197
394.245129
392.977723
391.863328
390.906903
390.111893
389.480117
389.011675
388.704715
388.555312
388.558139
388.702037
388.980569
389.375396
389.867229
390.4307
391.029496
391.633153
392.221687
392.747428
392.96877
392.864488
392.260189
391.449983
390.365497
388.939216
387.062128
384.652343
381.688987
378.181863
374.129913
369.541223
364.574873
359.068653
352.997538
347.066915
341.041421
334.457668
327.886486
322.381639
316.875383
311.70837
307.174496
472.271626
470.798701
469.286975
467.735507
466.14341
464.509877
462.834194
461.115775
459.354186
457.549171
455.70069
453.808953
451.874452
449.898009
447.880811
445.824459
443.731016
441.603045
439.443665
437.256593
435.046185
432.817473
430.576202
428.328843
426.082614
423.845468
421.626079
419.433802
417.278615
415.171043
413.122064
411.142988
409.245312
407.440541
405.739991
404.154545
402.6944
401.368787
400.185728
399.151761
398.271666
397.548202
396.981739
396.57
396.308235
396.187914
396.197899
396.322569
396.54254
396.82656
397.144757
397.471619
397.797519
397.902244
397.772027
397.287835
396.438661
395.373419
394.022724
392.313573
390.119553
387.399494
384.131668
380.328227
376.017647
371.216527
366.00263
360.435911
354.532842
348.467591
342.315603
335.94994
329.702962
323.910611
318.410572
313.14203
308.586308
304.497972
301.474812
300.079093
472.324526
470.958564
469.556626
468.117858
466.641467
465.126745
463.57309
461.980033
460.347263
458.67466
456.962325
455.210612
453.420168
451.591968
449.727362
447.82811
445.896433
443.935052
441.947238
439.936846
437.908363
435.866933
433.818389
431.769266
429.726805
427.698949
425.694319
423.722162
421.792285
419.914961
418.100803
416.360604
414.705138
413.144922
411.689941
410.349365
409.131221
408.042043
407.086524
406.267084
405.583497
405.032836
404.608191
404.298258
404.087079
403.954359
403.877248
403.833719
403.805244
403.652356
403.30621
402.713507
401.798495
400.709548
399.381659
397.746945
395.712409
393.202893
390.18747
386.650768
382.596669
378.059532
373.078508
367.708136
362.014312
356.041564
349.90205
343.703313
337.509487
331.414079
325.606356
320.08434
314.963807
310.352114
306.540894
303.295755
300.800291
300.093412
299.931467
299.880046
472.380357
471.1273
469.841282
468.52156
467.167467
465.778428
464.353988
462.893833
461.397819
459.866003
458.29867
456.696369
455.059944
453.390575
451.689815
449.959627
448.202427
446.421118
444.619136
442.800475
440.969722
439.132079
437.293375
435.460066
433.639224
431.838502
430.066079
428.330579
426.640959
425.006362
423.435929
421.938577
420.522735
419.196045
417.965015
416.83466
415.808067
414.885972
414.066513
413.344327
412.710812
412.154968
411.66293
411.220367
410.748237
410.206737
409.549585
408.724287
407.675009
406.481633
405.089666
403.442665
401.470427
399.090669
396.26723
392.972675
389.19321
384.933075
380.214707
375.090789
369.618977
363.856535
357.854292
351.699715
345.479008
339.273927
333.192554
327.352332
321.847449
316.755362
312.207401
308.257495
305.062643
302.446489
300.552213
300.004999
299.884485
299.85788
299.852884
299.857763
472.434854
471.292024
470.119212
468.915818
467.681322
466.415308
465.117491
463.787735
462.426083
461.032783
459.608318
458.153434
456.669172
455.1569
453.618347
452.055632
450.471297
448.868334
447.250211
445.620889
443.98483
442.347
440.712852
439.088295
437.479643
435.893538
434.336842
432.8165
431.339371
429.912017
428.540452
427.22986
425.984277
424.806231
423.696373
422.653264
421.672904
420.748724
419.868613
419.004794
418.130638
417.214657
416.219806
415.103833
413.892286
412.551293
411.040663
409.315096
407.316828
404.984056
402.280759
399.17573
395.645943
391.680176
387.2799
382.461198
377.256773
371.720573
365.921538
359.92587
353.796359
347.61369
341.436799
335.36727
329.504715
323.949871
318.782296
314.110273
310.021775
306.612303
303.925956
301.867324
300.43315
300.014419
299.916038
299.886717
299.866456
299.860849
299.853255
299.848026
472.483247
471.438316
470.366095
469.266133
468.138066
466.981642
465.796738
464.583385
463.341789
462.072356
460.775715
459.452739
458.104577
456.732669
455.338771
453.924975
452.493723
451.047814
449.590411
448.125027
446.65551
445.186002
443.720889
442.26472
440.822105
439.397588
437.995483
436.619681
435.273423
433.959034
432.677625
431.428773
430.210256
429.017608
427.842893
426.672727
425.490139
424.274802
423.007164
421.678383
420.265056
418.740228
417.072742
415.225353
413.149413
410.807524
408.166785
405.196322
401.870101
398.169166
394.082992
389.611091
384.764059
379.564987
374.051545
368.275684
362.311885
356.220099
350.063943
343.924493
337.874767
332.01008
326.408651
321.158858
316.354631
312.091307
308.440178
305.468955
303.182828
301.569161
300.455552
300.036661
299.936303
299.899848
299.885118
299.873541
299.859748
299.84375
299.828336
299.814708
472.520501
471.550956
470.556235
469.536023
468.490094
467.418322
466.320705
465.197378
464.048629
462.874919
461.676895
460.455406
459.211514
457.946505
456.661892
455.359419
454.041052
452.708963
451.365505
450.013172
448.654541
447.292199
445.928648
444.56618
443.206734
441.85172
440.501813
439.156728
437.814972
436.473609
435.127951
433.771112
432.394177
430.985357
429.530869
428.01655
426.425105
424.735626
422.922538
420.954866
418.805026
416.444476
413.844743
410.978866
407.82168
404.351813
400.552963
396.415183
391.936105
387.122007
381.988655
376.562304
370.880301
364.992075
358.969057
352.877792
346.783126
340.755195
334.866948
329.211058
323.871938
318.93667
314.489073
310.602478
307.343678
304.743319
302.78863
301.426913
300.577166
300.1018
299.977304
299.934568
299.910555
299.890686
299.871298
299.852665
299.832199
299.815587
299.803252
299.799217
472.541946
471.615819
470.665776
469.691596
468.693133
467.67032
466.623186
465.551861
464.456585
463.337716
462.195732
461.031234
459.844942
458.637687
457.410399
456.164079
454.899774
453.618528
452.321328
451.00912
449.68267
448.342463
446.988574
445.620518
444.237068
442.836038
441.414011
439.965955
438.485347
436.964471
435.393775
433.761888
432.05507
430.257652
428.351954
426.318487
424.136181
421.782781
419.235406
416.471321
413.468957
410.208092
406.670972
402.84344
398.715933
394.284454
389.551503
384.526962
379.228992
373.684567
367.930245
362.01352
355.99522
349.950101
343.944779
338.051085
332.350584
326.922482
321.846029
317.206737
313.079852
309.526589
306.597462
304.29661
302.591863
301.417284
300.676479
300.262457
300.059783
299.990078
299.946575
299.909417
299.870592
299.841713
299.82255
299.809955
299.80582
299.804903
299.801617
299.799152
472.54423
471.62275
470.677523
469.708343
468.715052
467.697547
466.655777
465.589749
464.49952
463.385198
462.246925
461.084873
459.899217
458.690111
457.457661
456.201895
454.922718
453.619855
452.292768
450.940473
449.561463
448.153548
446.713653
445.237566
443.719612
442.153521
440.532479
438.848699
437.092966
435.254039
433.319141
431.274003
429.102974
426.789221
424.315012
421.662114
418.812282
415.747922
412.452386
408.910536
405.109717
401.040536
396.697655
392.080608
387.194613
382.0514
376.670026
371.077587
365.310073
359.412611
353.441187
347.466811
341.566109
335.811935
330.283623
325.063354
320.23578
315.869794
312.028283
308.762
306.101266
304.030673
302.503029
301.444435
300.761385
300.35487
300.1301
300.008901
299.937172
299.880509
299.843205
299.817853
299.812648
299.810016
299.807749
299.805245
299.803869
299.803202
299.800723
299.798025
472.528051
471.573887
470.595165
469.591662
468.563169
467.509487
466.430421
465.325766
464.195301
463.038772
461.85588
460.646257
459.409438
458.144086
456.848326
455.520306
454.158252
452.759965
451.322755
449.843361
448.317887
446.741775
445.109782
443.41599
441.654034
439.816046
437.892452
435.872568
433.744607
431.495728
429.112167
426.57942
423.882499
421.006269
417.93588
414.657128
411.156644
407.422725
403.445938
399.219798
394.741472
390.012539
385.039786
379.836045
374.421064
368.822377
363.075995
357.226846
351.32936
345.447196
339.658222
334.0428
328.67996
323.650714
319.030526
314.888356
311.281245
308.246265
305.790836
303.885031
302.475082
301.485503
300.827706
300.413613
300.164192
300.015824
299.920911
299.862317
299.82965
299.820297
299.815168
299.813649
299.811277
299.8088
299.806747
299.804286
299.800985
299.798215
299.796805
299.7958
472.492319
471.465911
470.413043
469.333393
468.226611
467.092293
465.92997
464.738996
463.517923
462.265655
460.980867
459.661965
458.307045
456.914574
455.482975
454.009946
452.492298
450.926314
449.307706
447.631536
445.892144
444.083125
442.197264
440.226467
438.16177
435.993322
433.710414
431.30155
428.75457
426.056814
423.195347
420.157248
416.929975
413.501369
409.860326
405.997293
401.904824
397.578207
393.016153
388.221561
383.202335
377.972258
372.551896
366.96949
361.261812
355.474676
349.662906
343.889744
338.226724
332.751935
327.549995
322.697102
318.262802
314.310023
310.883214
308.009555
305.684328
303.874425
302.524202
301.560026
300.902129
300.472269
300.201548
300.034694
299.933508
299.869935
299.841967
299.82839
299.823538
299.818699
299.814286
299.81021
299.805475
299.801174
299.798704
299.797769
299.798647
299.797515
299.797008
299.79628
472.438053
471.301895
470.136298
468.940749
467.714637
466.457227
465.167159
463.843244
462.484718
461.090042
459.657396
458.18465
456.66932
455.108531
453.498969
451.836823
450.117732
448.336722
446.488185
444.565827
442.562618
440.470796
438.281854
435.986558
433.574985
431.036597
428.360342
425.534807
422.54841
419.389664
416.047286
412.510565
408.769811
404.816819
400.645409
396.252039
391.636509
386.802728
381.759565
376.521735
371.110705
365.555548
359.893683
354.171411
348.444125
342.775573
337.236318
331.901023
326.846979
322.149586
317.875634
314.076841
310.788347
308.028247
305.787145
304.029665
302.701488
301.734935
301.056455
300.596025
300.293596
300.101679
299.983263
299.91257
299.871125
299.849404
299.835718
299.823856
299.81465
299.807175
299.801684
299.798337
299.796795
299.796022
299.795809
299.796695
299.799789
299.800832
299.799
299.798381
472.369954
471.096077
469.789059
468.448191
467.072604
465.66113
464.212684
462.72578
461.198655
459.629225
458.015051
456.353294
454.640679
452.873446
451.047311
449.157436
447.198383
445.164076
443.04779
440.842134
438.539058
436.129864
433.605255
430.955395
428.170016
425.238544
422.150294
418.894635
415.461175
411.840152
408.022817
404.001888
399.77209
395.330768
390.67859
385.820326
380.765687
375.530202
370.136082
364.613004
358.998737
353.339479
347.68979
342.112014
336.675
331.451609
326.515269
321.935224
317.772958
314.075704
310.875804
308.183959
305.985603
304.244638
302.909421
301.917389
301.203486
300.706283
300.372566
300.155196
300.017742
299.934979
299.886366
299.857577
299.838431
299.823628
299.812523
299.807611
299.803087
299.800544
299.799118
299.797908
299.797079
299.796491
299.796159
299.796272
299.798102
299.805308
299.806962
299.808244
472.291304
470.858372
469.388049
467.879424
466.331371
464.742533
463.11143
461.436166
459.7145
457.9438
456.121007
454.242595
452.304536
450.30226
448.23062
446.083872
443.855658
441.538989
439.126259
436.609258
433.979216
431.226865
428.342539
425.316299
422.138113
418.797967
415.286168
411.593667
407.71244
403.635936
399.359617
394.88157
390.2032
385.329997
380.272356
375.046406
369.674815
364.18749
358.622084
353.024204
347.447167
341.951189
336.601876
331.468007
326.618489
322.118588
318.025567
314.383676
311.219754
308.541433
306.334672
304.567178
303.192029
302.152905
301.391624
300.850758
300.478096
300.22867
300.067546
299.966307
299.903687
299.865543
299.84244
299.827023
299.817433
299.812787
299.809681
299.80692
299.803305
299.800746
299.799228
299.798482
299.798293
299.79885
299.798817
299.798831
299.799077
299.802758
299.814582
299.820496
472.204046
470.594647
468.943151
467.248426
465.5091
463.723603
461.890032
460.006074
458.069001
456.075638
454.022316
451.904842
449.718469
447.457866
445.117108
442.689659
440.168386
437.545571
434.812959
431.961815
428.983021
425.867199
422.60486
419.186578
415.603269
411.846499
407.908864
403.78444
399.469307
394.962152
390.264952
385.383708
380.329231
375.117924
369.772524
364.322715
358.805539
353.265482
347.754133
342.329319
337.053515
331.99154
327.207546
322.761532
318.705462
315.079507
311.908949
309.201408
306.945608
305.112317
303.660351
302.541028
301.701137
301.087518
300.651797
300.351353
300.149514
300.017618
299.93429
299.883416
299.853309
299.834817
299.823258
299.817525
299.813683
299.811311
299.809227
299.806977
299.803605
299.80144
299.801416
299.802283
299.804925
299.807791
299.808203
299.808058
299.80677
299.804792
299.813835
299.823308
472.109393
470.308574
468.460571
466.564082
464.617508
462.618914
460.565978
458.45595
456.285613
454.05124
451.748564
449.372753
446.918389
444.37946
441.749365
439.02093
436.18645
433.237748
430.166268
426.963193
423.619584
420.126583
416.475667
412.658952
408.669565
404.50208
400.153028
395.621484
390.909714
386.023885
380.974805
375.77866
370.457698
365.040783
359.563748
354.069407
348.607159
343.232036
338.003156
332.98167
328.227649
323.797155
319.738157
316.087856
312.869966
310.092285
307.746502
305.810412
304.248944
303.018918
302.073125
301.363623
300.844844
300.476688
300.223827
300.055082
299.943816
299.876514
299.838109
299.817841
299.80684
299.801978
299.802181
299.803991
299.807015
299.809228
299.809494
299.807462
299.805891
299.805412
299.805827
299.809806
299.813935
299.817815
299.821665
299.824185
299.823285
299.822592
299.819865
299.823826
472.008409
470.003366
467.945705
465.833894
463.666054
461.439918
459.152776
456.801439
454.3822
451.8908
449.322411
446.671622
443.932438
441.098299
438.16211
435.116305
431.952924
428.663737
425.240371
421.674517
417.958164
414.083895
410.045242
405.837102
401.456227
396.901779
392.175948
387.28462
382.238078
377.051694
371.746569
366.350059
360.89609
355.425192
349.984112
344.624938
339.403631
334.377929
329.604721
325.13742
321.022083
317.294142
313.976935
311.081761
308.606279
306.533572
304.836608
303.479471
302.420532
301.615697
301.020918
300.594104
300.29688
300.095965
299.967208
299.889279
299.852218
299.835095
299.826626
299.817424
299.809554
299.804167
299.803332
299.804197
299.807433
299.811432
299.814737
299.816077
299.814709
299.81255
299.811711
299.815802
299.821918
299.824603
299.825142
299.82753
299.830517
299.833484
299.835041
299.838019
471.901951
469.681607
467.402908
465.06408
462.662963
460.196949
457.662949
455.057349
452.375983
449.614118
446.766444
443.827084
440.789626
437.647169
434.392399
431.017697
427.515269
423.87733
420.096329
416.165223
412.07781
407.829124
403.415897
398.837074
394.094403
389.193057
384.1423
378.956132
373.653907
368.260827
362.808273
357.333866
351.881178
346.499
341.240105
336.159465
331.311966
326.749667
322.51882
318.657217
315.191703
312.139167
309.503832
307.275962
305.434734
303.949056
302.780319
301.885592
301.220278
300.740513
300.405897
300.180647
300.03447
299.942917
299.8876
299.860545
299.847023
299.836225
299.826512
299.81925
299.813551
299.809736
299.807719
299.808792
299.810895
299.813416
299.815603
299.819213
299.823363
299.825571
299.825215
299.823932
299.824967
299.82493
299.824511
299.826361
299.828234
299.829146
299.830991
299.834052
471.791109
469.346597
466.837753
464.262565
461.618588
458.902893
456.112032
453.242008
450.288263
447.245675
444.108577
440.870795
437.525713
434.066363
430.48555
426.776012
422.930627
418.942668
414.806114
410.51601
406.068904
401.463329
396.700353
391.784171
386.722727
381.528339
376.218289
370.815318
365.347978
359.850755
354.363897
348.932864
343.607351
338.439848
333.483743
328.791066
324.410039
320.382608
316.741962
313.510224
310.697028
308.297903
306.296206
304.664233
303.365359
302.357408
301.595556
301.035306
300.634663
300.355642
300.166716
300.04178
299.961116
299.909775
299.876735
299.854828
299.840724
299.833337
299.828615
299.828079
299.829217
299.830787
299.831029
299.830231
299.827008
299.82093
299.818029
299.819272
299.824315
299.828358
299.831087
299.830282
299.827983
299.825554
299.822815
299.819189
299.819011
299.819527
299.822364
299.825516
472.61054
471.822982
471.014726
470.185263
469.334066
468.460589
467.564263
466.644496
465.700665
464.73212
463.738174
462.718105
461.67115
460.596503
459.493307
458.360653
457.197577
456.003057
454.776008
453.515288
452.219691
450.887951
449.518746
448.110704
446.662408
445.172405
443.639223
442.061378
440.43741
438.765906
437.045538
435.274983
433.452033
431.574959
429.642654
427.654123
425.608512
423.505123
421.343646
419.125222
416.850815
414.521111
412.136587
409.697357
407.204006
404.657173
402.055855
399.396424
396.671648
393.874703
390.996695
388.025928
384.949651
381.783287
378.525502
375.172593
371.721501
368.166332
364.52625
360.827447
357.105204
353.402953
349.768521
346.248637
342.883207
339.70158
336.722931
333.961533
331.435167
329.171717
327.208577
325.586371
324.334055
323.437515
322.866055
322.55133
322.426799
322.455415
322.686817
322.999552
472.609527
471.819969
471.009762
470.178469
469.325644
468.450826
467.55354
466.633291
465.689564
464.721819
463.729489
462.711975
461.668644
460.598823
459.501794
458.376795
457.223015
456.039585
454.82558
453.580015
452.301843
450.989954
449.643176
448.260279
446.839974
445.380927
443.881759
442.341034
440.757264
439.128941
437.454545
435.732555
433.961463
432.139812
430.266222
428.339397
426.358128
424.321268
422.227479
420.074069
417.858609
415.578893
413.232658
410.817456
408.32944
405.763365
403.114006
400.376866
397.548937
394.624112
391.595828
388.458208
385.204008
381.825598
378.313472
374.666837
370.893225
367.011042
363.053024
359.063186
355.090273
351.189051
347.414756
343.816835
340.434059
337.293473
334.414781
331.818832
329.534447
327.596238
326.024149
324.819487
323.961549
323.319708
322.89969
322.657781
322.606388
322.705952
322.893356
323.128815
472.605335
471.807348
470.988587
470.148685
469.287267
468.403955
467.498363
466.570091
465.618728
464.643847
463.644999
462.621713
461.573492
460.499805
459.400086
458.273726
457.120073
455.938421
454.728009
453.488015
452.217551
450.915656
449.581294
448.21335
446.810622
445.371823
443.895574
442.380431
440.824889
439.227361
437.586182
435.899611
434.165823
432.382914
430.548884
428.661621
426.71887
424.718203
422.656962
420.532042
418.340038
416.077179
413.739228
411.321383
408.818187
406.223527
403.530849
400.732341
397.819751
394.784026
391.614928
388.300487
384.832742
381.206503
377.421577
373.485392
369.415945
365.244665
361.018705
356.802157
352.659529
348.654003
344.845202
341.282925
338.003647
335.032314
332.389492
330.099217
328.187063
326.686147
325.522192
324.626363
324.003003
323.586553
323.259634
323.041398
322.973784
323.010418
323.122531
323.325217
472.597713
471.784355
470.949909
470.094064
469.216512
468.316945
467.395054
466.450527
465.483046
464.492283
463.477901
462.439543
461.376835
460.289378
459.176745
458.038473
456.874061
455.682962
454.464579
453.218255
451.94327
450.638831
449.304066
447.938015
446.539625
445.107737
443.641084
442.138276
440.597795
439.017985
437.397036
435.732976
434.02365
432.266705
430.459561
428.599387
426.683064
424.707129
422.667694
420.560626
418.381244
416.124252
413.783652
411.352645
408.823491
406.187315
403.43378
400.552869
397.53331
394.363575
391.032969
387.532469
383.856214
380.00342
375.980694
371.804599
367.50422
363.123257
358.720975
354.371347
350.159975
346.165218
342.446381
339.050151
336.007132
333.336438
331.05312
329.171669
327.65681
326.539748
325.746659
325.119773
324.579467
324.156391
323.874247
323.708875
323.69809
323.752487
323.851386
324.025371
472.586357
471.750073
470.892178
470.012406
469.110501
468.186213
467.239297
466.269514
465.276622
464.260381
463.220544
462.156855
461.069047
459.956833
458.819906
457.657934
456.470549
455.257347
454.017878
452.751639
451.458065
450.136524
448.786302
447.406594
445.996493
444.554979
443.080899
441.572956
440.02969
438.449461
436.830418
435.170483
433.467314
431.718276
429.920395
428.07032
426.164271
424.197981
422.166623
420.064742
417.886164
415.623909
413.270105
410.815925
408.251556
405.566227
402.748343
399.785778
396.666336
393.378498
389.912481
386.261647
382.424274
378.405659
374.220412
369.894721
365.468213
360.994955
356.543074
352.192092
348.027997
344.13604
340.592302
337.447629
334.721851
332.421405
330.532685
329.063291
327.960571
327.136322
326.488108
325.965508
325.556219
325.253884
325.041972
324.93335
325.003244
325.141877
325.483397
326.057636
472.570974
471.703613
470.81389
469.901567
468.966423
468.008249
467.026848
466.022032
464.993621
463.941438
462.86531
461.765058
460.640501
459.491445
458.317682
457.118987
455.895107
454.645762
453.37063
452.069349
450.741499
449.386598
448.004089
446.593329
445.15357
443.683949
442.183465
440.650958
439.085088
437.484301
435.846807
434.170537
432.4531
430.691747
428.883312
427.024151
425.110075
423.136274
421.097232
418.986643
416.797317
414.521113
412.148877
409.670429
407.074611
404.34943
401.48234
398.460686
395.272401
391.907007
388.35689
384.618923
380.696353
376.600878
372.35469
367.992269
363.561571
359.123893
354.752251
350.528115
346.536002
342.856933
339.56179
336.698305
334.303818
332.342401
330.803491
329.658705
328.821888
328.199789
327.720716
327.340117
327.039316
326.809568
326.651961
326.662208
326.794214
327.207951
327.934195
328.813129
472.55127
471.644086
470.713539
469.759402
468.781468
467.779549
466.753473
465.703084
464.628239
463.528805
462.404657
461.255673
460.081734
458.882717
457.658494
456.408924
455.133855
453.83311
452.506488
451.153755
449.774633
448.368794
446.935849
445.475329
443.986676
442.469224
440.922175
439.344582
437.735313
436.093024
434.416119
432.702711
430.950569
429.157058
427.319079
425.432987
423.494515
421.498681
419.4397
417.310893
415.104604
412.812147
410.42378
407.928746
405.315402
402.571461
399.684424
396.642158
393.433683
390.050321
386.48722
382.74508
378.831996
374.765241
370.572946
366.295231
361.984551
357.704952
353.529604
349.537171
345.806344
342.410608
339.406442
336.829827
334.710271
333.042474
331.790387
330.893991
330.279283
329.871781
329.61107
329.455393
329.381981
329.382924
329.468664
329.789898
330.45135
331.558637
332.897098
334.087151
472.526945
471.570583
470.589589
469.583729
468.552788
467.496575
466.414922
465.30768
464.174722
463.015935
461.831219
460.620489
459.383666
458.120678
456.831459
455.515941
454.174055
452.805725
451.410865
449.98937
448.541115
447.065943
445.563658
444.034011
442.476683
440.891273
439.277275
437.634054
435.960819
434.256581
432.520115
430.749912
428.944117
427.100464
425.216204
423.288016
421.31192
419.283181
417.196216
415.044506
412.820526
410.515707
408.120454
405.62423
403.01576
400.283355
397.415442
394.401262
391.231686
387.90037
384.405283
380.750299
376.946863
373.015365
368.986324
364.900983
360.811106
356.778116
352.870641
349.161305
345.710172
342.595569
339.86891
337.571045
335.720861
334.314241
333.322768
332.698108
332.377649
332.289978
332.305836
332.425458
332.676401
333.044683
333.605039
334.536872
336.000257
338.001614
340.229373
342.29319
472.497771
471.482417
470.440887
469.372913
468.278254
467.156694
466.008047
464.83215
463.628867
462.398085
461.139712
459.853679
458.539932
457.19844
455.829186
454.432169
453.007407
451.554927
450.074769
448.566983
447.031623
445.468741
443.878384
442.260585
440.615346
438.942623
437.242309
435.514208
433.758006
431.973231
430.159212
428.315018
426.439403
424.530731
422.586894
420.605224
418.582395
416.51433
414.396104
412.221865
409.98478
407.677022
405.289821
402.813605
400.238255
397.553494
394.749397
391.817225
388.750189
385.544548
382.20083
378.725139
375.130401
371.437346
367.675198
363.881924
360.104066
356.396082
352.811721
349.42048
346.282718
343.463055
341.016428
338.987913
337.409625
336.274493
335.553948
335.205887
335.124114
335.197951
335.50758
336.005591
336.677327
337.551609
338.730792
340.377164
342.59423
345.271646
348.211784
351.197727
472.463723
471.379513
470.267306
469.126782
467.957653
466.759659
465.532575
464.276205
462.990389
461.674996
460.329927
458.955118
457.550534
456.116178
454.652085
453.158329
451.635025
450.082326
448.500429
446.889571
445.250033
443.582136
441.886239
440.162731
438.412025
436.634541
434.830691
433.000852
431.145337
429.264359
427.357978
425.426049
423.468152
421.483515
419.47093
417.428654
415.354312
413.244804
411.096211
408.903732
406.661651
404.363357
402.001442
399.567871
397.054269
394.452339
391.754383
388.954109
386.047266
383.032568
379.912619
376.694822
373.392118
370.023489
366.614336
363.196599
359.808962
356.48794
353.287001
350.262333
347.470652
344.971591
342.824073
341.06375
339.713815
338.782298
338.262593
338.099995
338.166569
338.559477
339.260727
340.227832
341.464065
343.007038
344.909791
347.202348
349.840666
352.567868
355.143657
357.486696
472.425133
471.262879
470.070549
468.84776
467.594159
466.309426
464.993282
463.645485
462.265836
460.854176
459.410392
457.934421
456.426247
454.88591
453.313511
451.709215
450.073256
448.405947
446.707679
444.978931
443.220272
441.432362
439.615957
437.7719
435.90112
434.004619
432.083458
430.138728
428.171525
426.182901
424.173822
422.145097
420.097312
418.03074
415.945254
413.840226
411.714431
409.565956
407.392127
405.189464
402.953662
400.67964
398.361661
395.993499
393.568856
391.081679
388.526714
385.900123
383.200065
380.427322
377.585924
374.683638
371.732325
368.748094
365.751423
362.767312
359.825781
356.944342
354.176365
351.563463
349.154004
346.998778
345.137602
343.60391
342.422776
341.608931
341.165009
341.038006
341.158679
341.630892
342.423572
343.486411
344.790584
346.343282
348.156476
350.188609
352.323944
354.315972
356.120133
357.595698
472.382793
471.134905
469.854656
468.541582
467.195256
465.815288
464.40133
462.953087
461.470312
459.952817
458.400471
456.813215
455.19106
453.5341
451.842518
450.116597
448.356729
446.563427
444.737332
442.879226
440.990036
439.070849
437.122906
435.14761
433.14652
431.12134
429.073904
427.006151
424.920087
422.81774
420.701104
418.572066
416.432327
414.283313
412.126076
409.961193
407.788665
405.607818
403.417239
401.214736
398.997305
396.761288
394.502543
392.216585
389.899058
387.546038
385.15452
382.722921
380.25155
377.743017
375.202546
372.638121
370.060437
367.482726
364.920518
362.391503
359.91559
357.50683
355.199142
353.022357
351.012435
349.202935
347.622464
346.296812
345.247881
344.491151
344.031981
343.845422
343.881576
344.213433
344.81811
345.658173
346.697436
347.908172
349.260764
350.698204
352.126337
353.638101
354.961948
355.98825
472.338048
470.999664
469.626496
468.217997
466.773656
465.293004
463.775624
462.221158
460.629314
458.999871
457.332689
455.62772
453.885017
452.104746
450.287201
448.432816
446.542181
444.616059
442.655398
440.661346
438.635267
436.578748
434.49361
432.381906
430.245922
428.088167
425.911351
423.718359
421.51221
419.295998
417.072827
414.845732
412.617575
410.390934
408.167991
405.950417
403.739269
401.534905
399.336949
397.144286
394.955018
392.76668
390.576458
388.381399
386.178796
383.966579
381.743735
379.510709
377.26975
375.025129
372.783188
370.552187
368.341953
366.163397
364.027998
361.947396
359.93312
357.992588
356.144796
354.40643
352.798578
351.342916
350.057242
348.958424
348.061022
347.375831
346.905924
346.645687
346.590346
346.724017
347.049418
347.549002
348.190289
348.942131
349.776837
350.680535
351.741883
352.708462
353.652324
354.55158
472.292862
470.863088
469.39608
467.891202
466.347856
464.765493
463.143624
461.481829
459.779771
458.0372
456.253975
454.430071
452.565595
450.660806
448.716133
446.732191
444.709804
442.650024
440.554156
438.42377
436.260725
434.067178
431.8456
429.598774
427.329797
425.042063
422.739242
420.425239
418.104139
415.780134
413.457437
411.140182
408.83232
406.537478
404.258852
401.99908
399.760143
397.543295
395.349042
393.177171
391.026766
388.896375
386.78423
384.688541
382.607861
380.54147
378.48976
376.45456
374.439367
372.449412
370.491544
368.573889