/*--------------------------------*- C++ -*----------------------------------*\
  =========                 |
  \\      /  F ield         | OpenFOAM: The Open Source CFD Toolbox
   \\    /   O peration     | Website:  https://openfoam.org
    \\  /    A nd           | Version:  8
     \\/     M anipulation  |
\*---------------------------------------------------------------------------*/
FoamFile
{
    version     2.0;
    format      ascii;
    class       volScalarField;
    location    "0.053";
    object      p;
}
// * * * * * * * * * * * * * * * * * * * * * * * * * * * * * * * * * * * * * //

dimensions      [1 -1 -2 0 0 0 0];

internalField   nonuniform List<scalar> 
42400
(
101485.6
101485.59
101485.58
101485.571
101485.563
101485.556
101485.549
101485.544
101485.539
101485.535
101485.532
101485.531
101485.53
101485.53
101485.532
101485.534
101485.537
101485.542
101485.548
101485.555
101485.563
101485.572
101485.583
101485.595
101485.608
101485.622
101485.638
101485.655
101485.673
101485.694
101485.715
101485.739
101485.765
101485.792
101485.822
101485.854
101485.895
101485.947
101486.005
101486.054
101486.093
101486.137
101486.191
101486.259
101486.335
101486.419
101486.509
101486.606
101486.71
101486.819
101486.949
101487.105
101487.276
101487.424
101487.574
101487.765
101487.979
101488.204
101488.44
101488.687
101488.94
101489.2
101489.467
101489.745
101490.024
101490.295
101490.54
101490.693
101490.921
101491.181
101490.676
101490.394
101491.262
101490.876
101489.182
101487
101486.838
101488.823
101491.659
101493.849
101485.32
101485.313
101485.306
101485.299
101485.293
101485.288
101485.284
101485.28
101485.278
101485.276
101485.275
101485.275
101485.276
101485.278
101485.281
101485.285
101485.29
101485.296
101485.304
101485.312
101485.322
101485.332
101485.344
101485.357
101485.371
101485.387
101485.403
101485.421
101485.44
101485.46
101485.482
101485.505
101485.529
101485.56
101485.598
101485.64
101485.674
101485.698
101485.724
101485.76
101485.807
101485.857
101485.912
101485.971
101486.033
101486.1
101486.176
101486.269
101486.378
101486.479
101486.569
101486.683
101486.82
101486.971
101487.128
101487.298
101487.483
101487.682
101487.898
101488.141
101488.414
101488.706
101489.011
101489.334
101489.679
101490.062
101490.486
101490.842
101491.232
101491.949
101492.288
101492.118
101493.129
101493.45
101492.714
101496.139
101497.65
101496.801
101499.51
101502.011
101484.945
101484.939
101484.934
101484.93
101484.926
101484.923
101484.92
101484.919
101484.918
101484.918
101484.919
101484.921
101484.924
101484.927
101484.932
101484.938
101484.945
101484.952
101484.961
101484.972
101484.983
101484.995
101485.008
101485.023
101485.039
101485.055
101485.073
101485.092
101485.112
101485.135
101485.161
101485.19
101485.223
101485.25
101485.27
101485.29
101485.319
101485.355
101485.393
101485.433
101485.476
101485.521
101485.565
101485.617
101485.683
101485.765
101485.827
101485.878
101485.958
101486.056
101486.159
101486.269
101486.39
101486.522
101486.669
101486.836
101487.031
101487.254
101487.503
101487.777
101488.084
101488.433
101488.822
101489.258
101489.737
101490.281
101490.921
101491.552
101492.183
101492.997
101493.936
101494.545
101496.11
101498.986
101499.844
101499.178
101499.612
101503.082
101505.747
101507.006
101484.501
101484.497
101484.493
101484.49
101484.488
101484.486
101484.485
101484.485
101484.485
101484.487
101484.489
101484.492
101484.496
101484.502
101484.508
101484.515
101484.524
101484.534
101484.545
101484.557
101484.57
101484.585
101484.601
101484.618
101484.636
101484.655
101484.676
101484.7
101484.725
101484.75
101484.773
101484.795
101484.819
101484.846
101484.879
101484.913
101484.947
101484.984
101485.02
101485.055
101485.098
101485.161
101485.22
101485.256
101485.297
101485.358
101485.432
101485.505
101485.583
101485.669
101485.764
101485.873
101486.002
101486.152
101486.323
101486.518
101486.742
101487.005
101487.312
101487.669
101488.079
101488.551
101489.081
101489.683
101490.353
101491.121
101492.028
101493.041
101494.069
101495.112
101497.011
101499.192
101499.526
101499.882
101502.651
101504.103
101504.937
101506.297
101508.319
101510.249
101483.994
101483.991
101483.987
101483.985
101483.983
101483.982
101483.982
101483.982
101483.983
101483.985
101483.988
101483.993
101483.999
101484.005
101484.013
101484.023
101484.033
101484.045
101484.059
101484.073
101484.089
101484.105
101484.123
101484.143
101484.165
101484.188
101484.213
101484.238
101484.265
101484.293
101484.324
101484.356
101484.389
101484.423
101484.458
101484.493
101484.527
101484.566
101484.623
101484.673
101484.704
101484.742
101484.798
101484.857
101484.915
101484.977
101485.045
101485.121
101485.21
101485.313
101485.43
101485.564
101485.719
101485.902
101486.12
101486.381
101486.687
101487.046
101487.463
101487.946
101488.5
101489.138
101489.851
101490.662
101491.544
101492.532
101493.517
101494.79
101496.925
101499.174
101500.05
101500.637
101502.139
101503.375
101505.126
101507.004
101508.768
101510.299
101512.407
101515.12
101483.43
101483.427
101483.423
101483.421
101483.419
101483.418
101483.418
101483.419
101483.42
101483.423
101483.427
101483.432
101483.439
101483.447
101483.456
101483.468
101483.48
101483.492
101483.508
101483.525
101483.545
101483.568
101483.592
101483.618
101483.645
101483.673
101483.702
101483.734
101483.766
101483.8
101483.835
101483.872
101483.91
101483.946
101483.983
101484.037
101484.09
101484.122
101484.158
101484.211
101484.266
101484.321
101484.378
101484.441
101484.511
101484.589
101484.676
101484.775
101484.889
101485.023
101485.181
101485.371
101485.596
101485.865
101486.183
101486.555
101486.989
101487.492
101488.071
101488.733
101489.486
101490.326
101491.236
101492.209
101493.232
101494.631
101497.128
101499.08
101499.736
101500.441
101502.072
101503.865
101505.641
101506.986
101508.599
101511.283
101513.83
101516.333
101517.678
101518.526
101482.789
101482.785
101482.781
101482.778
101482.776
101482.775
101482.775
101482.777
101482.779
101482.783
101482.788
101482.795
101482.802
101482.811
101482.822
101482.836
101482.852
101482.871
101482.891
101482.912
101482.935
101482.96
101482.988
101483.017
101483.047
101483.08
101483.115
101483.151
101483.19
101483.23
101483.268
101483.308
101483.362
101483.421
101483.46
101483.497
101483.551
101483.608
101483.664
101483.722
101483.785
101483.853
101483.927
101484.008
101484.1
101484.206
101484.328
101484.472
101484.643
101484.846
101485.088
101485.376
101485.717
101486.117
101486.583
101487.122
101487.739
101488.439
101489.232
101490.102
101491.075
101492.13
101493.304
101494.923
101497.395
101499.022
101499.554
101500.479
101502.026
101503.867
101505.62
101507.447
101509.436
101512.016
101514.118
101515.382
101516.437
101518.013
101521.01
101523.781
101482.052
101482.048
101482.044
101482.041
101482.04
101482.039
101482.04
101482.042
101482.045
101482.051
101482.057
101482.066
101482.078
101482.091
101482.106
101482.122
101482.14
101482.161
101482.184
101482.209
101482.237
101482.266
101482.298
101482.333
101482.369
101482.408
101482.448
101482.488
101482.529
101482.584
101482.644
101482.686
101482.727
101482.783
101482.845
101482.904
101482.966
101483.031
101483.1
101483.176
101483.258
101483.349
101483.452
101483.569
101483.705
101483.863
101484.05
101484.27
101484.533
101484.844
101485.213
101485.646
101486.15
101486.735
101487.406
101488.17
101489.033
101489.997
101491.076
101492.276
101493.526
101495.16
101497.032
101498.143
101498.973
101500.544
101502.258
101503.783
101505.595
101507.501
101509.481
101511.51
101513.237
101514.889
101516.495
101518.28
101520.534
101522.688
101524.847
101526.502
101481.193
101481.19
101481.187
101481.185
101481.184
101481.185
101481.188
101481.192
101481.198
101481.206
101481.217
101481.229
101481.242
101481.258
101481.277
101481.297
101481.32
101481.346
101481.374
101481.404
101481.437
101481.473
101481.511
101481.551
101481.592
101481.635
101481.69
101481.749
101481.794
101481.839
101481.899
101481.963
101482.025
101482.091
101482.16
101482.233
101482.311
101482.396
101482.489
101482.592
101482.707
101482.838
101482.989
101483.163
101483.368
101483.608
101483.891
101484.225
101484.619
101485.079
101485.612
101486.227
101486.931
101487.729
101488.626
101489.623
101490.722
101491.916
101493.196
101494.554
101496.097
101497.432
101498.663
101500.294
101501.784
101503.216
101504.907
101506.624
101508.393
101510.329
101512.136
101513.845
101515.575
101517.226
101519.374
101521.831
101523.696
101525.739
101527.659
101529.047
101480.193
101480.192
101480.191
101480.191
101480.194
101480.197
101480.203
101480.211
101480.22
101480.232
101480.246
101480.262
101480.281
101480.302
101480.326
101480.352
101480.381
101480.413
101480.448
101480.485
101480.525
101480.566
101480.612
101480.666
101480.722
101480.771
101480.822
101480.884
101480.95
101481.016
101481.085
101481.158
101481.235
101481.317
101481.406
101481.502
101481.607
101481.723
101481.852
101481.999
101482.167
101482.36
101482.584
101482.845
101483.15
101483.507
101483.922
101484.405
101484.96
101485.594
101486.313
101487.123
101488.027
101489.026
101490.115
101491.285
101492.544
101493.877
101495.265
101496.717
101498.169
101499.645
101501.174
101502.697
101504.135
101505.797
101507.589
101509.157
101510.806
101512.525
101514.533
101516.891
101519.26
101521.735
101523.563
101524.85
101526.528
101528.709
101530.623
101532.368
101479.017
101479.018
101479.021
101479.025
101479.032
101479.04
101479.05
101479.063
101479.078
101479.095
101479.115
101479.138
101479.163
101479.192
101479.223
101479.258
101479.295
101479.335
101479.378
101479.425
101479.48
101479.534
101479.585
101479.644
101479.709
101479.777
101479.846
101479.919
101479.997
101480.078
101480.165
101480.258
101480.358
101480.466
101480.585
101480.716
101480.862
101481.027
101481.214
101481.429
101481.676
101481.962
101482.293
101482.677
101483.12
101483.63
101484.212
101484.872
101485.615
101486.446
101487.366
101488.376
101489.476
101490.677
101491.946
101493.284
101494.698
101496.184
101497.703
101499.227
101500.795
101502.28
101503.82
101505.724
101507.847
101509.519
101511.246
101513.532
101515.983
101517.827
101519.406
101521.21
101523.09
101524.774
101526.892
101529.061
101530.525
101532.191
101533.926
101535.639
101477.638
101477.643
101477.651
101477.661
101477.672
101477.687
101477.703
101477.723
101477.745
101477.77
101477.799
101477.83
101477.864
101477.902
101477.943
101477.987
101478.036
101478.091
101478.146
101478.201
101478.263
101478.331
101478.401
101478.475
101478.552
101478.634
101478.721
101478.812
101478.91
101479.014
101479.126
101479.247
101479.38
101479.527
101479.691
101479.874
101480.083
101480.321
101480.593
101480.906
101481.267
101481.681
101482.156
101482.699
101483.316
101484.01
101484.786
101485.647
101486.59
101487.614
101488.713
101489.872
101491.083
101492.361
101493.732
101495.223
101496.781
101498.547
101500.548
101502.562
101504.656
101506.745
101508.606
101510.337
101511.992
101513.564
101515.255
101516.961
101518.12
101519.743
101522.136
101524.108
101525.888
101527.265
101528.485
101530.62
101533.01
101534.936
101536.932
101538.781
101476.008
101476.019
101476.034
101476.05
101476.07
101476.092
101476.117
101476.145
101476.177
101476.212
101476.251
101476.293
101476.338
101476.388
101476.444
101476.501
101476.56
101476.626
101476.696
101476.769
101476.846
101476.928
101477.014
101477.104
101477.2
101477.302
101477.41
101477.525
101477.649
101477.783
101477.93
101478.092
101478.272
101478.473
101478.701
101478.96
101479.255
101479.593
101479.981
101480.424
101480.93
101481.506
101482.157
101482.889
101483.707
101484.615
101485.615
101486.708
101487.893
101489.166
101490.526
101491.962
101493.482
101495.07
101496.598
101498.038
101499.471
101501.218
101503.288
101504.762
101505.987
101507.945
101510.334
101512.159
101514.02
101515.456
101516.633
101518.519
101521.325
101523.943
101525.449
101526.789
101528.276
101530.097
101532.596
101534.339
101535.826
101538.231
101540.801
101542.637
101474.082
101474.101
101474.125
101474.151
101474.179
101474.212
101474.247
101474.287
101474.329
101474.376
101474.427
101474.484
101474.543
101474.605
101474.673
101474.745
101474.822
101474.902
101474.988
101475.078
101475.172
101475.272
101475.378
101475.49
101475.608
101475.735
101475.871
101476.019
101476.179
101476.356
101476.552
101476.771
101477.017
101477.295
101477.611
101477.97
101478.38
101478.847
101479.376
101479.976
101480.651
101481.407
101482.246
101483.173
101484.187
101485.287
101486.467
101487.725
101489.055
101490.444
101491.879
101493.358
101494.893
101496.431
101497.968
101499.836
101501.742
101503.437
101504.744
101506.812
101509.332
101510.789
101512.381
101514.013
101515.456
101517.513
101520.047
101521.707
101523.095
101525.045
101527.567
101530.185
101532.269
101533.987
101536.045
101538.224
101540.576
101542.652
101544.496
101546.054
101471.812
101471.841
101471.875
101471.912
101471.953
101471.997
101472.045
101472.098
101472.154
101472.215
101472.28
101472.35
101472.425
101472.505
101472.588
101472.677
101472.771
101472.87
101472.974
101473.084
101473.2
101473.323
101473.453
101473.592
101473.742
101473.903
101474.079
101474.272
101474.485
101474.721
101474.987
101475.285
101475.623
101476.004
101476.437
101476.926
101477.478
101478.1
101478.795
101479.569
101480.425
101481.365
101482.391
101483.503
101484.698
101485.973
101487.327
101488.77
101490.301
101491.884
101493.494
101495.035
101496.578
101498.187
101499.865
101501.971
101504.46
101505.893
101507.17
101508.935
101510.736
101513.151
101514.884
101516.312
101518.002
101519.545
101521.37
101523.929
101526.403
101528.232
101529.78
101531.399
101533.769
101537.201
101539.257
101540.719
101542.945
101545.232
101547.363
101549.615
101469.156
101469.196
101469.244
101469.294
101469.348
101469.406
101469.469
101469.536
101469.609
101469.685
101469.767
101469.854
101469.946
101470.043
101470.146
101470.254
101470.368
101470.488
101470.616
101470.751
101470.894
101471.048
101471.212
101471.39
101471.584
101471.797
101472.031
101472.291
101472.581
101472.907
101473.273
101473.686
101474.15
101474.673
101475.26
101475.916
101476.644
101477.449
101478.332
101479.293
101480.329
101481.437
101482.61
101483.824
101485.072
101486.346
101487.689
101489.43
101491.575
101493.718
101495.782
101497.815
101499.935
101502.174
101504.472
101505.96
101506.973
101508.752
101510.633
101511.765
101512.992
101514.099
101515.824
101518.429
101520.525
101522.769
101524.407
101525.587
101527.524
101530.368
101533.106
101535.136
101536.665
101538.201
101540.717
101543.01
101544.538
101546.451
101548.56
101550.511
101466.087
101466.141
101466.204
101466.27
101466.339
101466.413
101466.492
101466.576
101466.665
101466.759
101466.859
101466.964
101467.075
101467.192
101467.316
101467.447
101467.585
101467.732
101467.889
101468.057
101468.237
101468.432
101468.645
101468.878
101469.136
101469.422
101469.74
101470.098
101470.499
101470.95
101471.457
101472.026
101472.664
101473.375
101474.166
101475.04
101475.999
101477.047
101478.185
101479.411
101480.729
101482.136
101483.632
101485.207
101487.047
101489.133
101491.043
101492.763
101494.498
101496.52
101498.336
101499.756
101501.219
101502.79
101504.35
101505.999
101507.957
101509.808
101511.799
101514.268
101516.205
101517.638
101519.095
101520.456
101522.281
101524.604
101527.148
101530.145
101532.314
101533.402
101534.907
101537.704
101540.644
101542.852
101544.019
101545.574
101547.766
101549.723
101551.991
101553.148
101462.59
101462.658
101462.738
101462.82
101462.905
101462.995
101463.091
101463.191
101463.297
101463.409
101463.526
101463.65
101463.781
101463.919
101464.065
101464.221
101464.387
101464.564
101464.756
101464.964
101465.191
101465.44
101465.715
101466.02
101466.361
101466.743
101467.172
101467.653
101468.194
101468.801
101469.479
101470.234
101471.071
101471.995
101473.007
101474.11
101475.302
101476.583
101477.949
101479.396
101480.917
101482.506
101484.15
101485.878
101487.509
101489.106
101491.058
101492.705
101493.935
101495.149
101497.042
101499.666
101501.805
101503.874
101505.925
101507.981
101509.99
101511.951
101514.149
101516.3
101518.503
101520.501
101522.162
101523.771
101525.538
101527.958
101531.23
101533.426
101534.946
101537.414
101540.204
101541.798
101543.202
101544.809
101547.324
101550.446
101552.308
101553.675
101554.743
101556.175
101458.726
101458.81
101458.908
101459.006
101459.107
101459.213
101459.324
101459.441
101459.563
101459.691
101459.826
101459.969
101460.119
101460.279
101460.45
101460.633
101460.83
101461.044
101461.278
101461.535
101461.819
101462.134
101462.487
101462.881
101463.324
101463.821
101464.378
101465.001
101465.697
101466.47
101467.324
101468.264
101469.29
101470.402
101471.6
101472.881
101474.24
101475.673
101477.174
101478.736
101480.353
101482.004
101483.704
101485.414
101487.223
101488.962
101490.531
101492.606
101495.373
101498.098
101500.315
101502.266
101504.167
101505.97
101507.924
101509.907
101511.857
101513.74
101515.961
101518.811
101520.613
101521.894
101523.777
101526.176
101528.947
101531.42
101533.982
101536.163
101538.37
101540.327
101541.825
101544.1
101547.064
101549.344
101551.364
101553.756
101555.736
101557.39
101558.655
101559.959
101454.586
101454.686
101454.8
101454.915
101455.031
101455.152
101455.278
101455.41
101455.547
101455.692
101455.844
101456.006
101456.178
101456.362
101456.562
101456.778
101457.015
101457.276
101457.565
101457.887
101458.247
101458.652
101459.106
101459.617
101460.191
101460.834
101461.554
101462.354
101463.241
101464.218
101465.287
101466.449
101467.703
101469.047
101470.476
101471.981
101473.553
101475.184
101476.863
101478.58
101480.321
101482.076
101484.06
101486.562
101489.218
101491.995
101494.967
101497.382
101498.897
101500.044
101501.392
101503.5
101505.856
101508.123
101510.39
101512.687
101515.072
101517.563
101519.861
101521.274
101522.86
101526.097
101528.521
101530.143
101531.824
101533.672
101535.461
101537.831
101540.694
101543.442
101546.101
101547.992
101549.895
101552.037
101554.475
101556.544
101558.139
101560.029
101561.853
101564.107
101510.418
101510.419
101510.419
101510.419
101510.418
101510.417
101510.416
101510.414
101510.412
101510.41
101510.408
101510.405
101510.402
101510.398
101510.394
101510.389
101510.384
101510.378
101510.372
101510.365
101510.358
101510.35
101510.341
101510.332
101510.322
101510.311
101510.299
101510.287
101510.274
101510.26
101510.245
101510.229
101510.213
101510.196
101510.178
101510.16
101510.141
101510.121
101510.102
101510.081
101510.061
101510.04
101510.019
101509.998
101509.977
101509.957
101509.937
101509.917
101509.898
101509.879
101509.86
101509.84
101509.819
101509.794
101509.762
101509.719
101509.657
101509.571
101509.448
101509.276
101509.042
101508.728
101508.315
101507.784
101507.118
101506.303
101505.328
101504.18
101502.852
101501.338
101499.631
101497.729
101495.626
101493.287
101490.676
101487.83
101484.883
101481.851
101478.615
101474.049
101506.687
101506.688
101506.688
101506.687
101506.686
101506.684
101506.68
101506.676
101506.671
101506.665
101506.658
101506.651
101506.642
101506.632
101506.621
101506.608
101506.595
101506.58
101506.564
101506.547
101506.528
101506.507
101506.485
101506.462
101506.436
101506.409
101506.38
101506.348
101506.315
101506.28
101506.242
101506.202
101506.16
101506.115
101506.068
101506.018
101505.966
101505.911
101505.853
101505.792
101505.728
101505.662
101505.592
101505.518
101505.442
101505.362
101505.278
101505.189
101505.096
101504.998
101504.893
101504.78
101504.656
101504.517
101504.357
101504.17
101503.949
101503.684
101503.363
101502.974
101502.498
101501.92
101501.221
101500.385
101499.399
101498.248
101496.922
101495.404
101493.679
101491.73
101489.543
101487.117
101484.436
101481.453
101478.076
101474.271
101470.29
101466.588
101462.237
101454.454
101503.097
101503.098
101503.099
101503.098
101503.095
101503.092
101503.087
101503.08
101503.072
101503.063
101503.052
101503.039
101503.025
101503.009
101502.992
101502.972
101502.951
101502.927
101502.902
101502.874
101502.844
101502.811
101502.776
101502.738
101502.698
101502.655
101502.608
101502.559
101502.506
101502.449
101502.389
101502.325
101502.257
101502.185
101502.109
101502.028
101501.942
101501.852
101501.756
101501.654
101501.547
101501.433
101501.313
101501.187
101501.053
101500.911
101500.76
101500.6
101500.43
101500.248
101500.053
101499.84
101499.606
101499.344
101499.051
101498.718
101498.337
101497.897
101497.385
101496.785
101496.08
101495.251
101494.281
101493.155
101491.856
101490.37
101488.676
101486.753
101484.576
101482.128
101479.403
101476.389
101473.063
101469.344
101465.096
101460.104
101454.489
101448.521
101440.894
101434.652
101499.714
101499.716
101499.716
101499.715
101499.713
101499.708
101499.701
101499.693
101499.683
101499.67
101499.656
101499.639
101499.62
101499.599
101499.576
101499.55
101499.521
101499.49
101499.456
101499.419
101499.379
101499.335
101499.289
101499.239
101499.185
101499.127
101499.065
101498.999
101498.929
101498.853
101498.773
101498.688
101498.597
101498.5
101498.398
101498.289
101498.174
101498.051
101497.921
101497.783
101497.637
101497.483
101497.318
101497.144
101496.959
101496.762
101496.553
101496.329
101496.09
101495.833
101495.555
101495.251
101494.915
101494.543
101494.128
101493.662
101493.136
101492.536
101491.848
101491.056
101490.139
101489.079
101487.854
101486.443
101484.831
101482.997
101480.923
101478.593
101475.995
101473.094
101469.856
101466.24
101462.22
101457.724
101452.061
101445.46
101439.634
101433.143
101425.327
101419.228
101496.606
101496.608
101496.61
101496.609
101496.606
101496.601
101496.593
101496.583
101496.571
101496.556
101496.539
101496.519
101496.497
101496.471
101496.443
101496.412
101496.377
101496.34
101496.298
101496.254
101496.205
101496.153
101496.097
101496.036
101495.971
101495.901
101495.826
101495.746
101495.66
101495.569
101495.471
101495.367
101495.256
101495.139
101495.013
101494.88
101494.738
101494.587
101494.427
101494.256
101494.075
101493.882
101493.678
101493.46
101493.228
101492.98
101492.716
101492.434
101492.133
101491.807
101491.454
101491.067
101490.644
101490.178
101489.661
101489.084
101488.438
101487.708
101486.88
101485.938
101484.866
101483.646
101482.265
101480.705
101478.944
101476.949
101474.671
101472.043
101468.986
101465.403
101461.309
101456.726
101451.852
101446.667
101440.754
101434.646
101429.421
101422.493
101412.567
101403.042
101493.823
101493.826
101493.829
101493.828
101493.825
101493.82
101493.812
101493.801
101493.788
101493.772
101493.753
101493.731
101493.706
101493.678
101493.646
101493.612
101493.573
101493.531
101493.485
101493.436
101493.382
101493.323
101493.26
101493.193
101493.12
101493.042
101492.958
101492.869
101492.773
101492.671
101492.563
101492.447
101492.323
101492.192
101492.052
101491.903
101491.745
101491.577
101491.398
101491.208
101491.006
101490.791
101490.561
101490.317
101490.056
101489.777
101489.479
101489.16
101488.816
101488.443
101488.037
101487.593
101487.106
101486.57
101485.976
101485.317
101484.581
101483.756
101482.827
101481.774
101480.572
101479.199
101477.615
101475.773
101473.649
101471.201
101468.342
101465.503
101462.647
101459.455
101456.129
101452.093
101446.433
101439.747
101432.384
101424.553
101415.402
101408.623
101402.124
101393.625
101491.409
101491.413
101491.416
101491.416
101491.414
101491.409
101491.401
101491.39
101491.376
101491.36
101491.34
101491.317
101491.29
101491.261
101491.227
101491.191
101491.15
101491.105
101491.057
101491.004
101490.946
101490.884
101490.817
101490.745
101490.667
101490.584
101490.495
101490.4
101490.298
101490.189
101490.073
101489.949
101489.818
101489.677
101489.528
101489.37
101489.201
101489.022
101488.833
101488.631
101488.417
101488.189
101487.948
101487.692
101487.419
101487.129
101486.821
101486.492
101486.138
101485.757
101485.343
101484.891
101484.393
101483.841
101483.224
101482.531
101481.744
101480.845
101479.815
101478.64
101477.289
101475.896
101474.462
101472.869
101471.122
101469.253
101467.305
101464.509
101460.355
101455.577
101449.699
101444.612
101440.026
101434.998
101429.242
101420.303
101411.45
101402.474
101393.351
101386.193
101489.385
101489.391
101489.394
101489.396
101489.394
101489.389
101489.382
101489.371
101489.358
101489.342
101489.322
101489.299
101489.273
101489.244
101489.211
101489.174
101489.133
101489.089
101489.04
101488.987
101488.929
101488.867
101488.8
101488.727
101488.65
101488.566
101488.477
101488.382
101488.28
101488.171
101488.055
101487.932
101487.8
101487.661
101487.512
101487.354
101487.187
101487.008
101486.819
101486.618
101486.404
101486.177
101485.935
101485.678
101485.404
101485.111
101484.798
101484.463
101484.103
101483.715
101483.297
101482.845
101482.355
101481.828
101481.264
101480.661
101480.02
101479.307
101478.495
101477.583
101476.565
101475.297
101473.712
101471.911
101469.844
101467.442
101464.617
101461.739
101458.759
101455.338
101451.555
101446.575
101440.253
101432.949
101426.747
101421.672
101414.176
101404.036
101394.433
101384.65
101487.763
101487.768
101487.773
101487.775
101487.773
101487.77
101487.763
101487.753
101487.741
101487.725
101487.707
101487.685
101487.66
101487.631
101487.599
101487.564
101487.524
101487.481
101487.434
101487.382
101487.326
101487.266
101487.201
101487.13
101487.055
101486.974
101486.888
101486.796
101486.697
101486.592
101486.48
101486.361
101486.235
101486.101
101485.959
101485.809
101485.65
101485.482
101485.305
101485.117
101484.92
101484.711
101484.492
101484.26
101484.017
101483.759
101483.487
101483.199
101482.894
101482.569
101482.219
101481.831
101481.399
101480.923
101480.391
101479.789
101479.099
101478.354
101477.552
101476.647
101475.622
101474.449
101473.087
101471.527
101469.767
101467.782
101465.532
101463.03
101460.237
101457.059
101453.456
101449.396
101444.713
101439.465
101432.816
101424.715
101415.883
101407.777
101399.821
101391.697
101486.53
101486.535
101486.54
101486.542
101486.542
101486.538
101486.533
101486.524
101486.513
101486.499
101486.482
101486.462
101486.439
101486.412
101486.383
101486.35
101486.313
101486.273
101486.23
101486.182
101486.13
101486.074
101486.014
101485.949
101485.879
101485.804
101485.724
101485.639
101485.548
101485.451
101485.349
101485.239
101485.124
101485.001
101484.872
101484.735
101484.59
101484.438
101484.277
101484.107
101483.929
101483.741
101483.543
101483.335
101483.116
101482.885
101482.642
101482.387
101482.117
101481.832
101481.527
101481.199
101480.845
101480.46
101480.04
101479.576
101479.062
101478.488
101477.844
101477.116
101476.285
101475.324
101474.213
101472.929
101471.457
101469.78
101467.875
101465.71
101463.253
101460.455
101457.253
101453.601
101449.439
101444.663
101439.218
101432.903
101426.354
101418.231
101407.752
101398.387
101485.666
101485.671
101485.676
101485.678
101485.677
101485.675
101485.67
101485.662
101485.652
101485.639
101485.624
101485.606
101485.585
101485.561
101485.534
101485.505
101485.472
101485.436
101485.396
101485.353
101485.306
101485.256
101485.201
101485.143
101485.08
101485.013
101484.942
101484.865
101484.784
101484.698
101484.607
101484.511
101484.409
101484.302
101484.189
101484.07
101483.945
101483.814
101483.676
101483.533
101483.383
101483.226
101483.064
101482.894
101482.718
101482.535
101482.345
101482.148
101481.943
101481.729
101481.504
101481.265
101481.01
101480.736
101480.437
101480.11
101479.746
101479.338
101478.875
101478.344
101477.731
101477.017
101476.182
101475.203
101474.062
101472.735
101471.201
101469.433
101467.401
101465.066
101462.375
101459.269
101455.656
101451.411
101446.501
101440.871
101434.172
101426.826
101418.956
101411.762
101485.131
101485.136
101485.139
101485.14
101485.14
101485.137
101485.132
101485.125
101485.116
101485.105
101485.091
101485.075
101485.057
101485.036
101485.013
101484.987
101484.958
101484.927
101484.892
101484.855
101484.815
101484.772
101484.726
101484.676
101484.623
101484.566
101484.506
101484.442
101484.373
101484.301
101484.225
101484.145
101484.061
101483.972
101483.879
101483.781
101483.68
101483.576
101483.467
101483.354
101483.237
101483.116
101482.992
101482.865
101482.736
101482.604
101482.47
101482.334
101482.196
101482.056
101481.914
101481.768
101481.616
101481.455
101481.284
101481.097
101480.889
101480.655
101480.384
101480.068
101479.693
101479.244
101478.704
101478.053
101477.269
101476.33
101475.212
101473.887
101472.327
101470.5
101468.358
101465.835
101462.863
101459.361
101455.248
101450.484
101444.596
101438.295
101430.539
101423.038
101484.886
101484.888
101484.89
101484.89
101484.888
101484.885
101484.88
101484.874
101484.865
101484.855
101484.843
101484.829
101484.813
101484.795
101484.775
101484.753
101484.729
101484.703
101484.675
101484.644
101484.611
101484.575
101484.537
101484.496
101484.453
101484.407
101484.358
101484.306
101484.252
101484.196
101484.136
101484.073
101484.008
101483.94
101483.87
101483.796
101483.719
101483.64
101483.557
101483.471
101483.387
101483.305
101483.223
101483.142
101483.061
101482.981
101482.904
101482.831
101482.761
101482.697
101482.638
101482.585
101482.536
101482.49
101482.445
101482.399
101482.348
101482.286
101482.208
101482.105
101481.967
101481.78
101481.53
101481.2
101480.768
101480.213
101479.511
101478.635
101477.558
101476.248
101474.666
101472.764
101470.493
101467.8
101464.606
101460.868
101456.388
101451.223
101445.238
101437.945
101484.863
101484.863
101484.862
101484.86
101484.857
101484.852
101484.847
101484.84
101484.832
101484.822
101484.811
101484.799
101484.786
101484.771
101484.754
101484.736
101484.717
101484.696
101484.673
101484.649
101484.623
101484.596
101484.566
101484.535
101484.501
101484.466
101484.43
101484.392
101484.353
101484.311
101484.267
101484.223
101484.177
101484.13
101484.082
101484.035
101483.988
101483.943
101483.899
101483.856
101483.808
101483.757
101483.708
101483.66
101483.614
101483.583
101483.567
101483.558
101483.557
101483.565
101483.586
101483.618