/*--------------------------------*- C++ -*----------------------------------*\
  =========                 |
  \\      /  F ield         | OpenFOAM: The Open Source CFD Toolbox
   \\    /   O peration     | Website:  https://openfoam.org
    \\  /    A nd           | Version:  8
     \\/     M anipulation  |
\*---------------------------------------------------------------------------*/
FoamFile
{
    version     2.0;
    format      ascii;
    class       volScalarField;
    location    "0.053";
    object      p_rgh;
}
// * * * * * * * * * * * * * * * * * * * * * * * * * * * * * * * * * * * * * //

dimensions      [1 -1 -2 0 0 0 0];

internalField   nonuniform List<scalar> 
42400
(
101484.827
101484.818
101484.807
101484.798
101484.79
101484.783
101484.776
101484.77
101484.766
101484.762
101484.758
101484.756
101484.755
101484.755
101484.756
101484.758
101484.761
101484.765
101484.77
101484.776
101484.783
101484.792
101484.801
101484.812
101484.824
101484.838
101484.852
101484.868
101484.885
101484.904
101484.924
101484.947
101484.971
101484.997
101485.024
101485.055
101485.094
101485.144
101485.2
101485.247
101485.284
101485.325
101485.377
101485.443
101485.517
101485.597
101485.685
101485.779
101485.88
101485.986
101486.112
101486.265
101486.431
101486.575
101486.722
101486.908
101487.117
101487.336
101487.566
101487.807
101488.053
101488.304
101488.563
101488.831
101489.1
101489.358
101489.584
101489.728
101489.948
101490.113
101489.596
101489.466
101490.153
101489.463
101487.636
101485.76
101486.672
101489.291
101491.283
101493.216
101484.571
101484.564
101484.556
101484.55
101484.544
101484.539
101484.534
101484.531
101484.528
101484.526
101484.525
101484.524
101484.525
101484.527
101484.529
101484.533
101484.537
101484.543
101484.55
101484.558
101484.566
101484.576
101484.587
101484.6
101484.613
101484.627
101484.643
101484.659
101484.677
101484.697
101484.717
101484.739
101484.762
101484.791
101484.828
101484.869
101484.901
101484.924
101484.948
101484.982
101485.027
101485.076
101485.129
101485.185
101485.246
101485.311
101485.384
101485.475
101485.582
101485.68
101485.768
101485.879
101486.013
101486.16
101486.313
101486.48
101486.661
101486.855
101487.066
101487.304
101487.571
101487.857
101488.155
101488.47
101488.808
101489.184
101489.59
101489.933
101490.34
101490.999
101491.22
101491.15
101492.161
101492.392
101492.185
101495.8
101496.9
101496.27
101498.921
101501.319
101484.222
101484.217
101484.212
101484.207
101484.203
101484.2
101484.198
101484.196
101484.195
101484.195
101484.196
101484.197
101484.2
101484.203
101484.207
101484.213
101484.219
101484.227
101484.235
101484.245
101484.255
101484.267
101484.28
101484.294
101484.309
101484.325
101484.342
101484.36
101484.379
101484.4
101484.426
101484.454
101484.485
101484.511
101484.53
101484.55
101484.577
101484.612
101484.649
101484.687
101484.729
101484.772
101484.814
101484.865
101484.93
101485.01
101485.07
101485.119
101485.198
101485.294
101485.394
101485.502
101485.621
101485.75
101485.894
101486.058
101486.25
101486.47
101486.714
101486.985
101487.288
101487.632
101488.017
101488.451
101488.929
101489.478
101490.114
101490.741
101491.405
101492.255
101493.18
101493.806
101495.424
101498.143
101498.837
101498.338
101499.358
101502.833
101505.223
101506.564
101483.807
101483.803
101483.8
101483.797
101483.794
101483.792
101483.791
101483.79
101483.791
101483.792
101483.794
101483.797
101483.801
101483.806
101483.812
101483.819
101483.828
101483.837
101483.848
101483.859
101483.872
101483.886
101483.902
101483.918
101483.936
101483.954
101483.975
101483.998
101484.022
101484.046
101484.068
101484.09
101484.113
101484.14
101484.171
101484.204
101484.238
101484.273
101484.309
101484.342
101484.384
101484.446
101484.503
101484.538
101484.578
101484.638
101484.711
101484.782
101484.859
101484.943
101485.036
101485.143
101485.27
101485.418
101485.588
101485.78
101486.002
101486.263
101486.568
101486.923
101487.331
101487.801
101488.329
101488.929
101489.601
101490.373
101491.283
101492.284
101493.32
101494.375
101496.209
101498.447
101499.022
101499.698
101502.232
101503.467
101504.482
101505.906
101507.834
101509.656
101483.331
101483.327
101483.324
101483.322
101483.32
101483.319
101483.318
101483.318
101483.319
101483.321
101483.325
101483.329
101483.334
101483.341
101483.349
101483.358
101483.368
101483.38
101483.393
101483.407
101483.422
101483.438
101483.455
101483.475
101483.496
101483.519
101483.544
101483.568
101483.594
101483.622
101483.652
101483.684
101483.716
101483.749
101483.783
101483.818
101483.851
101483.889
101483.945
101483.994
101484.024
101484.062
101484.117
101484.175
101484.232
101484.292
101484.359
101484.434
101484.522
101484.623
101484.739
101484.871
101485.025
101485.207
101485.424
101485.683
101485.989
101486.348
101486.765
101487.25
101487.805
101488.444
101489.158
101489.969
101490.851
101491.843
101492.843
101494.103
101496.222
101498.491
101499.433
101500.043
101501.491
101502.877
101504.667
101506.51
101508.218
101509.816
101511.994
101514.58
101482.797
101482.794
101482.79
101482.788
101482.786
101482.785
101482.785
101482.785
101482.787
101482.79
101482.793
101482.798
101482.805
101482.813
101482.822
101482.833
101482.845
101482.858
101482.872
101482.89
101482.91
101482.932
101482.956
101482.981
101483.008
101483.035
101483.065
101483.096
101483.128
101483.161
101483.196
101483.232
101483.27
101483.305
101483.342
101483.394
101483.447
101483.479
101483.514
101483.566
101483.621
101483.674
101483.731
101483.793
101483.862
101483.939
101484.026
101484.124
101484.236
101484.369
101484.527
101484.715
101484.94
101485.208
101485.525
101485.898
101486.332
101486.837
101487.42
101488.086
101488.845
101489.693
101490.618
101491.615
101492.636
101494.015
101496.511
101498.46
101499.106
101499.831
101501.524
101503.321
101505.105
101506.432
101508.11
101510.793
101513.204
101515.497
101516.899
101518.015
101482.187
101482.183
101482.179
101482.176
101482.174
101482.173
101482.174
101482.175
101482.177
101482.181
101482.186
101482.192
101482.2
101482.208
101482.219
101482.233
101482.249
101482.267
101482.287
101482.308
101482.331
101482.356
101482.383
101482.412
101482.442
101482.475
101482.509
101482.545
101482.583
101482.623
101482.661
101482.7
101482.754
101482.813
101482.851
101482.888
101482.941
101482.998
101483.054
101483.111
101483.174
101483.241
101483.314
101483.395
101483.486
101483.591
101483.713
101483.857
101484.027
101484.229
101484.47
101484.758
101485.098
101485.498
101485.964
101486.503
101487.121
101487.823
101488.619
101489.493
101490.471
101491.512
101492.669
101494.302
101496.809
101498.452
101499.022
101499.98
101501.582
101503.393
101505.071
101506.848
101508.897
101511.421
101513.436
101514.722
101516.019
101517.877
101520.703
101523.137
101481.48
101481.476
101481.472
101481.469
101481.467
101481.467
101481.467
101481.469
101481.473
101481.478
101481.485
101481.493
101481.505
101481.518
101481.533
101481.549
101481.567
101481.588
101481.61
101481.636
101481.663
101481.692
101481.724
101481.758
101481.794
101481.833
101481.873
101481.913
101481.954
101482.009
101482.068
101482.11
101482.15
101482.207
101482.268
101482.327
101482.388
101482.453
101482.522
101482.597
101482.679
101482.77
101482.873
101482.99
101483.125
101483.283
101483.47
101483.69
101483.953
101484.264
101484.633
101485.066
101485.57
101486.155
101486.826
101487.59
101488.451
101489.414
101490.491
101491.68
101492.952
101494.631
101496.534
101497.652
101498.449
101499.955
101501.655
101503.203
101505.051
101506.999
101509.025
101511.003
101512.709
101514.368
101516.032
101517.924
101520.071
101522.082
101524.167
101526
101480.65
101480.646
101480.643
101480.641
101480.641
101480.642
101480.644
101480.649
101480.655
101480.663
101480.673
101480.685
101480.699
101480.714
101480.733
101480.753
101480.776
101480.802
101480.829
101480.86
101480.893
101480.928
101480.966
101481.006
101481.047
101481.09
101481.145
101481.203
101481.249
101481.294
101481.353
101481.417
101481.479
101481.544
101481.613
101481.686
101481.765
101481.85
101481.942
101482.045
101482.16
101482.291
101482.442
101482.617
101482.821
101483.062
101483.345
101483.68
101484.075
101484.536
101485.07
101485.687
101486.394
101487.197
101488.099
101489.102
101490.209
101491.414
101492.71
101494.092
101495.624
101496.924
101498.143
101499.78
101501.284
101502.746
101504.41
101506.119
101507.903
101509.843
101511.637
101513.38
101515.152
101516.861
101519.033
101521.265
101523.092
101525.206
101527.194
101528.665
101479.677
101479.675
101479.674
101479.674
101479.677
101479.681
101479.686
101479.694
101479.703
101479.715
101479.729
101479.745
101479.764
101479.785
101479.809
101479.835
101479.864
101479.896
101479.931
101479.968
101480.008
101480.049
101480.095
101480.149
101480.205
101480.254
101480.305
101480.366
101480.432
101480.498
101480.567
101480.64
101480.717
101480.8
101480.888
101480.984
101481.089
101481.205
101481.334
101481.481
101481.649
101481.842
101482.067
101482.328
101482.634
101482.991
101483.407
101483.89
101484.446
101485.082
101485.803
101486.616
101487.522
101488.524
101489.618
101490.793
101492.06
101493.396
101494.79
101496.245
101497.716
101499.205
101500.711
101502.209
101503.681
101505.347
101507.131
101508.782
101510.436
101512.066
101514.041
101516.455
101518.814
101521.201
101523.031
101524.487
101526.297
101528.405
101530.284
101532.023
101478.526
101478.527
101478.53
101478.534
101478.541
101478.549
101478.559
101478.572
101478.586
101478.604
101478.624
101478.647
101478.672
101478.701
101478.732
101478.766
101478.804
101478.844
101478.887
101478.934
101478.988
101479.042
101479.094
101479.153
101479.217
101479.285
101479.355
101479.428
101479.505
101479.587
101479.674
101479.767
101479.867
101479.975
101480.094
101480.224
101480.371
101480.536
101480.723
101480.938
101481.186
101481.472
101481.804
101482.187
101482.631
101483.141
101483.724
101484.384
101485.128
101485.958
101486.878
101487.888
101488.987
101490.184
101491.446
101492.784
101494.203
101495.699
101497.218
101498.738
101500.293
101501.754
101503.267
101505.1
101507.195
101508.98
101510.801
101513.029
101515.426
101517.349
101518.971
101520.741
101522.601
101524.291
101526.365
101528.455
101530.01
101531.742
101533.462
101535.109
101477.17
101477.176
101477.183
101477.193
101477.205
101477.219
101477.236
101477.255
101477.278
101477.303
101477.331
101477.362
101477.397
101477.435
101477.476
101477.52
101477.568
101477.623
101477.679
101477.734
101477.796
101477.864
101477.934
101478.008
101478.085
101478.167
101478.254
101478.345
101478.443
101478.547
101478.659
101478.781
101478.914
101479.061
101479.225
101479.409
101479.617
101479.855
101480.128
101480.442
101480.803
101481.218
101481.694
101482.238
101482.855
101483.551
101484.329
101485.191
101486.137
101487.164
101488.266
101489.428
101490.645
101491.92
101493.246
101494.71
101496.334
101498.129
101500.095
101502.081
101504.108
101506.177
101508.109
101509.893
101511.581
101513.128
101514.727
101516.339
101517.543
101519.269
101521.657
101523.582
101525.346
101526.818
101528.38
101530.61
101532.743
101534.576
101536.529
101538.374
101475.563
101475.575
101475.589
101475.606
101475.626
101475.648
101475.673
101475.701
101475.733
101475.768
101475.807
101475.849
101475.894
101475.944
101476
101476.057
101476.116
101476.181
101476.252
101476.325
101476.402
101476.484
101476.57
101476.661
101476.757
101476.858
101476.966
101477.082
101477.206
101477.34
101477.487
101477.649
101477.83
101478.032
101478.26
101478.519
101478.815
101479.153
101479.541
101479.985
101480.492
101481.068
101481.72
101482.453
101483.271
101484.179
101485.18
101486.273
101487.459
101488.731
101490.092
101491.53
101493.06
101494.664
101496.254
101497.718
101499.153
101500.871
101502.726
101504.124
101505.551
101507.614
101509.855
101511.725
101513.49
101514.851
101516.23
101518.313
101520.986
101523.294
101524.82
101526.323
101527.918
101529.826
101532.116
101533.774
101535.29
101537.676
101540.11
101541.897
101473.661
101473.68
101473.703
101473.729
101473.758
101473.79
101473.825
101473.865
101473.908
101473.954
101474.006
101474.062
101474.121
101474.183
101474.251
101474.324
101474.4
101474.481
101474.566
101474.656
101474.751
101474.851
101474.957
101475.069
101475.187
101475.314
101475.451
101475.598
101475.759
101475.936
101476.132
101476.351
101476.597
101476.876
101477.192
101477.552
101477.963
101478.43
101478.96
101479.561
101480.237
101480.994
101481.835
101482.763
101483.779
101484.882
101486.067
101487.332
101488.668
101490.065
101491.509
101492.997
101494.536
101496.081
101497.642
101499.499
101501.266
101502.81
101504.307
101506.547
101508.828
101510.335
101511.94
101513.524
101515.093
101517.251
101519.552
101521.167
101522.748
101524.88
101527.35
101529.705
101531.672
101533.415
101535.483
101537.676
101539.922
101541.946
101543.84
101545.494
101471.414
101471.442
101471.477
101471.514
101471.554
101471.598
101471.646
101471.699
101471.756
101471.816
101471.882
101471.952
101472.027
101472.106
101472.19
101472.279
101472.373
101472.471
101472.576
101472.685
101472.801
101472.924
101473.055
101473.194
101473.343
101473.505
101473.681
101473.873
101474.086
101474.323
101474.589
101474.887
101475.225
101475.606
101476.039
101476.528
101477.08
101477.701
101478.397
101479.17
101480.026
101480.966
101481.991
101483.101
101484.294
101485.567
101486.919
101488.362
101489.893
101491.474
101493.08
101494.632
101496.203
101497.843
101499.522
101501.509
101503.751
101505.239
101506.668
101508.508
101510.47
101512.722
101514.406
101515.977
101517.682
101519.275
101521.221
101523.632
101525.89
101527.72
101529.385
101531.252
101533.809
101536.842
101538.813
101540.438
101542.714
101544.966
101547.125
101549.299
101468.781
101468.821
101468.869
101468.919
101468.973
101469.031
101469.094
101469.161
101469.234
101469.31
101469.392
101469.479
101469.571
101469.668
101469.771
101469.879
101469.993
101470.114
101470.241
101470.376
101470.52
101470.673
101470.838
101471.016
101471.21
101471.422
101471.656
101471.916
101472.206
101472.531
101472.897
101473.309
101473.773
101474.295
101474.882
101475.536
101476.265
101477.069
101477.951
101478.912
101479.948
101481.057
101482.229
101483.447
101484.701
101485.976
101487.327
101489.05
101491.159
101493.265
101495.262
101497.221
101499.268
101501.418
101503.628
101505.257
101506.583
101508.499
101510.227
101511.287
101512.532
101513.892
101515.742
101518.075
101520.108
101522.219
101523.78
101525.214
101527.473
101530.245
101532.805
101534.727
101536.244
101538.009
101540.527
101542.693
101544.42
101546.479
101548.606
101550.638
101465.737
101465.79
101465.854
101465.919
101465.989
101466.063
101466.142
101466.226
101466.315
101466.409
101466.509
101466.614
101466.726
101466.843
101466.967
101467.098
101467.236
101467.384
101467.54
101467.708
101467.889
101468.084
101468.297
101468.53
101468.788
101469.073
101469.392
101469.749
101470.15
101470.6
101471.107
101471.675
101472.311
101473.021
101473.81
101474.68
101475.636
101476.679
101477.809
101479.027
101480.332
101481.722
101483.196
101484.741
101486.546
101488.699
101490.734
101492.518
101494.293
101496.225
101497.992
101499.474
101500.963
101502.521
101504.077
101505.692
101507.533
101509.246
101511.23
101513.75
101515.598
101516.979
101518.513
101520.148
101522.106
101524.535
101527.149
101529.84
101531.691
101532.878
101534.645
101537.417
101540.245
101542.192
101543.402
101545.205
101547.251
101549.164
101551.381
101552.772
101462.264
101462.332
101462.413
101462.494
101462.58
101462.67
101462.766
101462.866
101462.973
101463.084
101463.202
101463.327
101463.458
101463.596
101463.743
101463.899
101464.066
101464.244
101464.436
101464.645
101464.872
101465.122
101465.398
101465.705
101466.047
101466.429
101466.859
101467.342
101467.883
101468.491
101469.17
101469.927
101470.766
101471.692
101472.707
101473.812
101475.009
101476.296
101477.671
101479.129
101480.666
101482.274
101483.942
101485.699
101487.336
101488.929
101490.819
101492.454
101493.758
101495.152
101497.172
101499.534
101501.512
101503.519
101505.529
101507.549
101509.575
101511.585
101513.78
101515.913
101518.107
101520.103
101521.836
101523.595
101525.52
101527.949
101530.793
101532.813
101534.582
101537.092
101539.529
101541.115
101542.558
101544.275
101546.849
101549.503
101551.314
101552.988
101554.515
101555.962
101458.422
101458.506
101458.604
101458.702
101458.804
101458.91
101459.022
101459.139
101459.261
101459.39
101459.526
101459.669
101459.82
101459.981
101460.153
101460.337
101460.536
101460.751
101460.986
101461.245
101461.531
101461.849
101462.204
101462.601
101463.046
101463.546
101464.106
101464.733
101465.433
101466.21
101467.069
101468.014
101469.046
101470.165
101471.37
101472.658
101474.025
101475.467
101476.978
101478.551
101480.18
101481.853
101483.585
101485.351
101487.234
101488.966
101490.509
101492.452
101494.987
101497.564
101499.653
101501.572
101503.572
101505.482
101507.48
101509.483
101511.433
101513.327
101515.588
101518.278
101520.101
101521.59
101523.613
101526.023
101528.676
101531.097
101533.581
101535.755
101537.82
101539.749
101541.537
101543.877
101546.52
101548.665
101550.766
101553.198
101555.183
101556.828
101557.941
101559.246
101454.292
101454.392
101454.506
101454.621
101454.738
101454.859
101454.986
101455.118
101455.256
101455.401
101455.554
101455.717
101455.89
101456.076
101456.276
101456.494
101456.733
101456.995
101457.286
101457.61
101457.972
101458.378
101458.835
101459.348
101459.924
101460.57
101461.291
101462.093
101462.982
101463.96
101465.029
101466.191
101467.445
101468.788
101470.215
101471.717
101473.286
101474.913
101476.585
101478.291
101480.01
101481.721
101483.651
101486.064
101488.64
101491.33
101494.172
101496.644
101498.357
101499.686
101501.177
101503.232
101505.477
101507.69
101509.919
101512.172
101514.49
101516.943
101519.249
101520.944
101522.865
101525.765
101527.952
101529.601
101531.355
101533.253
101535.193
101537.656
101540.474
101543.098
101545.556
101547.5
101549.562
101551.809
101554.116
101556.109
101557.717
101559.56
101561.234
101563.409
101510.187
101510.187
101510.187
101510.187
101510.186
101510.186
101510.185
101510.183
101510.182
101510.18
101510.178
101510.176
101510.173
101510.17
101510.167
101510.163
101510.159
101510.154
101510.149
101510.143
101510.137
101510.131
101510.124
101510.116
101510.108
101510.099
101510.089
101510.079
101510.068
101510.057
101510.045
101510.032
101510.019
101510.005
101509.99
101509.976
101509.961
101509.946
101509.93
101509.915
101509.899
101509.884
101509.868
101509.854
101509.839
101509.826
101509.813
101509.802
101509.791
101509.781
101509.772
101509.762
101509.752
101509.738
101509.719
101509.69
101509.644
101509.574
101509.47
101509.319
101509.107
101508.815
101508.426
101507.921
101507.282
101506.495
101505.549
101504.433
101503.137
101501.657
101499.984
101498.12
101496.062
101493.785
101491.249
101488.471
101485.563
101482.569
101479.338
101474.941
101506.434
101506.435
101506.435
101506.434
101506.433
101506.431
101506.428
101506.424
101506.419
101506.414
101506.407
101506.4
101506.392
101506.382
101506.372
101506.361
101506.348
101506.334
101506.319
101506.303
101506.285
101506.266
101506.246
101506.224
101506.2
101506.174
101506.147
101506.118
101506.087
101506.054
101506.019
101505.982
101505.942
101505.901
101505.857
101505.811
101505.762
101505.711
101505.658
101505.602
101505.543
101505.481
101505.417
101505.35
101505.279
101505.206
101505.129
101505.048
101504.963
101504.874
101504.778
101504.675
101504.563
101504.436
101504.289
101504.117
101503.911
101503.663
101503.361
101502.99
101502.534
101501.977
101501.299
101500.486
101499.522
101498.395
101497.095
101495.605
101493.91
101491.994
101489.84
101487.45
101484.814
101481.896
101478.616
101474.926
101471.025
101467.398
101463.386
101455.82
101502.815
101502.816
101502.816
101502.815
101502.813
101502.809
101502.805
101502.798
101502.791
101502.782
101502.771
101502.759
101502.745
101502.73
101502.713
101502.694
101502.673
101502.651
101502.626
101502.599
101502.57
101502.539
101502.505
101502.469
101502.43
101502.388
101502.344
101502.296
101502.245
101502.191
101502.133
101502.072
101502.007
101501.937
101501.864
101501.787
101501.704
101501.617
101501.525
101501.428
101501.325
101501.217
101501.102
101500.981
101500.853
101500.717
101500.573
101500.42
101500.258
101500.084
101499.898
101499.695
101499.471
101499.221
101498.94
101498.62
101498.253
101497.828
101497.332
101496.749
101496.061
101495.251
101494.3
101493.192
101491.912
101490.446
101488.775
101486.877
101484.728
101482.31
101479.613
101476.626
101473.33
101469.66
101465.489
101460.627
101455.121
101449.168
101441.584
101435.069
101499.395
101499.397
101499.398
101499.397
101499.394
101499.389
101499.383
101499.374
101499.364
101499.352
101499.338
101499.322
101499.303
101499.283
101499.26
101499.234
101499.206
101499.176
101499.142
101499.106
101499.067
101499.025
101498.979
101498.93
101498.877
101498.821
101498.761
101498.696
101498.627
101498.554
101498.476
101498.392
101498.304
101498.21
101498.11
101498.003
101497.891
101497.771
101497.645
101497.511
101497.368
101497.218
101497.058
101496.888
101496.708
101496.516
101496.312
101496.095
101495.862
101495.612
101495.342
101495.046
101494.719
101494.357
101493.953
101493.498
101492.984
101492.397
101491.723
101490.945
101490.044
101489
101487.793
101486.401
101484.808
101482.995
101480.941
101478.627
101476.041
101473.145
101469.904
101466.276
101462.223
101457.704
101452.147
101445.694
101439.647
101433.054
101425.45
101419.132
101496.244
101496.247
101496.248
101496.247
101496.244
101496.239
101496.232
101496.222
101496.21
101496.195
101496.178
101496.158
101496.136
101496.111
101496.083
101496.052
101496.018
101495.981
101495.94
101495.896
101495.849
101495.797
101495.741
101495.681
101495.617
101495.548
101495.474
101495.395
101495.311
101495.221
101495.125
101495.023
101494.914
101494.798
101494.674
101494.543
101494.403
101494.255
101494.097
101493.929
101493.751
101493.561
101493.36
101493.145
101492.917
101492.673
101492.413
101492.135
101491.838
101491.517
101491.169
101490.788
101490.37
101489.91
101489.4
101488.831
101488.192
101487.47
101486.651
101485.718
101484.654
101483.442
101482.067
101480.513
101478.759
101476.774
101474.508
101471.893
101468.835
101465.265
101461.188
101456.623
101451.758
101446.528
101440.563
101434.09
101428.318
101421.586
101412.033
101402.465
101493.413
101493.417
101493.419
101493.419
101493.416
101493.41
101493.402
101493.392
101493.378
101493.362
101493.343
101493.321
101493.296
101493.268
101493.237
101493.203
101493.164
101493.123
101493.077
101493.028
101492.974
101492.916
101492.853
101492.786
101492.714
101492.636
101492.554
101492.465
101492.37
101492.269
101492.161
101492.046
101491.924
101491.793
101491.655
101491.508
101491.351
101491.184
101491.007
101490.819
101490.619
101490.406
101490.179
101489.937
101489.679
101489.403
101489.108
101488.791
101488.451
101488.082
101487.68
101487.24
101486.757
101486.224
101485.634
101484.977
101484.244
101483.422
101482.495
101481.444
101480.246
101478.875
101477.298
101475.469
101473.359
101470.931
101468.105
101465.169
101462.238
101459.071
101455.706
101451.734
101446.179
101439.433
101432.099
101424.216
101415.145
101407.724
101400.745
101392.347
101490.948
101490.952
101490.955
101490.955
101490.953
101490.948
101490.939
101490.929
101490.915
101490.898
101490.878
101490.855
101490.829
101490.799
101490.766
101490.729
101490.688
101490.643
101490.595
101490.542
101490.484
101490.422
101490.355
101490.283
101490.206
101490.123
101490.034
101489.938
101489.837
101489.728
101489.612
101489.489
101489.358
101489.218
101489.069
101488.911
101488.743
101488.565
101488.375
101488.174
101487.96
101487.734
101487.493
101487.237
101486.965
101486.675
101486.367
101486.038
101485.684
101485.302
101484.888
101484.436
101483.939
101483.39
101482.777
101482.09
101481.311
101480.422
101479.404
101478.237
101476.894
101475.459
101473.968
101472.36
101470.611
101468.738
101466.785
101464.132
101460.195
101455.444
101449.691
101444.116
101439.159
101434.158
101428.519
101420.487
101411.373
101401.686
101392.141
101384.396
101488.871
101488.876
101488.88
101488.881
101488.879
101488.874
101488.867
101488.856
101488.843
101488.826
101488.806
101488.783
101488.757
101488.727
101488.694
101488.657
101488.616
101488.571
101488.522
101488.469
101488.411
101488.348
101488.281
101488.208
101488.13
101488.046
101487.957
101487.861
101487.759
101487.65
101487.533
101487.41
101487.278
101487.138
101486.989
101486.831
101486.663
101486.485
101486.295
101486.094
101485.881
101485.653
101485.412
101485.154
101484.88
101484.587
101484.273
101483.936
101483.573
101483.181
101482.76
101482.303
101481.807
101481.274
101480.7
101480.085
101479.427
101478.703
101477.895
101476.989
101475.963
101474.721
101473.178
101471.375
101469.292
101466.874
101464.034
101461.094
101458.042
101454.586
101450.757
101445.936
101439.833
101432.592
101425.758
101419.432
101411.757
101402.161
101392.88
101383.589
101487.195
101487.201
101487.205
101487.207
101487.205
101487.201
101487.194
101487.185
101487.172
101487.156
101487.137
101487.115
101487.089
101487.06
101487.028
101486.992
101486.952
101486.908
101486.86
101486.808
101486.751
101486.69
101486.624
101486.553
101486.477
101486.396
101486.308
101486.215
101486.116
101486.01
101485.897
101485.777
101485.649
101485.514
101485.371
101485.219
101485.059
101484.889
101484.71
101484.521
101484.321
101484.111
101483.889
101483.656
101483.41
101483.15
101482.875
101482.584
101482.275
101481.946
101481.592
101481.202
101480.77
101480.295
101479.764
101479.164
101478.477
101477.721
101476.885
101475.948
101474.904
101473.716
101472.346
101470.772
101468.986
101466.971
101464.69
101462.142
101459.303
101456.092
101452.447
101448.338
101443.601
101438.21
101431.612
101423.823
101415.161
101406.119
101397.363
101389.13
101485.91
101485.916
101485.921
101485.923
101485.922
101485.918
101485.912
101485.904
101485.892
101485.877
101485.86
101485.839
101485.816
101485.789
101485.759
101485.725
101485.688
101485.647
101485.602
101485.554
101485.501
101485.444
101485.382
101485.316
101485.245
101485.169
101485.088
101485.001
101484.909
101484.811
101484.706
101484.595
101484.478
101484.353
101484.222
101484.083
101483.936
101483.781
101483.618
101483.446
101483.264
101483.073
101482.872
101482.661
101482.438
101482.203
101481.956
101481.696
101481.421
101481.129
101480.817
101480.483
101480.12
101479.727
101479.296
101478.822
101478.295
101477.706
101477.044
101476.296
101475.445
101474.466
101473.337
101472.034
101470.539
101468.835
101466.9
101464.705
101462.214
101459.379
101456.135
101452.429
101448.199
101443.342
101437.824
101431.466
101424.844
101416.904
101406.667
101396.897
101484.999
101485.004
101485.008
101485.01
101485.009
101485.006
101485.001
101484.993
101484.982
101484.969
101484.953
101484.935
101484.913
101484.889
101484.861
101484.831
101484.797
101484.76
101484.719
101484.675
101484.627
101484.575
101484.519
101484.459
101484.395
101484.326
101484.253
101484.175
101484.092
101484.004
101483.911
101483.812
101483.708
101483.598
101483.482
101483.36
101483.232
101483.097
101482.956
101482.809
101482.655
101482.494
101482.327
101482.152
101481.971
101481.782
101481.586
101481.383
101481.17
101480.949
101480.716
101480.468
101480.203
101479.919
101479.609
101479.269
101478.892
101478.469
101477.99
101477.442
101476.81
101476.077
101475.221
101474.22
101473.054
101471.7
101470.135
101468.334
101466.266
101463.891
101461.158
101458.005
101454.341
101450.042
101445.09
101439.376
101432.621
101425.484
101417.897
101410.488
101484.421
101484.425
101484.429
101484.43
101484.429
101484.426
101484.421
101484.413
101484.404
101484.392
101484.378
101484.361
101484.342
101484.32
101484.296
101484.269
101484.239
101484.207
101484.171
101484.133
101484.091
101484.047
101483.998
101483.947
101483.892
101483.833
101483.771
101483.705
101483.634
101483.56
101483.481
101483.398
101483.311
101483.219
101483.123
101483.022
101482.917
101482.808
101482.695
101482.578
101482.456
101482.331
101482.202
101482.069
101481.933
101481.795
101481.654
101481.51
101481.365
101481.217
101481.066
101480.91
101480.747
101480.576
101480.392
101480.192
101479.97
101479.72
101479.434
101479.099
101478.705
101478.235
101477.672
101476.996
101476.186
101475.219
101474.07
101472.712
101471.117
101469.253
101467.074
101464.511
101461.496
101457.95
101453.792
101448.965
101443.044
101436.718
101428.81
101421.273
101484.139
101484.141
101484.143
101484.143
101484.141
101484.137
101484.132
101484.125
101484.116
101484.105
101484.092
101484.078
101484.061
101484.042
101484.021
101483.998
101483.973
101483.946
101483.916
101483.884
101483.849
101483.812
101483.772
101483.729
101483.684
101483.636
101483.585
101483.531
101483.474
101483.415
101483.352
101483.287
101483.218
101483.147
101483.073
101482.996
101482.915
101482.831
101482.744
101482.654
101482.563
101482.475
101482.388
101482.3
101482.213
101482.126
101482.042
101481.961
101481.883
101481.81
101481.742
101481.678
101481.618
101481.561
101481.503
101481.444
101481.378
101481.3
101481.205
101481.084
101480.925
101480.717
101480.445
101480.089
101479.631
101479.048
101478.316
101477.408
101476.297
101474.953
101473.335
101471.394
101469.082
101466.346
101463.105
101459.314
101454.784
101449.573
101443.511
101436.156
101484.087
101484.086
101484.086
101484.083
101484.08
101484.075
101484.069
101484.062
101484.053
101484.043
101484.032
101484.019
101484.004
101483.988
101483.971
101483.952
101483.931
101483.909
101483.885
101483.859
101483.832
101483.803
101483.771
101483.738
101483.703
101483.665
101483.627
101483.587
101483.544
101483.5
101483.453
101483.405
101483.356
101483.305
101483.254
101483.203
101483.152
101483.102
101483.053
101483.005
101482.953
101482.898
101482.842
101482.787
101482.735
101482.696
101482.673
101482.656
101482.646
101482.645
101482.656