/*--------------------------------*- C++ -*----------------------------------*\
  =========                 |
  \\      /  F ield         | OpenFOAM: The Open Source CFD Toolbox
   \\    /   O peration     | Website:  https://openfoam.org
    \\  /    A nd           | Version:  8
     \\/     M anipulation  |
\*---------------------------------------------------------------------------*/
FoamFile
{
    version     2.0;
    format      ascii;
    class       surfaceScalarField;
    location    "0.053";
    object      phi;
}
// * * * * * * * * * * * * * * * * * * * * * * * * * * * * * * * * * * * * * //

dimensions      [1 0 -1 0 0 0 0];

internalField   nonuniform List<scalar> 
84340
(
-5.24643565e-08
2.95555003e-07
-2.43317752e-07
-2.10328297e-07
9.0625988e-07
-7.48763406e-07
-4.78981561e-07
1.557062e-06
-1.28886308e-06
-8.65359072e-07
2.24891516e-06
-1.86306734e-06
-1.37730588e-06
2.98251695e-06
-2.47116678e-06
-2.02318772e-06
3.75885463e-06
-3.11363194e-06
-2.81144741e-06
4.57890194e-06
-3.79136286e-06
-3.75027049e-06
5.44346291e-06
-4.50542322e-06
-4.84734299e-06
6.35311089e-06
-5.25688776e-06
-6.10968625e-06
7.30818523e-06
-6.04676163e-06
-7.54354958e-06
8.3088032e-06
-6.87593532e-06
-9.15433819e-06
9.35487033e-06
-7.74515898e-06
-1.09465623e-05
1.04460975e-05
-8.65503962e-06
-1.29237899e-05
1.15820244e-05
-9.60605929e-06
-1.50885869e-05
1.27620359e-05
-1.05986064e-05
-1.74424506e-05
1.39853857e-05
-1.16330034e-05
-1.99857076e-05
1.52511963e-05
-1.2709545e-05
-2.27173951e-05
1.65584552e-05
-1.38285084e-05
-2.56351064e-05
1.79060004e-05
-1.49901777e-05
-2.87348044e-05
1.92924911e-05
-1.61948424e-05
-3.20106074e-05
2.07163721e-05
-1.7442795e-05
-3.54545331e-05
2.21758289e-05
-1.87343211e-05
-3.90562098e-05
2.36687279e-05
-2.00696808e-05
-4.2802549e-05
2.51925564e-05
-2.14490778e-05
-4.66773735e-05
2.67443354e-05
-2.28726269e-05
-5.06609971e-05
2.83205295e-05
-2.43403006e-05
-5.4729775e-05
2.99169232e-05
-2.58518497e-05
-5.88555638e-05
3.15284672e-05
-2.74067207e-05
-6.30051271e-05
3.31490672e-05
-2.90039225e-05
-6.71394813e-05
3.47713961e-05
-3.0641872e-05
-7.12134521e-05
3.63868668e-05
-3.2318182e-05
-7.51753211e-05
3.79854182e-05
-3.40293322e-05
-7.89658042e-05
3.95544401e-05
-3.57702966e-05
-8.25168955e-05
4.10786081e-05
-3.75344852e-05
-8.5747613e-05
4.25371248e-05
-3.93140953e-05
-8.85700739e-05
4.39138643e-05
-4.10997202e-05
-9.08977741e-05
4.51952112e-05
-4.28764965e-05
-9.2633771e-05
4.63417096e-05
-4.46156413e-05
-9.36431407e-05
4.72991224e-05
-4.63007478e-05
-9.37318005e-05
4.79992857e-05
-4.79226703e-05
-9.26950976e-05
4.83897852e-05
-4.94396591e-05
-9.03259894e-05
4.84033801e-05
-5.07869123e-05
-8.64092769e-05
4.79533368e-05
-5.18859405e-05
-8.06924655e-05
4.69465638e-05
-5.26807785e-05
-7.28917014e-05
4.52749857e-05
-5.30947756e-05
-6.2686194e-05
4.28071661e-05
-5.30333862e-05
-4.97190027e-05
3.9384019e-05
-5.23738103e-05
-3.36587603e-05
3.48999215e-05
-5.09847327e-05
-1.40290369e-05
2.9113298e-05
-4.87697741e-05
9.47672423e-06
2.20226845e-05
-4.55575832e-05
3.76372732e-05
1.29161884e-05
-4.11082874e-05
7.12231154e-05
1.65011393e-06
-3.52693445e-05
0.000111081945
-1.19771751e-05
-2.79175114e-05
0.000158300006
-2.8401974e-05
-1.88558868e-05
0.000214197032
-4.87141331e-05
-7.22711774e-06
0.000279968739
-7.29484172e-05
7.12835754e-06
0.000357210469
-0.000101665052
2.43700593e-05
0.000447226872
-0.000135615923
4.55407313e-05
0.000551606465
-0.000175537198
7.10923057e-05
0.000672299751
-0.000222237305
0.000101471111
0.00081130343
-0.000276526369
0.000137441019
0.000970568973
-0.000339205941
0.000179849613
0.00115202902
-0.000411068887
0.000229507452
0.00135760189
-0.000493051344
0.000287366355
0.00158889672
-0.000585750894
0.00035434004
0.00184797224
-0.000690682384
0.000431492592
0.00213544397
-0.000805910487
0.000518326109
0.00244710781
-0.000928006482
0.000616232869
0.00279090828
-0.0010812971
0.000737389908
0.00318904496
-0.00124682495
0.0008485835
0.0035905026
-0.0013460364
0.000944477007
0.00393780373
-0.00153071132
0.00118331242
0.0044154302
-0.00187304714
0.00139532645
0.00505941109
-0.00199323935
0.00134916863
0.00553589698
-0.00202777506
0.00155120739
0.005802332
-0.00235860642
0.00209209699
0.00617459416
-0.00274178615
0.00236946356
0.00678620739
-0.0028849726
0.00227331241
0.00735134651
-0.00291283019
0.0023476708
-0.00304385317
0.00281304237
0.00758215848
-4.0432887e-08
3.35685183e-07
-1.61624323e-07
1.02702035e-06
-3.67514099e-07
1.76245436e-06
-6.63445568e-07
2.54428763e-06
-1.05558833e-06
3.37404226e-06
-1.55048482e-06
4.25307601e-06
-2.15479459e-06
5.1824775e-06
-2.87490275e-06
6.16277473e-06
-3.71667361e-06
7.19401888e-06
-4.68527143e-06
8.27584842e-06
-5.7850302e-06
9.40754928e-06
-7.01935438e-06
1.0588097e-05
-8.39063548e-06
1.18161886e-05
-9.90016756e-06
1.30902658e-05
-1.15480638e-05
1.44085316e-05
-1.33331395e-05
1.57689414e-05
-1.52527859e-05
1.71691923e-05
-1.73028074e-05
1.86066847e-05
-1.94772271e-05
2.00784733e-05
-2.17680583e-05
2.15812078e-05
-2.41650442e-05
2.31110598e-05
-2.66553443e-05
2.46636316e-05
-2.9223196e-05
2.62338639e-05
-3.18495054e-05
2.78159138e-05
-3.45113889e-05
2.94030073e-05
-3.71816504e-05
3.09872983e-05
-3.98282446e-05
3.25597155e-05
-4.24137372e-05
3.41098239e-05
-4.48946849e-05
3.56255082e-05
-4.72201826e-05
3.70919832e-05
-4.93324886e-05
3.84938432e-05
-5.11666181e-05
3.98137697e-05
-5.2651562e-05
4.10330803e-05
-5.37151369e-05
4.21353144e-05
-5.42635377e-05
4.30780523e-05
-5.41748669e-05
4.38170654e-05
-5.32842114e-05
4.42956966e-05
-5.14139917e-05
4.44618527e-05
-4.83793992e-05
4.4253977e-05
-4.3986917e-05
4.35952699e-05
-3.80173515e-05
4.24076477e-05
-3.02177983e-05
4.05901569e-05
-2.03150014e-05
3.80356611e-05
-7.98182614e-06
3.45972253e-05
7.09516068e-06
3.01804305e-05
2.53232036e-05
2.45601111e-05
4.68915504e-05
1.77949753e-05
7.26284404e-05
9.14082069e-06
0.000103240632
-1.52271083e-06
0.000139522642
-1.42853527e-05
0.000182385302
-2.99750572e-05
0.000232865108
-4.88607933e-05
0.000292204028
-7.13501736e-05
0.000361793987
-9.80292533e-05
0.000442592854
-0.000129554103
0.000536195073
-0.000166595937
0.000644356002
-0.000209876386
0.000768842767
-0.000260158518
0.000911455449
-0.000318211611
0.00107401674
-0.000384866843
0.00125815655
-0.000460742204
0.00146538632
-0.000546518168
0.00169689313
-0.000642659878
0.00195365842
-0.000749899035
0.0022363863
-0.000868559491
0.00254616275
-0.00100053818
0.00288488171
-0.00114470763
0.00324695779
-0.00129015994
0.00361788684
-0.00145230233
0.00402928687
-0.00165830047
0.00450574341
-0.00182256684
0.00491366818
-0.00193870833
0.00524165703
-0.00220110551
0.00573521463
-0.00248685894
0.00629071372
-0.00258332768
0.00661656561
-0.00268450948
0.00675291099
-0.00287817451
0.0069208992
-0.0030530026
0.00720389755
-0.00319586155
-0.00331048361
0.00747051842
-2.92658358e-08
3.64535821e-07
-1.16529625e-07
1.11369e-06
-2.64373277e-07
1.90961033e-06
-4.76460442e-07
2.7556015e-06
-7.57194955e-07
3.65392321e-06
-1.11128542e-06
4.60623506e-06
-1.54328712e-06
5.61346954e-06
-2.05733021e-06
6.67572747e-06
-2.65706672e-06
7.79258024e-06
-3.34534883e-06
8.96286553e-06
-4.12408226e-06
1.01849217e-05
-4.99410725e-06
1.14566586e-05
-5.95509372e-06
1.27756015e-05
-7.00543126e-06
1.4138912e-05
-8.14210846e-06
1.55433906e-05
-9.36057438e-06
1.69854532e-05
-1.06545675e-05
1.84610848e-05
-1.2015918e-05
1.99657774e-05
-1.34343102e-05
2.1494438e-05
-1.48970028e-05
2.30412904e-05
-1.63884956e-05
2.45997447e-05
-1.78901088e-05
2.61622242e-05
-1.93795101e-05
2.77200128e-05
-2.0830196e-05
2.92630985e-05
-2.22109509e-05
3.07799896e-05
-2.34857489e-05
3.22580285e-05
-2.4613659e-05
3.368323e-05
-2.55485173e-05
3.50399448e-05
-2.62391857e-05
3.63110835e-05
-2.66308531e-05
3.74781553e-05
-2.66521676e-05
3.85092017e-05
-2.62162155e-05
3.93713749e-05
-2.52182307e-05
4.0028113e-05
-2.35229576e-05
4.0432484e-05
-2.09854828e-05
4.05323894e-05
-1.74465578e-05
4.02692322e-05
-1.2732804e-05
3.9572235e-05
-6.65534738e-06
3.83738625e-05
1.00345229e-06
3.65837358e-05
1.04864867e-05
3.40998301e-05
2.20964557e-05
3.07842219e-05
3.61442416e-05
2.65278236e-05
5.28395956e-05
2.1324527e-05
7.26119242e-05
1.4807757e-05
9.61065107e-05
6.66751334e-06
0.000123917487
-3.27031557e-06
0.000156757864
-1.50666616e-05
0.000195531591
-2.96561949e-05
0.000241115177
-4.71315808e-05
0.000294700925
-6.78984813e-05
0.000357198089
-9.25019813e-05
0.00042981677
-0.000121511778
0.000513982929
-0.000155551608
0.000611208579
-0.000195293511
0.000723052055
-0.000241439869
0.000851169452
-0.000294759282
0.000997204171
-0.000355961122
0.00116272313
-0.00042573207
0.00134922148
-0.000504770036
0.00155795719
-0.000593666479
0.00179008713
-0.0006929362
0.00204637416
-0.000802867528
0.00232689301
-0.000923239553
0.00263122138
-0.0010542871
0.00295831214
-0.00119570911
0.0033062769
-0.00134856144
0.00367448296
-0.00151297188
0.00406530436
-0.00168103969
0.00445494689
-0.00184200323
0.0048271842
-0.00203059641
0.00524429061
-0.0022397293
0.00568955975
-0.0023840307
0.00600160649
-0.00251320382
0.00620964489
-0.00269495101
0.00646818837
-0.00284193642
0.00674924567
-0.00296562571
0.00693450533
-0.00306347399
0.00705019687
-0.00316873119
0.0071521001
-0.00329779911
-0.00341024925
0.00725184036
-2.21164031e-08
3.86324731e-07
-8.73909756e-08
1.17850183e-06
-1.97103249e-07
2.01879123e-06
-3.53340028e-07
2.91124304e-06
-5.58645019e-07
3.8585719e-06
-8.15742229e-07
4.86261539e-06
-1.12706038e-06
5.92400824e-06
-1.49454167e-06
7.0423633e-06
-1.91916126e-06
8.21628375e-06
-2.40083053e-06
9.44354253e-06
-2.93856021e-06
1.07215764e-05
-3.53009927e-06
1.20470328e-05
-4.17179485e-06
1.34160346e-05
-4.85846092e-06
1.48242097e-05
-5.58322977e-06
1.62666759e-05
-6.33736651e-06
1.7737982e-05
-7.11004903e-06
1.92320242e-05
-7.88806789e-06
2.07419074e-05
-8.65549138e-06
2.22598144e-05
-9.39330599e-06
2.37768882e-05
-1.00790977e-05
2.52831356e-05
-1.06872122e-05
2.67677389e-05
-1.11883318e-05
2.82183159e-05
-1.15493598e-05
2.9621085e-05
-1.17333133e-05
3.09606583e-05
-1.16932566e-05
3.22144245e-05
-1.13745221e-05
3.33606652e-05
-1.07127723e-05
3.43740564e-05
-9.63154257e-06
3.52253783e-05
-8.03753097e-06
3.58793099e-05
-5.82772973e-06
3.629418e-05
-2.88415462e-06
3.64221701e-05
9.31386232e-07
3.6206471e-05
5.77647429e-06
3.5580789e-05
1.18172118e-05
3.44845098e-05
1.92448133e-05
3.28339206e-05
2.82729971e-05
3.05357197e-05
3.91680202e-05
2.74698555e-05
5.22105689e-05
2.35314732e-05
6.75932193e-05
1.87066748e-05
8.57454173e-05
1.26207845e-05
0.000107201054
5.06028954e-06
0.000132516652
-4.00392986e-06
0.000162342772
-1.50324274e-05
0.000197457662
-2.84626871e-05
0.000238671826
-4.45010494e-05
0.000287128129
-6.35409502e-05
0.000343534271
-8.60818338e-05
0.000409014254
-0.000112632779
0.000484839402
-0.000143746718
0.000572356365
-0.000180044247
0.0006730027
-0.000222185736
0.000788281478
-0.000270860463
0.000919684648
-0.00032672928
0.00106869552
-0.000390486174
0.00123669326
-0.000462795677
0.00142497649
-0.000544286828
0.001634669
-0.000635469611
0.00186655047
-0.00073669651
0.00212097247
-0.000848132425
0.00239776539
-0.000969772131
0.00269614782
-0.0011012923
0.00301437
-0.00124150362
0.00334950135
-0.00138946026
0.00369777822
-0.00154402781
0.00405510966
-0.00170593519
0.00441380145
-0.0018717063
0.00477683987
-0.00204412149
0.00513917793
-0.00220438411
0.00546282795
-0.00235428706
0.00573131055
-0.00250825398
0.00599365634
-0.00264643074
0.00623371204
-0.0027533121
0.0063922111
-0.00285348889
0.00650998723
-0.0029597525
0.00661869917
-0.00307437962
0.00674222808
-0.00318704259
0.00686461459
-0.00329116156
0.00697276927
-0.00340599008
-0.0035085661
0.00707106571
-1.99291546e-08
4.05772757e-07
-7.78773541e-08
1.23577233e-06
-1.74009893e-07
2.11414741e-06
-3.08913936e-07
3.04528004e-06
-4.83288509e-07
4.03199452e-06
-6.9762132e-07
5.07591392e-06
-9.51992741e-07
6.17726251e-06
-1.24571789e-06
7.33488621e-06
-1.57693873e-06
8.54621292e-06
-1.94264565e-06
9.8078634e-06
-2.33811534e-06
1.11155603e-05
-2.75703227e-06
1.24643581e-05
-3.19156971e-06
1.38488674e-05
-3.63198166e-06
1.52627969e-05
-4.06636857e-06
1.66991097e-05
-4.48044896e-06
1.81499729e-05
-4.85734895e-06
1.96066888e-05
-5.17745183e-06
2.1059618e-05
-5.41818884e-06
2.249799e-05
-5.55266448e-06
2.3908628e-05
-5.54959755e-06
2.52771459e-05
-5.37246561e-06
2.65874801e-05
-4.97890719e-06
2.78214114e-05
-4.31938372e-06
2.89579814e-05
-3.33577689e-06
2.99732178e-05
-1.9639691e-06
3.0838509e-05
-1.28101869e-07
3.15203945e-05
2.26130134e-06
3.1979935e-05
5.30985546e-06
3.2171747e-05
9.14067319e-06
3.20430263e-05
1.3885864e-05
3.15431122e-05
1.96960349e-05
3.06056785e-05
2.67415527e-05
2.91541487e-05
3.52119004e-05
2.71031183e-05
4.5340231e-05
2.4348295e-05
5.74067556e-05
2.07589012e-05
7.16028294e-05
1.6330472e-05
8.82714207e-05
1.07914807e-05
0.000107925414
3.86709535e-06
0.000131059959
-4.43907642e-06
0.000158243149
-1.4574626e-05
0.000190144118
-2.68539199e-05
0.00022763367
-4.15078049e-05
0.000271490042
-5.89042669e-05
0.000322480049
-7.94694215e-05
0.000381621185
-0.000103660255
0.000450047716
-0.000131987056
0.000528958653
-0.000165013995
0.000619637432
-0.000203334563
0.000723432744
-0.000247566782
0.000841722938
-0.000298361023
0.000975880371
-0.000356371618
0.0011272322
-0.000422242776
0.00129703917
-0.00049656903
0.00148636296
-0.000579845459
0.00169596472
-0.000672434499
0.00192619087
-0.000774549498
0.00217692866
-0.000886242553
0.00244752343
-0.0010073252
0.00273653006
-0.00113717194
0.00304178903
-0.0012750632
0.00336016816
-0.00141970305
0.00368803049
-0.00156939729
0.00402037802
-0.00172183925
0.00435032205
-0.00187400354
0.0046742942
-0.00202993956
0.00498281086
-0.00218025422
0.00526149338
-0.00232283392
0.00550939582
-0.00245231905
0.00572083058
-0.00256576347
0.00588110583
-0.00266856774
0.00600560784
-0.0027709644
0.00612567571
-0.00287341672
0.0062467981
-0.00297465257
0.00636776836
-0.00308075996
0.00647044841
-0.003177092
0.0065614126
-0.00327804208
0.0066605147
-0.00339029867
0.00677152993
-0.00351703526
-0.00362194046
0.00688488396
-2.15102568e-08
4.26971519e-07
-8.3367813e-08
1.29719328e-06
-1.84536187e-07
2.21481682e-06
-3.24028402e-07
3.18421473e-06
-5.0057854e-07
4.20793072e-06
-7.12313816e-07
5.28697882e-06
-9.56427147e-07
6.42064712e-06
-1.22888344e-06
7.60655211e-06
-1.5244077e-06
8.84088015e-06
-1.83610772e-06
1.01186342e-05
-2.1550111e-06
1.14334556e-05
-2.47014059e-06
1.27783941e-05
-2.76801928e-06
1.41455602e-05
-3.03268063e-06
1.55261717e-05
-3.24548577e-06
1.69105188e-05
-3.38459493e-06
1.82875706e-05
-3.4245192e-06
1.96449775e-05
-3.33575268e-06
2.09690768e-05
-3.08438223e-06
2.22446942e-05
-2.63206725e-06
2.34542326e-05
-1.93470209e-06
2.45775337e-05
-9.40899328e-07
2.55912501e-05
4.09557826e-07
2.64683341e-05
2.18743302e-06
2.71772734e-05
4.47582767e-06
2.76817593e-05
7.36622327e-06
2.79448096e-05
1.09629442e-05
2.79201115e-05
1.5385083e-05
2.75539584e-05
2.07685245e-05
2.67841706e-05
2.72675819e-05
2.55395196e-05
3.50662096e-05
2.37396961e-05
4.43784721e-05
2.12882717e-05
5.54595701e-05
1.80675169e-05
6.8506689e-05
1.40500362e-05
8.37985708e-05
9.05005147e-06
0.000101800454
2.75030769e-06
0.00012294925
-4.82552068e-06
0.000147753605
-1.40207013e-05
0.000176812158
-2.51999407e-05
0.000210898393
-3.85344469e-05
0.000250669433
-5.43555189e-05
0.000296845882
-7.30409873e-05
0.000350330189
-9.50035846e-05
0.00041211737
-0.000120703848
0.000483272051
-0.000150637559
0.000564941669
-0.000185344453
0.000658336051
-0.000225397197
0.000764699096
-0.000271393995
0.00088529643
-0.000323950157
0.0010213837
-0.000383673662
0.00117413738
-0.000451135812
0.00134458225
-0.000526839262
0.00153349281
-0.000611178067
0.00174127992
-0.000704382207
0.00196789488
-0.000806486389
0.00221274364
-0.000917308436
0.00247461518
-0.00103644544
0.00275159586
-0.00116324695
0.00304105726
-0.00129680975
0.00333942321
-0.00143556065
0.00364250755
-0.00157817003
0.00394510001
-0.00172231801
0.0042425613
-0.00186688129
0.00452991363
-0.00200921447
0.00479906088
-0.00214317269
0.00503813706
-0.00226903608
0.00524101002
-0.00238314962
0.00540414826
-0.00248600311
0.00553909955
-0.00258730079
0.00565719096
-0.00268387669
0.00577010301
-0.00278150431
0.0058753458
-0.00287624068
0.00597109922
-0.00296920108
0.00606150867
-0.0030650874
0.00615570096
-0.00317498212
0.00626108953
-0.00328250965
0.00636476779
-0.00338174488
0.00645648143
-0.00348204079
0.00653947446
-0.00360006136
-0.00371946636
0.00663697759
-2.46845524e-08
4.51205746e-07
-9.46615318e-08
1.36654133e-06
-2.07452876e-07
2.32689168e-06
-3.60164004e-07
3.33612859e-06
-5.49138659e-07
4.39603216e-06
-7.69614196e-07
5.50650735e-06
-1.01538151e-06
6.66539335e-06
-1.27847801e-06
7.86855144e-06
-1.54892021e-06
9.11014589e-06
-1.81446016e-06
1.0382914e-05
-2.0607101e-06
1.1678356e-05
-2.27046575e-06
1.29867057e-05
-2.42315048e-06
1.42967011e-05
-2.49481202e-06
1.55961811e-05
-2.45771292e-06
1.68716517e-05
-2.27993536e-06
1.81079067e-05
-1.92482103e-06
1.92878504e-05
-1.35010818e-06
2.03922114e-05
-5.06361512e-07
2.13986453e-05
6.62721238e-07
2.2282691e-05
2.2213281e-06
2.30163007e-05
4.24304203e-06
2.35667315e-05
6.81146467e-06
2.38969115e-05
1.00217498e-05
2.39637795e-05
1.39820782e-05
2.37179976e-05
1.88207135e-05
2.31025009e-05
2.46852377e-05
2.20516542e-05
3.17442516e-05
2.04907329e-05
4.01925428e-05
1.83313682e-05
5.02594669e-05
1.54677588e-05
6.21380282e-05
1.18559265e-05
7.60798364e-05
7.34090715e-06
9.24974296e-05
1.64406833e-06
0.000111776356
-5.23514568e-06
0.000134368809
-1.35492177e-05
0.00016078015
-2.36684272e-05
0.000191688977
-3.57423227e-05
0.000227725884
-5.00662084e-05
0.000269494023
-6.69773646e-05
0.000317791191
-8.68416345e-05
0.000373491699
-0.000110066857
0.000437540157
-0.000137101161
0.000510953137
-0.000168429248
0.000594804918
-0.000204569286
0.000690220422
-0.000246067726
0.000798343658
-0.000293483387
0.000920305494
-0.000347375824
0.00105717849
-0.000408284902
0.00120991366
-0.000476704412
0.00137926615
-0.000553046535
0.00156571434
-0.000637605893
0.00176935067
-0.000730498602
0.0019897838
-0.000831634114
0.00222606349
-0.000940683868
0.00247661862
-0.00105706258
0.00273915675
-0.00117986678
0.00301059356
-0.00130790173
0.00328710951
-0.00143978179
0.00356424918
-0.0015739678
0.00383714002
-0.00170846963
0.00410069441
-0.00184174248
0.0043503643
-0.00197200588
0.00457834108
-0.00209487494
0.00477651933
-0.00220740861
0.00494301571
-0.00230968648
0.0050783415
-0.00240438319
0.00519422745
-0.0024990609
0.00529771381
-0.00258951221
0.00539150272
-0.00268110738
0.005483893
-0.00277628594
0.00557607107
-0.00287370354
0.00566787778
-0.00296806938
0.00575676113
-0.00305810697
0.00584155241
-0.00314990219
0.00591554084
-0.00324899568
0.00598941945
-0.00335642181
0.00607964484
-0.00347200273
0.00617843687
-0.00358085426
0.0062637735
-0.00368541792
-0.00379645006
0.00634073587
-2.58659063e-08
4.76815027e-07
-9.81009451e-08
1.43841914e-06
-2.1235705e-07
2.4407412e-06
-3.63299754e-07
3.48661793e-06
-5.44247098e-07
4.57648063e-06
-7.46807625e-07
5.70852312e-06
-9.6052862e-07
6.87852175e-06
-1.17257552e-06
8.07995484e-06
-1.36741168e-06
9.30428372e-06
-1.52645232e-06
1.05411969e-05
-1.62768333e-06
1.17787638e-05
-1.64538596e-06
1.30035141e-05
-1.54994176e-06
1.42002858e-05
-1.30691036e-06
1.5352094e-05
-8.76334791e-07
1.64399287e-05
-2.12336255e-07
1.74426626e-05
7.37535796e-07
1.83366261e-05
2.0332505e-06
1.90950295e-05
3.74284902e-06
1.96874563e-05
5.94468998e-06
2.00791278e-05
8.72844386e-06
2.02306812e-05
1.21967771e-05
2.00963792e-05
1.64674247e-05
1.96240807e-05
2.1675135e-05
1.87537112e-05
2.79739954e-05
1.74165913e-05
3.5541714e-05
1.55320379e-05
4.45847756e-05
1.30056329e-05
5.52883434e-05
9.78396771e-06
6.78853828e-05
5.73090086e-06
8.27346567e-05
6.1485821e-07
0.000100175326
-5.5886234e-06
0.000120603026
-1.30910095e-05
0.000144460675
-2.22181477e-05
0.000172329042
-3.31084292e-05
0.000204800132
-4.60256028e-05
0.000242396283
-6.12702786e-05
0.000285816525
-7.91687051e-05
0.000335827668
-0.000100083968
0.00039325901
-0.00012441585
0.000459007908
-0.000152598248
0.000534027684
-0.000185094947
0.000619312441
-0.000222394843
0.000715877283
-0.000265003671
0.000824729556
-0.000313431827
0.000946828802
-0.00036817798
0.0010830413
-0.00042970766
0.00123407981
-0.000498426939
0.00140043191
-0.000574650496
0.00158227705
-0.000658564099
0.00177939217
-0.000750177259
0.00199106802
-0.000849297669
0.00221604152
-0.000955487603
0.00245246629
-0.00106807391
0.00269784597
-0.00118607814
0.0029489887
-0.00130821949
0.00320204567
-0.0014329376
0.00345253412
-0.00155840373
0.00369553124
-0.00168279227
0.00392584853
-0.00180429838
0.00413915052
-0.00192178481
0.00433138949
-0.00203399422
0.00449727811
-0.00213790737
0.00463465037
-0.00223226166
0.00474781412
-0.00232058825
0.00484621246
-0.00240809871
0.00493561261
-0.00249379873
0.00501670693
-0.00258017182
0.00509399348
-0.00266681328
0.00516749969
-0.00275462981
0.00524068284
-0.00284948681
0.0053117591
-0.00294479836
0.00538285153
-0.00303918308
0.0054587738
-0.0031340541
0.0055379759
-0.00322913053
0.00561819745
-0.00332924056
0.00569478808
-0.00343303435
0.00576467028
-0.00354190913
0.00583782082
-0.00365402791
0.00592216452
-0.00376978465
-0.00388367288
0.00600936844
-2.32095719e-08
4.99654367e-07
-8.53771641e-08
1.50007247e-06
-1.79476296e-07
2.53425655e-06
-2.9684859e-07
3.60334206e-06
-4.26816449e-07
4.70573969e-06
-5.56263295e-07
5.83720219e-06
-6.69215427e-07
6.99064645e-06
-7.46446979e-07
8.15629762e-06
-7.65050829e-07
9.32193519e-06
-6.98017697e-07
1.04731445e-05
-5.13766671e-07
1.15934218e-05
-1.75548975e-07
1.26641292e-05
3.59017093e-07
1.36644719e-05
1.13847825e-06
1.45712994e-05
2.21828684e-06
1.53586954e-05
3.6617782e-06
1.59976501e-05
5.54144092e-06
1.64553396e-05
7.94000155e-06
1.66947348e-05
1.09519083e-05
1.66736969e-05
1.46850336e-05
1.63440238e-05
1.92626395e-05
1.56509613e-05
2.48248461e-05
1.45319142e-05
3.15324849e-05
1.29140288e-05
3.95697577e-05
1.07138574e-05
4.91088385e-05
7.87474112e-06
6.03793032e-05
4.25862059e-06
7.36794301e-05
-2.97611913e-07
8.93113299e-05
-5.85125667e-06
0.000107624247
-1.25856139e-05
0.000129008938
-2.07737164e-05
0.000153965042
-3.05489046e-05
0.00018301601
-4.21464726e-05
0.000216625001
-5.58319816e-05
0.000255406499
-7.18951446e-05
0.000300033465
-9.06581972e-05
0.000351232787
-0.000112475678
0.000409790298
-0.000137732791
0.000476541991
-0.000166842752
0.000552361279
-0.000200242763
0.000638142379
-0.000238387533
0.000734777934
-0.00028173928
0.000843128176
-0.000330754477
0.000963981084
-0.000385866621
0.00109800344
-0.000447464892
0.00124568243
-0.000515868373
0.00140725812
-0.000591295461
0.0015826459
-0.000673827663
0.0017713542
-0.000763372658
0.00197240177
-0.000859625989
0.00218426803
-0.000962057553
0.00240488085
-0.00106992403
0.00263161147
-0.00118223129
0.00286125761
-0.00129773269
0.00309012246
-0.00141495526
0.00331411547
-0.00153222444
0.00352897649
-0.00164781034
0.00373049564
-0.00175993442
0.00391461525
-0.00186692333
0.00407838426
-0.00196807869
0.00421946794
-0.00206287998
0.00433693748
-0.00215147648
0.00443397651
-0.00223495819
0.00451800177
-0.00231629851
0.0045952235
-0.00239782254
0.00466546114
-0.00247834824
0.00473149867
-0.00255984939
0.00479514979
-0.00264383674
0.00485763022
-0.00272930815
0.00491909334
-0.00281610786
0.00497649105
-0.00290690212
0.00503408514
-0.00300241308
0.00509439615
-0.00309951494
0.00515893521
-0.00319861517
0.00522796914
-0.00329818675
0.00530059407
-0.00340188665
0.00537606235
-0.00350852462
0.0054500249
-0.00361589176
0.00552169065
-0.00372572078
0.00559571626
-0.00384383868
-0.00396175219
0.0056737736
-1.52393261e-08
5.14711973e-07
-5.08212637e-08
1.53540373e-06
-9.57949563e-08
2.5789464e-06
-1.36839338e-07
3.64407065e-06
-1.57779632e-07
4.7263327e-06
-1.39086085e-07
5.81812913e-06
-5.73709548e-08
6.90851766e-06
1.15126454e-07
7.98334984e-06
4.11028476e-07
9.02554303e-06
8.68284252e-07
1.00153551e-05
1.53074207e-06
1.09303827e-05
2.44876712e-06
1.17454708e-05
3.68005784e-06
1.2432491e-05
5.29052476e-06
1.29600806e-05
7.35551974e-06
1.32928814e-05
9.96091805e-06
1.33913594e-05
1.32046014e-05
1.32106841e-05
1.71979404e-05
1.27003378e-05
2.20675175e-05
1.18029691e-05
2.7957654e-05
1.04526371e-05
3.50303596e-05
8.57689708e-06
4.34452733e-05
6.11552283e-06
5.342986e-05
2.9278458e-06
6.52251528e-05
-1.0831475e-06
7.91001877e-05
-6.00214385e-06
9.53621712e-05
-1.20053754e-05
0.00011435407
-1.92916937e-05
0.000136506739
-2.80062854e-05
0.000162275293
-3.83567203e-05
0.000192074537
-5.05757181e-05
0.000226441627
-6.49189727e-05
0.000265962936
-8.1670997e-05
0.00031127246
-0.000101144979
0.000363055356
-0.000123681796
0.000422041262
-0.000149648156
0.000488994618
-0.00017943339
0.000564701817
-0.000213444668
0.000649952995
-0.000252098945
0.000745517202
-0.000295812344
0.000852110097
-0.000344986175
0.000970354112
-0.000399989439
0.00110073092
-0.000461137838
0.00124352642
-0.00052866912
0.00139876952
-0.000602715439
0.00156616598
-0.000683272765
0.00174502779
-0.000770165787
0.00193420002
-0.000863008965
0.00213201228
-0.000961194128
0.00233627264
-0.00106389536
0.00254431372
-0.00117010746
0.00275300911
-0.00127862807
0.00295887062
-0.00138810131
0.00315821468
-0.00149708514
0.00334741263
-0.00160416153
0.00352311394
-0.00170793404
0.00368252847
-0.00180723318
0.0038240283
-0.00190144264
0.00394706481
-0.00198996849
0.00405191715
-0.00207294002
0.00414089251
-0.00215186383
0.00421747848
-0.00222807095
0.00428621846
-0.00230370697
0.00434971556
-0.00237980499
0.00441075292
-0.00245887
0.00447052755
-0.00253813091
0.00452611848
-0.00261544948
0.00458024446
-0.00269797437
0.00463344255
-0.00278251861
0.00468880583
-0.0028714838
0.00474601439
-0.00296412369
0.00480112193
-0.0030575343
0.00485474399
-0.00315315155
0.00490838622
-0.00325227233
0.00496238063
-0.00335219968
0.00501715313
-0.00345668273
0.00508145392
-0.00357284873
0.00515170547
-0.00368616345
0.00522440251
-0.00379843806
0.0052976876
-0.00391714472
-0.00403653347
0.00537245038
-1.37197434e-09
5.15813163e-07
8.46973089e-09
1.52518904e-06
4.58544813e-08
2.54114041e-06
1.30429869e-07
3.55902901e-06
2.85685879e-07
4.57056779e-06
5.39522814e-07
5.56374158e-06
9.24824345e-07
6.5226235e-06
1.48002096e-06
7.42751745e-06
2.24966857e-06
8.25521462e-06
3.2851705e-06
8.97912503e-06
4.64554285e-06
9.56923211e-06
6.39819312e-06
9.99198981e-06
8.62018381e-06
1.02096138e-05
1.13991775e-05
1.01801404e-05
1.48347973e-05
9.8562511e-06
1.90400267e-05
9.18505161e-06
2.41431816e-05
8.10637857e-06
3.02893172e-05
6.55297363e-06
3.76260589e-05
4.46491424e-06
4.63543336e-05
1.72296589e-06
5.66854201e-05
-1.75567353e-06
6.88566318e-05
-6.05727712e-06
8.31367267e-05
-1.1353952e-05
9.98255561e-05
-1.77737994e-05
0.000119295707
-2.54742482e-05
0.000141926194
-3.46379575e-05
0.000168101079
-4.54688295e-05
0.000198284722
-5.81923454e-05
0.000232984272
-7.30588703e-05
0.000272749692
-9.03439387e-05
0.000318175523
-0.000110347826
0.000369895885
-0.000133394616
0.000428577058
-0.000159829659
0.000494907397
-0.000190015904
0.000569583005
-0.000224327811
0.000653288115
-0.000263142841
0.000746669186
-0.000306830393
0.000850302886
-0.000355737625
0.000964657524
-0.000410172305
0.00109004817
-0.0004703825
0.00122658632
-0.000536533638
0.00137412553
-0.000608683476
0.00153220568
-0.000686756094
0.00169999936
-0.000770516368
0.00187626305
-0.000859544217
0.00205929196
-0.000953202782
0.00224691516
-0.00105064023
0.00243654132
-0.00115082817
0.00262523832
-0.0012526001
0.00280980872
-0.00135468546
0.00298697809
-0.00145580495
0.00315365741
-0.00155478807
0.00330720034
-0.00165063552
0.00344568449
-0.00174265316
0.00356823792
-0.00183049499
0.00367471979
-0.0019137229
0.00376623017
-0.00199296124
0.00384563778
-0.00206938332
0.00391705507
-0.00214436444
0.00398362737
-0.00221844486
0.0040477907
-0.00229224204
0.00410902967
-0.00236495329
0.00416878625
-0.00243956943
0.0042234214
-0.00251351338
0.00427634812
-0.00259106612
0.00432702003
-0.00266612963
0.00437324964
-0.00274421175
0.00441973199
-0.00282900889
0.00446562805
-0.00291739147
0.00450945898
-0.00300796814
0.00455644862
-0.0031045371
0.00460558058
-0.0032022981
0.00465473468
-0.00330144298
0.00470695517
-0.00340443777
0.00475371949
-0.0035034642
0.00479203545
-0.00361118536
0.00483575666
-0.0037299094
0.00488630745
-0.00384901828
0.00494137614
-0.00397224329
-0.00409949516
0.0050043134
1.89212623e-08
4.96795492e-07
9.44692037e-08
1.44951146e-06
2.50087523e-07
2.38537755e-06
5.13556413e-07
3.29540047e-06
9.1760331e-07
4.16634555e-06
1.50057666e-06
4.98057618e-06
2.30712075e-06
5.71586918e-06
3.3888826e-06
6.34552533e-06
4.80528438e-06
6.83856037e-06
6.62428033e-06
7.15985217e-06
8.92357794e-06
7.26963052e-06
1.17914829e-05
7.12375068e-06
1.53282079e-05
6.67252118e-06
1.96474602e-05
5.86048391e-06
2.48778966e-05
4.62537005e-06
3.1154614e-05
2.90784523e-06
3.86509076e-05
6.09549619e-07
4.75516987e-05
-2.34840279e-06
5.80651823e-05
-6.04921232e-06
7.04261203e-05
-1.06386775e-05
8.48985775e-05
-1.62289029e-05
0.000101801084
-2.29606277e-05
0.000121441076
-3.09948671e-05
0.000144176665
-4.05103941e-05
0.000170407242
-5.17059227e-05
0.000200569601
-6.48015111e-05
0.00023513851
-8.00390392e-05
0.00027462699
-9.76822416e-05
0.000319583054
-0.000118016473
0.000370584265
-0.000141346818
0.000428230023
-0.000167995386
0.000493130271
-0.000198296809
0.000565890181
-0.000232591664
0.000647089763
-0.000271217738
0.000737258331
-0.000314498797
0.00083684362
-0.000362730719
0.000946175412
-0.000416164955
0.00106542439
-0.000474989561
0.00119455693
-0.000539307997
0.00133328817
-0.000609117093
0.00148103563
-0.000684284664
0.00163687765
-0.000764529288
0.00179952168
-0.000849404153
0.00196728863
-0.000938287648
0.00213811468
-0.00103037478
0.00230959476
-0.0011246874
0.00247908837
-0.00122013835
0.00264382438
-0.00131556869
0.00280104019
-0.00140982044
0.00294818822
-0.00150183808
0.00308318718
-0.0015908086
0.00320471735
-0.0016763231
0.0033123965
-0.00175831978
0.00340682658
-0.00183708846
0.00348934676
-0.00191302043
0.00356146034
-0.00198584222
0.00362517358