/*--------------------------------*- C++ -*----------------------------------*\
  =========                 |
  \\      /  F ield         | OpenFOAM: The Open Source CFD Toolbox
   \\    /   O peration     | Website:  https://openfoam.org
    \\  /    A nd           | Version:  8
     \\/     M anipulation  |
\*---------------------------------------------------------------------------*/
FoamFile
{
    version     2.0;
    format      ascii;
    class       volScalarField;
    location    "0.053";
    object      T;
}
// * * * * * * * * * * * * * * * * * * * * * * * * * * * * * * * * * * * * * //

dimensions      [0 0 0 1 0 0 0];

internalField   nonuniform List<scalar> 
42400
(
472.136052
470.388903
468.595561
466.754778
464.865351
462.92614
460.93609
458.894263
456.79986
454.652261
452.451061
450.196108
447.887552
445.525887
443.112007
440.647259
438.133493
435.573127
432.969199
430.325422
427.646242
424.93688
422.203376
419.452618
416.692362
413.931234
411.178714
408.445099
405.741446
403.079485
400.471512
397.930252
395.468707
393.099975
390.837061
388.692668
386.679004
384.807603
383.089143
381.533265
380.148419
378.941729
377.918881
377.084024
376.439754
375.987115
375.725537
375.654309
375.767273
376.059275
376.522731
377.146663
377.916688
378.815408
379.822283
380.908713
382.034502
383.157494
384.255475
385.360126
386.069465
386.33397
386.137905
385.401259
384.416367
383.092305
381.36625
379.069847
376.112619
372.609337
368.628159
363.518923
357.930965
352.948079
346.839732
339.538913
332.713012
327.848881
321.347903
316.307962
472.178113
470.516045
468.810097
467.059134
465.262073
463.417899
461.525692
459.584655
457.594138
455.553677
453.463031
451.322218
449.131563
446.891745
444.603842
442.269389
439.890429
437.469568
435.010031
432.515715
429.991241
427.441998
424.874184
422.294833
419.711832
417.133929
414.570709
412.032568
409.53065
407.076772
404.683313
402.363089
400.129206
397.99489
395.973323
394.077431
392.319661
390.71174
389.26442
387.987226
386.888201
385.973714
385.248253
384.714194
384.371562
384.217961
384.248208
384.455142
384.82632
385.345639
385.994078
386.746125
387.568323
388.419903
389.269698
390.106323
390.766133
391.062032
390.962655
390.274503
389.374895
388.175322
386.599844
384.524367
381.857738
378.57717
374.689164
370.235581
365.159721
359.611846
353.990595
347.817673
340.993637
334.777584
329.062313
322.845726
316.980159
311.610279
307.478574
303.388165
472.230153
470.67335
469.075524
467.435678
465.752875
464.026258
462.255071
460.438692
458.57666
456.668709
454.714803
452.715181
450.670392
448.58135
446.449374
444.276242
442.064241
439.816222
437.535649
435.226649
432.89406
430.543471
428.181258
425.814607
423.451526
421.100842
418.772178
416.475918
414.223143
412.025553
409.895363
407.845164
405.887761
404.035972
402.302412
400.699205
399.237701
397.92815
396.779402
395.79859
394.990771
394.358525
393.901622
393.617044
393.498065
393.533481
393.710164
394.007416
394.397326
394.84698
395.324095
395.805814
396.222965
396.371929
396.229367
395.644106
394.730412
393.571142
392.092151
390.214617
387.796742
384.806963
381.228828
377.072033
372.36374
367.140573
361.486773
355.530428
349.316175
342.868284
336.593913
330.597909
324.541595
318.806546
313.79961
309.544694
305.651223
302.425987
300.402931
300.021493
472.288727
470.850406
469.374278
467.8595
466.305303
464.711005
463.076046
461.400007
459.682646
457.92393
456.124071
454.283563
452.403229
450.48426
448.528261
446.537302
444.513958
442.461364
440.383257
438.284018
436.168715
434.043129
431.913782
429.787949
427.673657
425.579673
423.515466
421.491148
419.51739
417.60531
415.766332
414.011991
412.353715
410.802559
409.368898
408.06211
406.890211
405.859462
404.973938
404.235125
403.6418
403.189041
402.867702
402.664577
402.560378
402.53232
402.555948
402.615468
402.617816
402.475743
402.095847
401.421669
400.436475
399.251308
397.798908
396.007826
393.77386
391.029218
387.745382
383.909688
379.532761
374.652755
369.321977
363.603833
357.57802
351.325233
344.959902
338.618796
332.447697
326.464485
320.839105
315.768172
311.351935
307.463784
304.264046
301.630953
300.228675
299.942418
299.873195
299.859096
472.350054
471.035785
469.68708
468.303266
466.883753
465.428054
463.935815
462.406843
460.84113
459.238894
457.60061
455.927048
454.219313
452.478883
450.707652
448.90797
447.082684
445.235178
443.369405
441.489923
439.601915
437.711204
435.82426
433.948188
432.0907
430.260069
428.465053
426.714793
425.018683
423.386192
421.826655
420.349026
418.961589
417.671625
416.485039
415.40596
414.436256
413.575278
412.819105
412.160112
411.587678
411.08763
410.643102
410.237212
409.778709
409.223752
408.520866
407.609244
406.504909
405.231279
403.732767
401.950395
399.804688
397.224636
394.176876
390.637868
386.599252
382.070513
377.078141
371.673666
365.91672
359.882083
353.660218
347.346658
341.041934
334.837611
328.853301
323.204108
318.013959
313.370664
309.33973
305.966313
303.399637
301.358917
300.187314
299.949228
299.889743
299.868573
299.860277
299.862626
472.409966
471.216891
469.992689
468.736859
467.448994
466.128803
464.776139
463.391024
461.973678
460.524551
459.044352
457.534089
455.995094
454.429063
452.838089
451.224687
449.591828
447.942962
446.282033
444.613493
442.942296
441.273893
439.614197
437.969536
436.346584
434.752262
433.193611
431.677634
430.211105
428.800332
427.450885
426.167306
424.952757
423.80864
422.734341
421.726919
420.780725
419.887824
419.02836
418.173682
417.295002
416.358612
415.326064
414.154913
412.878278
411.456504
409.847044
408.001451
405.85576
403.35549
400.466276
397.159713
393.416983
389.231629
384.610507
379.57535
374.162945
368.429409
362.438901
356.26524
349.99121
343.710893
337.524501
331.536406
325.849133
320.55006
315.735861
311.494535
307.889807
304.989689
302.787634
301.253358
300.197425
299.958436
299.894772
299.879049
299.871425
299.860343
299.846709
299.833737
472.463725
471.379405
470.266941
469.125993
467.95632
466.757804
465.53047
464.27451
462.990313
461.678483
460.33987
458.975596
457.587076
456.176042
454.744565
453.295066
451.830329
450.353499
448.868079
447.377907
445.887125
444.400124
442.921478
441.455847
440.007857
438.581951
437.182213
435.812153
434.474463
433.170736
431.901151
430.664206
429.456402
428.271806
427.099198
425.923311
424.725297
423.483183
422.182175
420.809766
419.341195
417.748074
415.997439
414.049033
411.852892
409.375526
406.584737
403.451487
399.952426
396.07188
391.803159
387.149993
382.127641
376.763719
371.099648
365.191885
359.107583
352.916975
346.698296
340.538535
334.528532
328.766625
323.351637
318.376687
313.92423
310.062237
306.842269
304.29776
302.408976
301.132347
300.336569
299.998931
299.916228
299.894435
299.879558
299.865756
299.84546
299.825724
299.807887
299.802016
472.506193
471.507788
470.483607
469.433433
468.357146
467.254739
466.126335
464.972204
463.792783
462.588694
461.360755
460.109999
458.837684
457.545297
456.234557
454.907411
453.566015
452.212717
450.850012
449.480495
448.106793
446.731475
445.356944
443.985304
442.618197
441.256618
439.900699
438.549475
437.200654
435.850362
434.492833
433.119767
431.721186
430.283951
428.794737
427.238197
425.5958
423.84527
421.959311
419.907142
417.661046
415.192671
412.474099
409.479001
406.183793
402.569167
398.621335
394.333262
389.705776
384.748538
379.480824
373.93232
368.143809
362.167466
356.072458
349.928258
343.811519
337.804794
331.995211
326.472664
321.327827
316.650218
312.515991
308.983055
306.08721
303.84021
302.20221
301.099588
300.434513
300.084989
299.953717
299.916233
299.895422
299.872103
299.842768
299.815783
299.805239
299.802105
299.80159
299.801184
472.532436
471.587125
470.617501
469.623411
468.604778
467.561615
466.494032
465.402243
464.286581
463.147495
461.98556
460.801473
459.596046
458.370198
457.124931
455.861308
454.580409
453.283283
451.970884
450.643985
449.303088
447.948358
446.579587
445.195927
443.795702
442.376178
440.933272
439.461182
437.953111
436.400549
434.793138
433.118969
431.36332
429.509844
427.540341
425.434928
423.172321
420.73026
418.0861
415.217617
412.103852
408.725556
405.066445
401.114168
396.861295
392.306252
387.454219
382.317932
376.918411
371.285573
365.458789
359.487886
353.434893
347.371474
341.372641
335.520939
329.904157
324.6107
319.725593
315.326196
311.479457
308.232782
305.607818
303.590962
302.130522
301.148355
300.542244
300.206856
300.03782
299.959291
299.91082
299.863779
299.830999
299.808919
299.803684
299.803113
299.802869
299.801697
299.801181
299.802184
472.538714
471.606097
470.64948
469.668678
468.663556
467.634027
466.580059
465.501671
464.398927
463.271934
462.12083
460.945766
459.746886
458.524299
457.278036
456.008016
454.713994
453.3955
452.051756
450.681573
449.283216
447.854185
446.390914
444.888615
443.341313
441.742832
440.08593
438.362412
436.562091
434.673266
432.682767
430.576023
428.337189
425.949371
423.394934
420.655893
417.714427
414.553508
411.157088
407.511071
403.604081
399.428245
394.979996
390.260892
385.278426
380.046853
374.587973
368.931834
363.117324
357.192627
351.215956
345.257556
339.393102
333.702642
328.271495
323.18657
318.53138
314.378573
310.782716
307.775506
305.360785
303.510727
302.167227
301.249029
300.661251
300.307255
300.104278
299.985323
299.909338
299.849604
299.816094
299.81089
299.807212
299.805011
299.803746
299.802784
299.802167
299.801431
299.800722
299.801428
472.525069
471.564845
470.579847
469.569806
468.534461
467.473559
466.386839
465.274024
464.134806
462.968828
461.775668
460.55481
459.305611
458.027264
456.718034
455.37557
453.997526
452.581491
451.12454
449.623165
448.073233
446.469939
444.807798
443.080756
441.281987
439.402744
437.433195
435.362445
433.178557
430.868628
428.418928
425.815094
423.042392
420.086057
416.93172
413.565614
409.975132
406.149487
402.080341
397.762489
393.194586
388.379928
383.327266
378.051665
372.57538
366.928727
361.150802
355.289915
349.403701
343.558891
337.832647
332.305182
327.057694
322.171119
317.72139
313.773295
310.373141
307.54289
305.275979
303.535955
302.260704
301.369829
300.77504
300.393777
300.15631
300.00781
299.914172
299.85245
299.818661
299.811178
299.808943
299.807287
299.804978
299.802399
299.800291
299.798703
299.798284
299.797397
299.797455
299.79839
472.491343
471.462892
470.407792
469.325625
468.215935
467.078212
465.911872
464.716237
463.489941
462.231607
460.93981
459.612853
458.248723
456.845041
455.399727
453.910585
452.374558
450.787682
449.145408
447.442523
445.67313
443.83058
441.907414
439.895346
437.78525
435.567161
433.230323
430.763275
428.153975
425.389972
422.45863
419.347416
416.044135
412.537186
408.816141
404.872243
400.698986
396.292757
391.653546
386.785735
381.698943
376.40892
370.938454
365.318245
359.587685
353.795389
347.999225
342.26571
336.668572
331.287244
326.203361
321.491905
317.220406
313.443266
310.196644
307.493216
305.318747
303.633137
302.377611
301.479447
300.860841
300.449741
300.1836
300.015202
299.912809
299.850926
299.820469
299.811493
299.81036
299.808793
299.80599
299.802331
299.799356
299.799233
299.799785
299.79915
299.798228
299.797642
299.796599
299.796254
472.438265
471.302436
470.136977
468.941236
467.714456
466.45575
465.163672
463.836805
462.474044
461.07385
459.634213
458.152796
456.626897
455.053406
453.428774
451.748957
450.009359
448.204792
446.329441
444.376809
442.33971
440.210258
437.979866
435.639273
433.17859
430.587377
427.854751
424.969539
421.920471
418.696425
415.286496
411.68049
407.869325
403.845515
399.603716
395.14137
390.459418
385.563101
380.462823
375.175055
369.723239
364.138613
358.460881
352.738602
347.02916
341.398066
335.91738
330.663158
325.711729
321.135638
316.997574
313.34356
310.20085
307.574786
305.44815
303.782258
302.521169
301.598035
300.945038
300.499662
300.207108
300.022703
299.910988
299.850655
299.823058
299.818649
299.817502
299.813752
299.80788
299.802755
299.799737
299.798384
299.798354
299.799891
299.802653
299.805732
299.804943
299.803538
299.801684
299.79898
472.370532
471.097697
469.791496
468.451041
467.075282
465.66289
464.212568
462.722645
461.191162
459.615836
457.99402
456.322665
454.59828
452.816887
450.973995
449.064562
447.082955
445.022935
442.877641
440.639585
438.300656
435.852154
433.28483
430.58896
427.754447
424.770958
421.628111
418.315577
414.82337
411.142208
407.263907
403.181854
398.891552
394.391258
389.682705
384.771897
379.669968
374.394063
368.968193
363.423988
357.801254
352.148191
346.521135
340.983684
335.605049
330.457435
325.612516
321.137136
317.088313
313.508151
310.420297
307.826661
305.708432
304.028981
302.737971
301.776904
301.084266
300.601987
300.277637
300.068002
299.941143
299.870101
299.838377
299.824391
299.818831
299.816777
299.815985
299.81468
299.811446
299.806296
299.800959
299.798554
299.798922
299.801458
299.803701
299.807997
299.814043
299.819347
299.820694
299.820987
472.291859
470.859904
469.390297
467.881923
466.333452
464.743331
463.109879
461.430999
459.704247
457.926788
456.095363
454.206247
452.255216
450.237513
448.14782
445.980242
443.728294
441.384893
438.942378
436.392528
433.726611
430.935457
428.00955
424.939167
421.714524
418.325901
414.763976
411.020138
407.086883
402.958275
398.630496
394.102471
389.376584
384.459454
379.362762
374.104092
368.707712
363.205249
357.636118
352.047619
346.494538
341.038123
335.7443
330.68111
325.915322
321.508458
317.512313
313.965233
310.888586
308.285162
306.138787
304.416485
303.072845
302.05511
301.307566
300.776561
300.412825
300.173409
300.023708
299.933954
299.880051
299.848772
299.831857
299.819761
299.812689
299.809679
299.810048
299.810777
299.81064
299.810943
299.8108
299.809112
299.805498
299.804159
299.804397
299.807032
299.812605
299.818525
299.824344
299.830944
472.204381
470.595506
468.944235
467.249241
465.508958
463.721596
461.885027
459.996735
458.053799
456.052852
453.990044
451.86101
449.66084
447.384062
445.024626
442.575901
440.030689
437.381248
434.619338
431.736291
428.723105
425.570577
422.269412
418.810435
415.184872
411.384668
407.402867
403.234074
398.874991
394.325029
389.586994
384.667841
379.579452
374.339423
368.971778
363.507556
357.985156
352.45034
346.955751
341.559849
336.325149
331.315737
326.59411
322.217531
318.23418
314.679738
311.57435
308.921645
306.708116
304.907207
303.480945
302.382726
301.562143
300.967951
300.551429
300.269384
300.085462
299.969619
299.899998
299.858612
299.83786
299.824731
299.813459
299.809507
299.807236
299.805644
299.806086
299.808696
299.810423
299.811947
299.8132
299.814258
299.81741
299.817837
299.812531
299.810589
299.811729
299.817407
299.822684
299.827072
472.109519
470.308794
468.460569
466.563322
464.615239
462.614178
460.557619
458.442624
456.265793
454.023233
451.71052
449.322681
446.854173
444.298882
441.650129
438.900696
436.042866
433.068493
429.969093
426.735972
423.360326
419.833485
416.147167
412.293783
408.266818
404.061271
399.674172
395.105173
390.3572
385.437169
380.356715
375.132922
369.788979
364.354707
358.86684
353.368984
347.911125
342.548588
337.340381
332.346898
327.62706
323.23507
319.217098
315.608154
312.429798
309.687832
307.373245
305.465133
303.930882
302.729862
301.817034
301.144781
300.666327
300.3374
300.11969
299.980869
299.893859
299.844312
299.819026
299.81221
299.811217
299.812491
299.813544
299.81295
299.811122
299.811036
299.810305
299.809709
299.809779
299.811389
299.813623
299.814384
299.815952
299.823704
299.826514
299.823589
299.820649
299.820517
299.82182
299.82432
472.008339
470.002987
467.944679
465.831663
463.661853
461.432778
459.141543
456.784787
454.358639
451.858699
449.28001
446.617049
443.863732
441.013435
438.059027
434.992938
431.807243
428.493775
425.044254
421.450498
417.704673
413.79959
409.72906
405.48832
401.074525
396.487307
391.729392
386.807269
381.73188
376.519294
371.191326
365.776014
360.307893
354.827947
349.383168
344.025604
338.81087
333.796099
329.037409
324.587036
320.49039
316.783373
313.490268
310.622326
308.177262
306.140409
304.484314
303.17218
302.160213
301.401291
300.849175
300.462115
300.202064
300.033826
299.929735
299.86888
299.839206
299.82508
299.816331
299.811361
299.810986
299.81159
299.812415
299.813429
299.814747
299.815585
299.816933
299.819091
299.818262
299.814456
299.813622
299.814006
299.815503
299.821377
299.833224
299.837948
299.838729
299.838989
299.839682
299.833259
471.901741
469.680806
467.401167
465.060838
462.657451
460.188212
457.649857
455.038615
452.350183
449.579705
446.72177
443.770423
440.719197
437.561164
434.289019
430.895178
427.371906
423.711519
419.906611
415.950333
411.836736
407.561166
403.120731
398.514821
393.745695
388.819105
383.744942
378.537882
373.217963
367.811057
362.349152
356.870355
351.418548
346.042591
340.795032
335.730314
330.902536
326.362925
322.15718
318.322924
314.887534
311.866641
309.263354
307.068247
305.260191
303.80689
302.669081
301.802549
301.161292
300.700598
300.379186
300.160912
300.018838
299.930901
299.878586
299.849216
299.833205
299.822666
299.815961
299.80958
299.80782
299.807427
299.809389
299.81204
299.813557
299.815311
299.816642
299.819651
299.823238
299.824122
299.822536
299.81806
299.818141
299.820222
299.831356
299.839605
299.841475
299.841524
299.844226
299.847307
471.790772
469.345411
466.835367
464.258418
461.611923
458.892777
456.097376
453.221591
450.260751
447.209648
444.062553
440.813259
437.455152
433.981296
430.384555
426.657771
422.793973
418.786639
414.630013
410.319472
405.851962
401.226485
396.444648
391.511246
386.434876
381.228549
375.91025
370.503411
365.037218
359.546695
354.072469
348.660165
343.359366
338.222111
333.300918
328.646441
324.305011
320.316216
316.710706
313.508346
310.717031
308.332229
306.337503
304.705613
303.40118
302.383305
301.60911
301.035889
300.623874
300.336804
300.143099
300.015378
299.931927
299.879895
299.849013
299.830209
299.821499
299.818735
299.818964
299.818293
299.813421
299.807025
299.806947
299.809062
299.811407
299.81325
299.816062
299.819499
299.822325
299.825289
299.82886
299.8319
299.833532
299.834454
299.833375
299.838371
299.839071
299.837139
299.83688
299.844122
472.564258
471.683134
470.778893
469.850997
468.898899
467.922044
466.919863
465.891777
464.837192
463.755498
462.646063
461.508235
460.341333
459.144647
457.917433
456.658906
455.368232
454.044527
452.686849
451.294195
449.865482
448.399532
446.895074
445.350724
443.764973
442.136167
440.462489
438.741936
436.972298
435.151124
433.275699
431.343001
429.349671
427.291967
425.165721
422.966291
420.688505
418.326612
415.874225
413.32427
410.668954
407.899739
405.007365
401.981926
398.813035
395.490126
392.002956
388.342368
384.50143
380.477032
376.272052
371.898111
367.378886
362.753722
358.081037
353.44053
348.933141
344.677165
340.799086
337.417963
334.627131
332.476433
330.958594
330.006844
329.506801
329.387943
329.403802
329.47241
329.524628
329.532721
329.531975
329.510579
329.436747
329.347233
329.256501
329.173995
329.08018
328.971173
328.876185
328.796901
472.550787
471.642415
470.71019
469.75354
468.771885
467.764632
466.731177
465.670904
464.583182
463.467362
462.322775
461.148727
459.944498
458.709331
457.44244
456.14299
454.810095
453.442811
452.040127
450.600957
449.124129
447.608377
446.05232
444.454458
442.813144
441.126575
439.392767
437.609532
435.774453
433.88486
431.937797
429.929988
427.857808
425.717239
423.503833
421.212671
418.838315
416.374774
413.81546
411.153166
408.380059
405.487703
402.467138
399.30903
396.003945
392.542785
388.917449
385.121808
381.153074
377.013649
372.71351
368.273103
363.726566
359.124806
354.53782
350.05507
345.782784
341.835766
338.32711
335.353244
332.977005
331.213463
330.023488
329.318858
328.979087
328.924482
328.973278
329.042867
329.097606
329.1265
329.136803
329.13278
329.119927
329.107945
329.085826
329.074094
329.039635
328.982025
328.957362
329.05909
472.535611
471.596541
470.63279
469.643751
468.628805
467.587319
466.518651
465.422143
464.297123
463.142902
461.958767
460.743983
459.497787
458.219385
456.907936
455.562552
454.182294
452.76616
451.313078
449.821898
448.291379
446.720177
445.106836
443.449768
441.747239
439.997353
438.198031
436.346991
434.441725
432.479474
430.457203
428.371571
426.218902
423.995151
421.695868
419.31617
416.850701
414.293604
411.638499
408.878476
406.006117
403.013552
399.892587
396.63492
393.232497
389.678056
385.965911
382.093078
378.060782
373.876437
369.55607
365.127081
360.631034
356.12591
351.687099
347.405575
343.383697
339.727674
336.535772
333.883909
331.811419
330.311148
329.328088
328.768853
328.559026
328.542354
328.625243
328.720485
328.806774
328.880564
328.948801
329.021209
329.063259
329.082753
329.123577
329.24602
329.508341
329.913261
330.531345
331.516784
472.518756
471.545594
470.546831
469.521821
468.469903
467.390402
466.282629
465.145885
463.979451
462.782591
461.55455
460.29455
459.001786
457.67541
456.314536
454.91823
453.485505
452.015314
450.506539
448.957986
447.368373
445.73632
444.060338
442.338818
440.570015
438.752035
436.88282
434.96013
432.981526
430.944351
428.845702
426.682414
424.451028
422.147766
419.768499
417.308722
414.76352
412.127546
409.395006
406.559662
403.614867
400.553644
397.368842
394.0534
390.600753
387.005449
383.264013
379.376151
375.346312
371.185653
366.91431
362.563797
358.179145
353.820245
349.56188
345.491721
341.70546
338.298683
335.355795
332.937475
331.069312
329.734945
328.876854
328.405986
328.269532
328.279803
328.378116
328.505672
328.636034
328.762379
328.887241
328.998265
329.103193
329.315331
329.746435
330.46076
331.462721
332.731413
334.207622
335.942468
472.500069
471.489105
470.451522
469.386628
468.293716
467.172063
466.020932
464.839572
463.627216
462.383081
461.106369
459.796256
458.451887
457.072372
455.656786
454.204157
452.713468
451.183646
449.613555
448.001995
446.347691
444.649285
442.905331
441.114287
439.274505
437.384222
435.44155
433.444463
431.390786
429.278179
427.104122
424.865889
422.56053
420.184841
417.735338
415.208225
412.599358
409.904224
407.117916
404.235133
401.250215
398.15722
394.950093
391.622939
388.170458
384.588582
380.875377
377.032249
373.065472
368.988021
364.821569
360.598423
356.363007
352.173437
348.101074
344.227805
340.641292
337.427613
334.66182
332.395265
330.646394
329.396976
328.594305
328.15996
328.037668
328.067211
328.190151
328.356245
328.541722
328.748962
328.936727
329.119578
329.505997
330.126531
331.01187
332.226523
333.844939
335.861874
338.083001
340.301173
472.479227
471.426101
470.34522
469.235842
468.097208
466.928542
465.729054
464.49794
463.23438
461.937548
460.606597
459.240656
457.838831
456.400199
454.923806
453.408666
451.853753
450.258003
448.620306
446.939508
445.214405
443.443743
441.626215
439.760457
437.845048
435.878506
433.859283
431.78576
429.656238
427.468931
425.221949
422.913283
420.540777
418.1021
415.594714
413.015829
410.362356
407.630866
404.817549
401.918186
398.928163
395.842521
392.656101
389.363796
385.96097
382.444082
378.811569
375.065026
371.210682
367.26112
363.237098
359.169186
355.099422
351.083759
347.19003
343.49562
340.083026
337.032698
334.380523
332.193161
330.497608
329.281338
328.495181
328.050496
327.897456
327.913875
328.043167
328.236167
328.470761
328.753153
329.056601
329.557939
330.287111
331.301212
332.624416
334.29748
336.347447
338.75266
341.363823
343.837754
472.455778
471.35522
470.225628
469.066207
467.876141
466.654597
465.400728
464.113671
462.792563
461.436528
460.04467
458.616081
457.149838
455.645
454.100609
452.515687
450.889239
449.220252
447.507699
445.750535
443.947711
442.098167
440.200842
438.254678
436.258624
434.211637
432.112691
429.96077
427.754873
425.494
423.177149
420.803295
418.371355
415.880161
413.328408
410.714598
408.036973
405.293444
402.481517
399.598233
396.640134
393.603271
390.48329
387.275639
383.97592
380.580445
377.087047
373.496156
369.812136
366.044887
362.211503
358.33775
354.460885
350.631303
346.904028
343.353621
340.052054
337.069275
334.484005
332.331836
330.631672
329.376783
328.531932
328.042114
327.836892
327.810368
327.919787
328.12487
328.397564
328.731831
329.142901
329.735036
330.592379
331.802492
333.424935
335.382059
337.684403
340.295118
342.790688
344.840679
472.42923
471.27497
470.090231
468.874159
467.625879
466.344496
465.029102
463.678786
462.292634
460.869718
459.409107
457.909868
456.371062
454.791751
453.170999
451.507874
449.801451
448.050823
446.255102
444.413432
442.524998
440.589034
438.604837
436.571779
434.489317
432.357005
430.174505
427.94159
425.658147
423.324176
420.93977
418.505108
416.020406
413.485875
410.901653
408.267733
405.583865
402.849451
400.06343
397.224171
394.329388
391.376084
388.360566
385.278575
382.125553
378.897096
375.589646
372.201485
368.733916
365.192741
361.589781
357.944274
354.286168
350.655689
347.113723
343.712116
340.518362
337.600422
335.021207
332.829092
331.052338
329.695719
328.740043
328.145832
327.861479
327.798883
327.860598
328.029002
328.300848
328.662569
329.132705
329.761859
330.62965
331.849234
333.417561
335.40067
337.678119
340.160886
342.686071
344.96434
472.399164
471.184089
469.936903
468.656691
467.342512
465.993409
464.608422
463.186587
461.726934
460.228499
458.690324
457.111463
455.490984
453.827976
452.121554
450.370869
448.575114
446.73354
444.845464
442.910291
440.927524
438.896785
436.817837
434.690598
432.515162
430.291821
428.021072
425.703633
423.340448
420.93268
418.481696
415.989046
413.456421
410.885583
408.278285
405.636172
402.960663
400.252805
397.513123
394.741464
391.936855
389.097382
386.220123
383.301169
380.335769
377.318631
374.244418
371.108535
367.908139
364.643413
361.319043
357.960969
354.57629
351.195634
347.860662
344.621573
341.53611
338.665904
336.071412
333.805247
331.905309
330.389972
329.255644
328.477178
328.010384
327.810273
327.836487
327.967387
328.203295
328.562169
329.044181
329.701078
330.576229
331.715352
333.190613
335.014813
337.160675
339.513094
341.885016
344.10625
472.365384
471.081986
469.764649
468.412393
467.024212
465.599095
464.136022
462.633973
461.091937
459.50892
457.883949
456.216082
454.504412
452.748082
450.94629
449.098306
447.203487
445.261292
443.271305
441.233256
439.147043
437.012761
434.830723
432.601493
430.325903
428.005083
425.640476
423.233851
420.78731
418.303279
415.784491
413.233949
410.654878
408.050651
405.424675
402.780276
400.120551
397.448199
394.765329
392.073272
389.372384
386.66188
383.939707
381.202487
378.44557
375.663219
372.848963
369.996141
367.098596
364.151349
361.159161
358.136953
355.079766
352.007317
348.949149
345.942865
343.03334
340.270746
337.707351
335.393188
333.371034
331.671652
330.309767
329.282309
328.569007
328.136297
327.9394
327.972026
328.138025
328.410345
328.855186
329.458521
330.233414
331.217133
332.457009
333.977792
335.766306
337.795704
339.926903
342.01067
472.328038
470.969106
469.574222
468.142338
466.672391
465.163305
463.614003
462.023421
460.390514
458.714266
456.993703
455.227904
453.416008
451.557235
449.650899
447.696425
445.693374
443.641463
441.540593
439.39088
437.192679
434.946625
432.653656
430.315051
427.932456
425.507913
423.043877
420.543234
418.0093
415.44581
412.856898
410.247041
407.621001
404.983736
402.340274
399.695572
397.054344
394.420865
391.798764
389.190787
386.598581
384.022483
381.461341
378.91241
376.371314
373.832136
371.287656
368.729786
366.150263
363.54172
360.8935
358.227797
355.540577
352.825721
350.100511
347.39053
344.727965
342.150653
339.700246
337.419525
335.349041
333.523478
331.968243
330.696904
329.710017
328.995749
328.531581
328.284596
328.269464
328.396392
328.637456
328.994262
329.577154
330.337851
331.299361
332.501074
333.932937
335.555777
337.364461
338.89823
472.287754
470.847353
469.368831
467.851078
466.292967
464.693363
463.051142
461.365198
459.634461
457.857907
456.034573
454.163573
452.244115
450.275521
448.257244
446.188898
444.070282
441.901411
439.682546
437.414233
435.097336
432.733074
430.32306
427.869336
425.374405
422.841259
420.273398
417.674841
415.050124
412.404281
409.742806
407.071595
404.396865
401.725048
399.06265
396.416095
393.791536
391.194641
388.63037
386.102727
383.614526
381.167153
378.760379
376.392228
374.058917
371.754897
369.473037
367.204959
364.94155
362.673699
360.393191
358.073063
355.754627
353.425613
351.076623
348.719934
346.375723
344.069301
341.830266
339.69105
337.684908
335.843513
334.19443
332.758828
331.54979
330.57158
329.820047
329.284086
328.950673
328.780859
328.796857
328.979433
329.231931
329.599179
330.188231
330.974483
331.956593
333.058568
334.474477
335.311583
472.245767
470.720452
469.154762
467.547522
465.897544
464.203642
462.464648
460.679426
458.846887
456.966011
455.035859
453.055597
451.024519
448.942064
446.807853
444.621711
442.383702
440.094167
437.75376
435.363486
432.924748
430.439384
427.909707
425.338547
422.729281
420.085859
417.412821
414.715295
411.998993
409.270173
406.535598
403.802455
401.078255
398.370719
395.687611
393.036572
390.424915
387.859409
385.346046
382.889801
380.494393
378.162061
375.893354
373.686993
371.53979
369.44666
367.400749
365.393718
363.416109
361.45787
359.509025
357.560328
355.583692
353.619034
351.654806
349.678772
347.698815
345.728858
343.78758
341.8966
340.079449
338.360217
336.761987
335.305231
334.00637
332.876719
331.92197
331.142325
330.533089
330.083021
329.780123
329.584438
329.59434
329.697792
329.991649
330.387875
330.908577
331.489483
332.365459
332.778695
472.203935
470.594023
468.941491
467.245101
465.503611
463.715789
461.880431
459.996375
458.062529
456.077881
454.04153
451.952708
449.810804
447.615396
445.366282
443.063519
440.707455
438.298776
435.838544
433.328247
430.76984
428.165791
425.51912
422.833438
420.112976
417.362606
414.587854
411.794892
408.990522
406.182126
403.377608
400.585305
397.813856
395.072073
392.36876
389.712514
387.111515
384.573286
382.104469
379.710589
377.395847
375.162936
373.01287
370.944851
368.956193
367.042306
365.196767
363.411559
361.677437
359.984414
358.322374
356.681753
355.054234