/*--------------------------------*- C++ -*----------------------------------*\
  =========                 |
  \\      /  F ield         | OpenFOAM: The Open Source CFD Toolbox
   \\    /   O peration     | Website:  https://openfoam.org
    \\  /    A nd           | Version:  8
     \\/     M anipulation  |
\*---------------------------------------------------------------------------*/
FoamFile
{
    version     2.0;
    format      ascii;
    class       volScalarField;
    location    "0.027";
    object      p;
}
// * * * * * * * * * * * * * * * * * * * * * * * * * * * * * * * * * * * * * //

dimensions      [1 -1 -2 0 0 0 0];

internalField   nonuniform List<scalar> 
42400
(
101336.702
101336.691
101336.678
101336.665
101336.65
101336.635
101336.618
101336.6
101336.581
101336.56
101336.539
101336.516
101336.492
101336.467
101336.44
101336.412
101336.383
101336.352
101336.319
101336.284
101336.248
101336.209
101336.169
101336.126
101336.081
101336.033
101335.983
101335.929
101335.873
101335.814
101335.751
101335.686
101335.616
101335.543
101335.466
101335.386
101335.308
101335.232
101335.154
101335.059
101334.944
101334.823
101334.709
101334.602
101334.493
101334.381
101334.266
101334.149
101334.029
101333.903
101333.783
101333.674
101333.57
101333.449
101333.31
101333.188
101333.081
101332.982
101332.882
101332.785
101332.695
101332.608
101332.531
101332.471
101332.439
101332.433
101332.43
101332.47
101332.603
101332.561
101332.675
101333.626
101333.935
101333.263
101334.82
101336.229
101336.571
101338.484
101341.595
101342.862
101336.432
101336.424
101336.414
101336.404
101336.392
101336.379
101336.365
101336.35
101336.334
101336.317
101336.299
101336.28
101336.259
101336.238
101336.215
101336.191
101336.165
101336.139
101336.11
101336.081
101336.049
101336.016
101335.981
101335.944
101335.905
101335.863
101335.82
101335.774
101335.725
101335.674
101335.62
101335.563
101335.503
101335.444
101335.387
101335.329
101335.26
101335.174
101335.08
101334.992
101334.911
101334.827
101334.739
101334.65
101334.559
101334.465
101334.365
101334.274
101334.2
101334.124
101334.01
101333.893
101333.804
101333.728
101333.65
101333.575
101333.506
101333.442
101333.389
101333.351
101333.339
101333.361
101333.416
101333.504
101333.628
101333.814
101334.048
101334.377
101334.954
101335.472
101335.918
101337.218
101338.946
101340.111
101341.865
101346.891
101350.152
101349.862
101351.372
101354.335
101336.298
101336.292
101336.284
101336.276
101336.267
101336.257
101336.246
101336.234
101336.221
101336.207
101336.193
101336.177
101336.161
101336.143
101336.125
101336.105
101336.085
101336.063
101336.04
101336.016
101335.991
101335.964
101335.936
101335.907
101335.876
101335.843
101335.808
101335.771
101335.733
101335.691
101335.65
101335.609
101335.568
101335.521
101335.463
101335.398
101335.333
101335.273
101335.214
101335.152
101335.088
101335.022
101334.953
101334.878
101334.813
101334.76
101334.69
101334.602
101334.526
101334.465
101334.408
101334.346
101334.288
101334.233
101334.187
101334.152
101334.136
101334.146
101334.18
101334.239
101334.336
101334.48
101334.675
101334.941
101335.29
101335.754
101336.288
101336.906
101337.813
101338.858
101339.873
101341.048
101342.967
101346.525
101349.96
101351.346
101352.939
101354.753
101357.388
101359.991
101336.303
101336.299
101336.293
101336.287
101336.279
101336.271
101336.263
101336.253
101336.243
101336.232
101336.221
101336.209
101336.196
101336.183
101336.169
101336.154
101336.139
101336.123
101336.106
101336.088
101336.07
101336.051
101336.031
101336.01
101335.987
101335.964
101335.939
101335.913
101335.888
101335.862
101335.832
101335.796
101335.757
101335.717
101335.678
101335.642
101335.603
101335.562
101335.52
101335.475
101335.424
101335.382
101335.352
101335.305
101335.239
101335.19
101335.15
101335.109
101335.068
101335.029
101334.995
101334.967
101334.953
101334.957
101334.978
101335.018
101335.08
101335.174
101335.317
101335.511
101335.764
101336.09
101336.5
101336.998
101337.603
101338.368
101339.217
101340.168
101341.208
101342.341
101344.19
101347.885
101350.53
101351.758
101353.059
101355.002
101357.466
101359.518
101361.476
101363.441
101336.428
101336.424
101336.419
101336.413
101336.407
101336.401
101336.393
101336.386
101336.378
101336.37
101336.361
101336.352
101336.343
101336.334
101336.325
101336.315
101336.305
101336.295
101336.285
101336.275
101336.264
101336.252
101336.239
101336.226
101336.213
101336.201
101336.187
101336.173
101336.157
101336.139
101336.123
101336.106
101336.089
101336.07
101336.049
101336.028
101336.004
101335.976
101335.954
101335.945
101335.919
101335.878
101335.851
101335.833
101335.811
101335.789
101335.77
101335.755
101335.75
101335.757
101335.777
101335.81
101335.861
101335.937
101336.044
101336.19
101336.384
101336.631
101336.941
101337.322
101337.802
101338.368
101339.072
101339.864
101340.816
101341.887
101342.745
101344.012
101347.008
101350.044
101351.76
101352.877
101354.849
101356.771
101358.463
101360.765
101362.753
101365.141
101367.844
101370.284
101336.651
101336.647
101336.641
101336.636
101336.63
101336.625
101336.619
101336.612
101336.606
101336.6
101336.594
101336.588
101336.582
101336.577
101336.572
101336.567
101336.562
101336.558
101336.553
101336.548
101336.544
101336.541
101336.54
101336.539
101336.538
101336.536
101336.534
101336.532
101336.53
101336.528
101336.525
101336.521
101336.517
101336.512
101336.503
101336.5
101336.509
101336.503
101336.482
101336.475
101336.477
101336.474
101336.471
101336.472
101336.478
101336.491
101336.513
101336.546
101336.591
101336.656
101336.745
101336.865
101337.021
101337.218
101337.467
101337.773
101338.145
101338.589
101339.125
101339.724
101340.446
101341.206
101342.139
101342.95
101344.057
101346.525
101349.873
101352.196
101352.867
101353.683
101355.864
101357.666
101359.236
101361.04
101363.382
101365.628
101367.941
101370.266
101373.041
101375.465
101336.927
101336.922
101336.916
101336.911
101336.905
101336.9
101336.895
101336.89
101336.886
101336.882
101336.878
101336.876
101336.874
101336.873
101336.872
101336.872
101336.872
101336.874
101336.878
101336.884
101336.89
101336.896
101336.902
101336.909
101336.917
101336.926
101336.934
101336.944
101336.953
101336.964
101336.973
101336.98
101336.993
101337.016
101337.027
101337.025
101337.036
101337.054
101337.068
101337.083
101337.101
101337.123
101337.149
101337.183
101337.227
101337.283
101337.357
101337.453
101337.576
101337.733
101337.93
101338.175
101338.477
101338.846
101339.291
101339.824
101340.456
101341.174
101342.004
101342.895
101343.93
101344.937
101346.299
101349.07
101351.613
101352.697
101353.221
101354.553
101356.314
101358.149
101360.108
101362.052
101363.963
101366.143
101368.529
101370.791
101373.318
101375.82
101377.922
101380.054
101337.22
101337.215
101337.209
101337.203
101337.199
101337.194
101337.191
101337.188
101337.186
101337.184
101337.183
101337.183
101337.185
101337.188
101337.193
101337.199
101337.207
101337.216
101337.226
101337.237
101337.25
101337.264
101337.28
101337.296
101337.314
101337.334
101337.354
101337.375
101337.394
101337.418
101337.453
101337.477
101337.492
101337.517
101337.549
101337.578
101337.608
101337.641
101337.677
101337.717
101337.763
101337.818
101337.883
101337.963
101338.061
101338.181
101338.331
101338.515
101338.741
101339.018
101339.355
101339.763
101340.253
101340.841
101341.539
101342.345
101343.275
101344.324
101345.485
101346.773
101348.337
101350.691
101352.229
101353
101354.408
101355.889
101357.26
101359.309
101361.55
101363.342
101365.105
101366.988
101368.883
101371.181
101373.315
101375.39
101377.923
101380.435
101382.699
101384.997
101337.467
101337.462
101337.457
101337.453
101337.449
101337.447
101337.446
101337.445
101337.446
101337.449
101337.454
101337.46
101337.468
101337.476
101337.487
101337.5
101337.514
101337.53
101337.549
101337.569
101337.591
101337.615
101337.64
101337.668
101337.697
101337.725
101337.758
101337.802
101337.837
101337.865
101337.903
101337.947
101337.99
101338.033
101338.08
101338.13
101338.184
101338.243
101338.31
101338.386
101338.474
101338.576
101338.698
101338.843
101339.018
101339.227
101339.479
101339.781
101340.141
101340.569
101341.076
101341.674
101342.375
101343.189
101344.123
101345.183
101346.423
101347.8
101349.169
101350.789
101352.316
101353.477
101355.232
101356.908
101358.376
101359.901
101361.715
101363.451
101364.973
101366.861
101368.987
101371.063
101373.265
101375.497
101377.565
101379.274
101381.696
101384.829
101387.417
101388.949
101337.634
101337.63
101337.627
101337.625
101337.625
101337.626
101337.628
101337.633
101337.639
101337.646
101337.656
101337.668
101337.682
101337.698
101337.716
101337.737
101337.761
101337.786
101337.814
101337.845
101337.878
101337.913
101337.948
101337.989
101338.039
101338.083
101338.123
101338.171
101338.226
101338.28
101338.337
101338.397
101338.46
101338.528
101338.601
101338.681
101338.769
101338.868
101338.98
101339.109
101339.258
101339.432
101339.636
101339.876
101340.157
101340.487
101340.873
101341.322
101341.841
101342.44
101343.124
101343.894
101344.742
101345.684
101346.677
101347.58
101349.015
101351.202
101352.872
101354.083
101355.47
101357.052
101358.617
101360.059
101361.509
101363.018
101364.855
101366.746
101368.704
101370.715
101372.847
101375.227
101377.793
101380.412
101382.993
101385.336
101387.434
101389.376
101391.932
101395.588
101337.661
101337.66
101337.66
101337.662
101337.666
101337.672
101337.68
101337.69
101337.702
101337.717
101337.734
101337.754
101337.777
101337.802
101337.831
101337.862
101337.896
101337.934
101337.974
101338.015
101338.062
101338.117
101338.169
101338.219
101338.277
101338.34
101338.405
101338.472
101338.544
101338.619
101338.699
101338.784
101338.877
101338.977
101339.087
101339.21
101339.348
101339.505
101339.684
101339.89
101340.129
101340.405
101340.725
101341.095
101341.522
101342.011
101342.568
101343.2
101343.913
101344.706
101345.575
101346.503
101347.464
101348.567
101350.175
101352.309
101353.753
101354.335
101355.37
101357.479
101359.459
101361.512
101363.426
101365.479
101367.87
101369.796
101371.391
101373.134
101375.082
101376.957
101378.728
101380.614
101382.66
101384.651
101386.773
101389.105
101391.549
101394.289
101396.454
101398.424
101337.498
101337.501
101337.507
101337.514
101337.524
101337.536
101337.551
101337.569
101337.59
101337.613
101337.64
101337.671
101337.704
101337.741
101337.782
101337.826
101337.872
101337.924
101337.983
101338.041
101338.098
101338.163
101338.234
101338.307
101338.383
101338.464
101338.548
101338.638
101338.733
101338.834
101338.944
101339.062
101339.192
101339.335
101339.495
101339.675
101339.88
101340.114
101340.383
101340.692
101341.049
101341.461
101341.935
101342.478
101343.097
101343.801
101344.602
101345.512
101346.534
101347.669
101348.936
101350.281
101351.761
101353.26
101354.503
101355.684
101357.177
101359.04
101361.071
101362.711
101364.461
101366.266
101367.824
101369.711
101371.692
101373.452
101375.091
101376.667
101378.368
101380.182
101381.963
101383.767
101385.639
101387.591
101389.946
101392.453
101394.636
101396.98
101399.791
101402.046
101337.075
101337.085
101337.097
101337.112
101337.13
101337.151
101337.175
101337.202
101337.234
101337.269
101337.308
101337.35
101337.397
101337.446
101337.502
101337.563
101337.626
101337.69
101337.761
101337.838
101337.917
101338.001
101338.089
101338.181
101338.278
101338.38
101338.489
101338.604
101338.728
101338.861
101339.006
101339.165
101339.341
101339.537
101339.758
101340.007
101340.292
101340.617
101340.989
101341.414
101341.9
101342.454
101343.083
101343.793
101344.589
101345.479
101346.465
101347.544
101348.715
101349.964
101351.276
101352.718
101354.237
101355.835
101357.31
101358.752
101360.372
101361.891
101363.422
101364.955
101366.681
101368.568
101370.232
101371.89
101373.547
101375.26
101377.119
101378.842
101380.676
101382.58
101384.366
101386.365
101388.825
101391.677
101394.442
101397.07
101400.08
101402.344
101403.493
101405.594
101336.333
101336.35
101336.372
101336.396
101336.424
101336.456
101336.491
101336.531
101336.575
101336.623
101336.675
101336.733
101336.797
101336.863
101336.932
101337.008
101337.089
101337.174
101337.264
101337.358
101337.458
101337.562
101337.672
101337.788
101337.91
101338.04
101338.178
101338.327
101338.488
101338.663
101338.855
101339.067
101339.304
101339.569
101339.868
101340.206
101340.589
101341.022
101341.512
101342.065
101342.687
101343.383
101344.16
101345.02
101345.97
101347.009
101348.153
101349.387
101350.697
101352.076
101353.484
101354.849
101356.324
101357.825
101359.204
101360.752
101362.309
101363.657
101365.316
101367.29
101369.184
101371.128
101372.973
101374.919
101376.814
101378.813
101381.139
101383.374
101385.537
101387.735
101390.143
101392.848
101395.293
101396.898
101398.494
101400.337
101402.452
101405.282
101407.242
101409.729
101335.196
101335.222
101335.256
101335.292
101335.332
101335.377
101335.426
101335.48
101335.54
101335.604
101335.672
101335.747
101335.826
101335.912
101336.002
101336.097
101336.198
101336.304
101336.416
101336.535
101336.659
101336.79
101336.929
101337.077
101337.235
101337.404
101337.587
101337.786
101338.003
101338.243
101338.509
101338.805
101339.136
101339.508
101339.925
101340.393
101340.917
101341.501
101342.15
101342.864
101343.646
101344.492
101345.4
101346.343
101347.323
101348.301
101349.483
101351.08
101352.839
101354.546
101356.158
101357.776
101359.493
101361.322
101363.248
101365.304
101367.383
101369.441
101371.524
101373.103
101374.551
101376.281
101378.134
101379.881
101381.571
101383.636
101385.793
101387.516
101389.399
101391.223
101393.016
101394.823
101396.518
101398.76
101402.046
101404.898
101406.283
101408.007
101410.356
101411.855
101333.606
101333.645
101333.692
101333.742
101333.797
101333.857
101333.922
101333.992
101334.068
101334.15
101334.237
101334.33
101334.429
101334.534
101334.646
101334.763
101334.887
101335.019
101335.157
101335.304
101335.459
101335.625
101335.802
101335.993
101336.199
101336.424
101336.67
101336.94
101337.24
101337.574
101337.946
101338.363
101338.83
101339.352
101339.936
101340.587
101341.31
101342.108
101342.986
101343.947
101344.992
101346.123
101347.343
101348.627
101350.173
101352.277
101354.104
101355.552
101357.041
101358.518
101360.045
101361.592
101363.195
101364.823
101366.46
101368.168
101369.952
101371.715
101373.113
101374.818
101377.212
101379.367
101381.107
101382.596
101384.191
101386.015
101388.204
101390.542
101392.287
101394.353
101396.934
101398.717
101400.554
101403.056
101405.216
101406.826
101408.416
101409.954
101412.33
101413.627
101331.497
101331.549
101331.612
101331.678
101331.749
101331.825
101331.906
101331.994
101332.088
101332.187
101332.293
101332.406
101332.525
101332.65
101332.784
101332.924
101333.073
101333.231
101333.399
101333.578
101333.771
101333.978
101334.202
101334.447
101334.715
101335.011
101335.338
101335.702
101336.109
101336.563
101337.071
101337.638
101338.272
101338.976
101339.756
101340.615
101341.557
101342.582
101343.691
101344.88
101346.148
101347.488
101348.892
101350.382
101351.822
101353.33
101355.067
101356.583
101358.005
101359.634
101361.339
101363.012
101364.714
101366.354
101367.96
101369.504
101371.151
101372.985
101374.755
101376.75
101378.909
101381.046
101383.278
101385.879
101388.139
101389.757
101391.459
101393.507
101395.667
101397.965
101399.904
101401.883
101403.787
101405.864
101408.419
101410.915
101412.372
101413.225
101415.023
101417.628
101328.853
101328.921
101329.001
101329.083
101329.17
101329.262
101329.36
101329.464
101329.575
101329.691
101329.814
101329.944
101330.081
101330.226
101330.379
101330.542
101330.715
101330.899
101331.097
101331.31
101331.541
101331.792
101332.068
101332.371
101332.707
101333.079
101333.494
101333.957
101334.473
101335.048
101335.687
101336.395
101337.176
101338.035
101338.972
101339.99
101341.088
101342.264
101343.515
101344.835
101346.22
101347.656
101349.146
101350.702
101352.368
101353.727
101354.995
101356.322
101357.919
101360.059
101362.228
101364.333
101366.44
101368.619
101370.789
101372.942
101375.193
101377.544
101379.685
101381.411
101383.154
101385.272
101387.455
101388.879
101390.615
101393.674
101395.525
101396.975
101398.77
101400.482
101402.644
101404.887
101406.981
101408.917
101410.547
101412.96
101415.479
101417.487
101419.799
101422.75
101325.713
101325.797
101325.894
101325.994
101326.097
101326.206
101326.321
101326.441
101326.568
101326.702
101326.843
101326.991
101327.149
101327.315
101327.493
101327.683
101327.886
101328.106
101328.345
101328.606
101328.892
101329.208
101329.558
101329.946
101330.379
101330.861
101331.399
101331.998
101332.662
101333.397
101334.206
101335.092
101336.057
101337.102
101338.225
101339.427
101340.708
101342.065
101343.496
101344.964
101346.482
101348.037
101349.536
101350.962
101352.708
101355.165
101357.933
101360.869
101363.385
101365.378
101367.198
101369.071
101371.211
101372.966
101374.374
101375.817
101377.399
101378.932
101380.936
101383.477
101385.571
101387.757
101390.051
101392.661
101394.49
101395.462
101397.325
101400.397
101402.382
101404.181
101406.192
101408.605
101410.475
101412.246
101413.882
101415.28
101417.345
101419.422
101421.235
101423.182
101322.193
101322.293
101322.409
101322.525
101322.646
101322.772
101322.904
101323.042
101323.188
101323.342
101323.504
101323.677
101323.861
101324.058
101324.271
101324.502
101324.753
101325.029
101325.333
101325.669
101326.043
101326.46
101326.925
101327.445
101328.024
101328.67
101329.388
101330.181
101331.055
101332.011
101333.051
101334.174
101335.376
101336.65
101337.984
101339.358
101340.778
101342.213
101343.961
101346.238
101348.622
101351.047
101353.541
101356.089
101358.261
101360.008
101361.85
101363.779
101365.294
101366.583
101368.166
101369.795
101370.915
101372.577
101375.718
101378.677
101380.888
101382.804
101384.863
101386.643
101388.423
101390.084
101391.89
101394.246
101397.205
101400.432
101401.973
101402.655
101404.199
101407.332
101409.71
101411.413
101413.344
101415.506
101417.219
101418.731
101420.664
101422.993
101425.025
101426.802
101364.104
101364.109
101364.116
101364.123
101364.13
101364.138
101364.146
101364.154
101364.163
101364.173
101364.183
101364.193
101364.204
101364.215
101364.227
101364.239
101364.252
101364.265
101364.279
101364.293
101364.308
101364.324
101364.34
101364.356
101364.373
101364.391
101364.41
101364.429
101364.448
101364.468
101364.489
101364.511
101364.533
101364.555
101364.579
101364.603
101364.627
101364.652
101364.678
101364.704
101364.731
101364.758
101364.786
101364.814
101364.842
101364.871
101364.9
101364.927
101364.954
101364.98
101365.006
101365.03
101365.052
101365.072
101365.088
101365.103
101365.114
101365.119
101365.118
101365.108
101365.088
101365.055
101365.003
101364.928
101364.824
101364.682
101364.494
101364.244
101363.918
101363.515
101363.1
101362.685
101362.157
101361.425
101360.484
101359.378
101358.068
101356.686
101355.15
101352.75
101362.806
101362.811
101362.817
101362.823
101362.83
101362.837
101362.845
101362.854
101362.863
101362.873
101362.883
101362.894
101362.906
101362.918
101362.931
101362.945
101362.959
101362.974
101362.99
101363.007
101363.024
101363.043
101363.062
101363.082
101363.103
101363.125
101363.148
101363.172
101363.198
101363.224
101363.251
101363.28
101363.31
101363.341
101363.374
101363.408
101363.444
101363.481
101363.52
101363.561
101363.603
101363.647
101363.693
101363.74
101363.789
101363.839
101363.892
101363.945
101363.999
101364.055
101364.114
101364.178
101364.243
101364.308
101364.373
101364.439
101364.504
101364.568
101364.628
101364.685
101364.733
101364.771
101364.793
101364.793
101364.765
101364.701
101364.594
101364.435
101364.216
101363.927
101363.548
101363.056
101362.428
101361.678
101360.781
101359.639
101358.408
101356.991
101355.032
101353.153
101361.429
101361.433
101361.439
101361.444
101361.451
101361.458
101361.465
101361.474
101361.483
101361.493
101361.503
101361.515
101361.527
101361.54
101361.554
101361.569
101361.584
101361.601
101361.618
101361.637
101361.657
101361.678
101361.7
101361.723
101361.747
101361.773
101361.8
101361.829
101361.859
101361.891
101361.924
101361.96
101361.997
101362.036
101362.077
101362.121
101362.167
101362.215
101362.266
101362.319
101362.374
101362.434
101362.496
101362.561
101362.628
101362.7
101362.779
101362.863
101362.951
101363.04
101363.134
101363.232
101363.336
101363.443
101363.555
101363.671
101363.79
101363.911
101364.033
101364.153
101364.267
101364.373
101364.462
101364.528
101364.563
101364.556
101364.497
101364.376
101364.182
101363.906
101363.541
101363.078
101362.527
101361.836
101360.916
101360.078
101358.773
101357.57
101356.738
101354.767
101359.956
101359.959
101359.963
101359.968
101359.974
101359.98
101359.988
101359.995
101360.004
101360.014
101360.024
101360.036
101360.048
101360.061
101360.075
101360.09
101360.107
101360.124
101360.143
101360.162
101360.183
101360.205
101360.229
101360.254
101360.281
101360.309
101360.339
101360.37
101360.404
101360.439
101360.477
101360.517
101360.559
101360.604
101360.651
101360.701
101360.754
101360.81
101360.87
101360.933
101361
101361.07
101361.147
101361.23
101361.317
101361.408
101361.505
101361.607
101361.717
101361.832
101361.953
101362.081
101362.216
101362.358
101362.507
101362.663
101362.825
101362.993
101363.165
101363.339
101363.51
101363.674
101363.824
101363.95
101364.044
101364.091
101364.08
101363.993
101363.814
101363.527
101363.106
101362.537
101361.761
101360.709
101359.816
101359.327
101358.146
101356.456
101354.388
101352.261
101358.38
101358.382
101358.386
101358.39
101358.395
101358.4
101358.406
101358.414
101358.422
101358.43
101358.44
101358.451
101358.463
101358.475
101358.489
101358.504
101358.52
101358.537
101358.555
101358.574
101358.595
101358.617
101358.641
101358.667
101358.693
101358.722
101358.753
101358.785
101358.82
101358.856
101358.895
101358.937
101358.98
101359.028
101359.078
101359.132
101359.188
101359.248
101359.312
101359.382
101359.456
101359.534
101359.617
101359.707
101359.803
101359.904
101360.013
101360.128
101360.251
101360.382
101360.52
101360.667
101360.822
101360.986
101361.159
101361.342
101361.534
101361.736
101361.944
101362.158
101362.374
101362.586
101362.787
101362.968
101363.116
101363.216
101363.252
101363.204
101363.055
101362.779
101362.35
101361.742
101360.905
101359.772
101358.443
101357.122
101355.83
101354.172
101352.57
101351.038
101356.699
101356.701
101356.703
101356.706
101356.71
101356.714
101356.72
101356.726
101356.732
101356.74
101356.748
101356.758
101356.768
101356.779
101356.791
101356.804
101356.819
101356.834
101356.85
101356.868
101356.887
101356.907
101356.929
101356.953
101356.977
101357.004
101357.032
101357.062
101357.094
101357.129
101357.167
101357.207
101357.249
101357.293
101357.34
101357.391
101357.446
101357.505
101357.568
101357.635
101357.708
101357.785
101357.868
101357.956
101358.051
101358.152
101358.261
101358.376
101358.5
101358.632
101358.773
101358.922
101359.082
101359.251
101359.43
101359.618
101359.818
101360.027
101360.246
101360.473
101360.704
101360.933
101361.154
101361.354
101361.52
101361.635
101361.68
101361.633
101361.466
101361.14
101360.602
101359.808
101358.801
101357.695
101356.509
101355.252
101353.82
101352.41
101351.205
101349.477
101354.923
101354.924
101354.926
101354.927
101354.93
101354.933
101354.937
101354.941
101354.946
101354.951
101354.958
101354.965
101354.973
101354.981
101354.991
101355.001
101355.013
101355.025
101355.038
101355.052
101355.067
101355.084
101355.101
101355.12
101355.141
101355.163
101355.187
101355.212
101355.239
101355.267
101355.297
101355.329
101355.364
101355.402
101355.443
101355.487
101355.534
101355.585
101355.639
101355.698
101355.76
101355.827
101355.899
101355.976
101356.059
101356.148
101356.244
101356.346
101356.456
101356.574
101356.7
101356.835
101356.979
101357.132
101357.294
101357.464
101357.643
101357.829
101358.02
101358.21
101358.398
101358.579
101358.743
101358.878
101358.967
101358.991
101358.928
101358.746
101358.407
101357.867
101357.111
101356.193
101355.147
101353.993
101352.753
101351.43
101350.236
101349.075
101347.738
101345.61
101353.073
101353.073
101353.073
101353.074
101353.075
101353.076
101353.078
101353.08
101353.083
101353.086
101353.089
101353.093
101353.098
101353.103
101353.109
101353.115
101353.122
101353.129
101353.138
101353.147
101353.157
101353.167
101353.179
101353.191
101353.203
101353.217
101353.231
101353.247
101353.265
101353.284
101353.304
101353.327
101353.351
101353.376
101353.404
101353.434
101353.466
101353.5
101353.537
101353.577
101353.621
101353.667
101353.717
101353.772
101353.83
101353.893
101353.96
101354.032
101354.11
101354.195
101354.285
101354.384
101354.489
101354.599
101354.711
101354.83
101354.959
101355.098
101355.245
101355.397
101355.54
101355.664
101355.759
101355.811
101355.803
101355.713
101355.509
101355.149
101354.589
101353.804
101352.802
101351.625
101350.306
101348.846
101347.233
101345.466
101343.587
101341.901
101340.407
101338.419
101351.177
101351.176
101351.176
101351.175
101351.174
101351.174
101351.173
101351.173
101351.173
101351.173
101351.173
101351.174
101351.174
101351.175
101351.176
101351.177
101351.178
101351.179
101351.181
101351.182
101351.184
101351.187
101351.19
101351.193
101351.197
101351.2
101351.205
101351.21
101351.215
101351.221
101351.227
101351.234
101351.242
101351.251
101351.26
101351.27
101351.281
101351.294
101351.307
101351.322
101351.338
101351.354
101351.373
101351.392
101351.414
101351.44
101351.466
101351.495
101351.527
101351.561
101351.599
101351.638
101351.673
101351.719
101351.775
101351.822
101351.862
101351.896
101351.921
101351.939
101351.948
101351.934
101351.883
101351.778
101351.598
101351.32
101350.92
101350.361
101349.607
101348.614
101347.37
101345.909
101344.258
101342.413
101340.378
101338.186
101335.896
101333.586
101331.217
101328.606
101349.277
101349.276
101349.274
101349.271
101349.269
101349.266
101349.263
101349.26
101349.256
101349.253
101349.249
101349.245
101349.24
101349.236
101349.231
101349.226
101349.221
101349.216
101349.21
101349.204
101349.198
101349.191
101349.184
101349.177
101349.169
101349.161
101349.152
101349.143
101349.133
101349.123
101349.112
101349.101
101349.089
101349.076
101349.063
101349.049
101349.034
101349.019
101349.002
101348.982
101348.963
101348.943
101348.921
101348.899
101348.875
101348.85
101348.823
101348.795
101348.765
101348.734
101348.699
101348.65
101348.602
101348.561
101348.509
101348.45
101348.383
101348.304
101348.207
101348.082
101347.925
101347.73
101347.481
101347.168
101346.771
101346.27
101345.625
101344.81
101343.796
101342.529
101341.001
101339.209
101337.162
101334.899
101332.419
101329.78
101326.82
101323.891
101321.039
101318.141
101347.417
101347.414
101347.411
101347.407
101347.402
101347.397
101347.391
101347.385
101347.378
101347.371
101347.363
101347.354
101347.345
101347.335
101347.324
101347.313
101347.301
101347.288
101347.274
101347.259
101347.244
101347.227
101347.209
101347.191
101347.171
101347.149
101347.127
101347.103
101347.077
101347.05
101347.021
101346.99
101346.957
101346.922
101346.885
101346.845
101346.803
101346.756
101346.706
101346.655
101346.599
101346.541
101346.478
101346.412
101346.341
101346.267
101346.187
101346.093
101345.989
101345.877
101345.755
101345.625
101345.488
101345.348
101345.193
101345.019
101344.826
101344.614
101344.382
101344.121
101343.822
101343.47
101343.049
101342.545
101341.935
101341.188
101340.273
101339.168
101337.886
101336.314
101334.467
101332.315
101329.914
101327.239
101324.271
101320.664
101316.907
101313.649
101310.388
101306.849
101345.642
101345.638
101345.633
101345.627
101345.62
101345.612
101345.604
101345.594
101345.584
101345.572
101345.56
101345.547
101345.532
101345.517
101345.5
101345.482
101345.463
101345.443
101345.422
101345.398
101345.374
101345.347
101345.319
101345.289
101345.258
101345.224
101345.188
101345.149
101345.108
101345.064
101345.017
101344.967
101344.914
101344.857
101344.797
101344.732
101344.661
101344.586
101344.509
101344.426
101344.339
101344.246
101344.144
101344.031
101343.908
101343.769
101343.624
101343.479
101343.323
101343.154
101342.971
101342.772
101342.557
101342.327
101342.079
101341.811
101341.519
101341.195
101340.835
101340.433
101339.981
101339.468
101338.88
101338.181
101337.344
101336.404
101335.347
101334.053
101332.423
101330.581
101328.342
101325.592
101322.855
101320.002
101316.882
101313.617
101310.547
101307.604
101304.835
101302.273
101343.997
101343.992
101343.984
101343.976
101343.967
101343.957
101343.945
101343.932
101343.918
101343.903
101343.887
101343.869
101343.85
101343.829
101343.807
101343.783
101343.758
101343.731
101343.702
101343.671
101343.638
101343.603
101343.566
101343.526
101343.484
101343.438
101343.39
101343.339
101343.284
101343.225
101343.163
101343.096
101343.025
101342.95
101342.869
101342.784
101342.694
101342.596
101342.49
101342.376
101342.252
101342.119
101341.981
101341.836
101341.68
101341.511
101341.33
101341.138
101340.932
101340.712
101340.476
101340.224
101339.953
101339.661
101339.345
101339.003
101338.633
101338.231
101337.793
101337.312
101336.782
101336.187
101335.503
101334.725
101333.865
101332.786
101331.429
101329.959
101328.293
101326.308
101324.164
101321.956
101319.605
101317.107
101314.442
101311.665
101308.885
101306.16
101303.639
101301.522
101342.506
101342.499
101342.489
101342.479
101342.467
101342.454
101342.439
101342.424
101342.406
101342.388
101342.367
101342.345
101342.322
101342.297
101342.27
101342.242
101342.211
101342.179
101342.144
101342.107
101342.067
101342.026
101341.981
101341.934
101341.884
101341.83
101341.774
101341.713
101341.649
101341.581
101341.509
101341.432
101341.348
101341.258
101341.161
101341.058
101340.947
101340.83
101340.708
101340.578
101340.44
101340.291
101340.131
101339.959
101339.778
101339.585
101339.38
101339.162
101338.93
101338.682
101338.417