/*--------------------------------*- C++ -*----------------------------------*\
  =========                 |
  \\      /  F ield         | OpenFOAM: The Open Source CFD Toolbox
   \\    /   O peration     | Website:  https://openfoam.org
    \\  /    A nd           | Version:  8
     \\/     M anipulation  |
\*---------------------------------------------------------------------------*/
FoamFile
{
    version     2.0;
    format      ascii;
    class       surfaceScalarField;
    location    "0.027";
    object      phi;
}
// * * * * * * * * * * * * * * * * * * * * * * * * * * * * * * * * * * * * * //

dimensions      [1 0 -1 0 0 0 0];

internalField   nonuniform List<scalar> 
84340
(
-4.82223719e-08
2.72760322e-07
-2.24525313e-07
-2.04655037e-07
8.41427207e-07
-6.84974162e-07
-4.83177027e-07
1.45635895e-06
-1.17781183e-06
-8.95678051e-07
2.12207928e-06
-1.70954891e-06
-1.45224116e-06
2.84016516e-06
-2.28356878e-06
-2.1614296e-06
3.61034846e-06
-2.9011228e-06
-3.03061129e-06
4.43126222e-06
-3.5620391e-06
-4.06623869e-06
5.3010487e-06
-4.26537516e-06
-5.27406551e-06
6.21781381e-06
-5.0099355e-06
-6.65929499e-06
7.17990564e-06
-5.79461847e-06
-8.22666463e-06
8.18605035e-06
-6.61861595e-06
-9.98047398e-06
9.23537534e-06
-7.48149301e-06
-1.19245668e-05
1.03273597e-05
-8.38318459e-06
-1.4062275e-05
1.14617447e-05
-9.32394347e-06
-1.63963244e-05
1.26384219e-05
-1.03042674e-05
-1.89287248e-05
1.38573365e-05
-1.13248172e-05
-2.16606223e-05
1.51183894e-05
-1.23863576e-05
-2.45921412e-05
1.64213617e-05
-1.34896914e-05
-2.77221966e-05
1.77658552e-05
-1.46356296e-05
-3.10482866e-05
1.91512383e-05
-1.5824957e-05
-3.4566264e-05
2.05766029e-05
-1.70584116e-05
-3.82700789e-05
2.20407222e-05
-1.83366683e-05
-4.21514931e-05
2.35420004e-05
-1.96603207e-05
-4.61997698e-05
2.50784256e-05
-2.10298545e-05
-5.0401322e-05
2.66474968e-05
-2.24456202e-05
-5.47393278e-05
2.82461485e-05
-2.39077856e-05
-5.91933125e-05
2.98706485e-05
-2.54162738e-05
-6.37386586e-05
3.15164864e-05
-2.6970715e-05
-6.83460469e-05
3.31782117e-05
-2.85703635e-05
-7.29807405e-05
3.48492083e-05
-3.0214018e-05
-7.76018952e-05
3.6521605e-05
-3.18999188e-05
-8.21621113e-05
3.81863343e-05
-3.36255507e-05
-8.66067716e-05
3.98325929e-05
-3.53873337e-05
-9.08700363e-05
4.1444575e-05
-3.71806776e-05
-9.48687138e-05
4.29998228e-05
-3.90004829e-05
-9.85111546e-05
4.44843931e-05
-4.08412624e-05
-0.00010170377
4.58861245e-05
-4.26928128e-05
-0.000104348842
4.7172566e-05
-4.45267892e-05
-0.000106301727
4.82861342e-05
-4.63325306e-05
-0.000107354207
4.91519031e-05
-4.80986886e-05
-0.000107288565
4.97325503e-05
-4.97974648e-05
-0.000105886316
4.9963823e-05
-5.13653425e-05
-0.000102932701
4.9762766e-05
-5.27156674e-05
-9.8153162e-05
4.90322673e-05
-5.38110987e-05
-9.12149014e-05
4.7658088e-05
-5.45956678e-05
-8.17715909e-05
4.55220796e-05
-5.4964716e-05
-6.94618381e-05
4.24893299e-05
-5.47984386e-05
-5.38593744e-05
3.83648815e-05
-5.39667035e-05
-3.4503893e-05
3.29639106e-05
-5.2318785e-05
-1.1052587e-05
2.62534815e-05
-4.97041865e-05
1.68615949e-05
1.79589887e-05
-4.58726207e-05
5.01783886e-05
7.39824119e-06
-4.07145178e-05
8.96659429e-05
-5.58372111e-06
-3.39034242e-05
0.000136223283
-2.11269609e-05
-2.543007e-05
0.000190872184
-4.01574745e-05
-1.44913404e-05
0.000254759406
-6.3024938e-05
-8.62480123e-07
0.00032897315
-9.01554697e-05
1.59410463e-05
0.000415100864
-0.000122188804
3.6059786e-05
0.000514187342
-0.000159840581
6.0751867e-05
0.000627629163
-0.000203755342
9.03100691e-05
0.000757114916
-0.000254691076
0.000125200196
0.000904249024
-0.000313323872
0.000166182522
0.00107046874
-0.000380315165
0.000214085581
0.00125696246
-0.000456057117
0.000269550121
0.00146473051
-0.000541092708
0.000333307894
0.00169450471
-0.000635401534
0.000405607527
0.00194606835
-0.00073853838
0.000486952042
0.0022235957
-0.000857615648
0.00058006236
0.00253349741
-0.000989626453
0.000679695603
0.00285916975
-0.00110467351
0.000778968622
0.00319091927
-0.00126242244
0.000930637871
0.0035976841
-0.0015032609
0.00109645855
0.00408859551
-0.00164101633
0.00115006663
0.00448431513
-0.00172144159
0.00132568487
0.00481172431
-0.00204544821
0.00171800696
0.0053790129
-0.00239405568
0.00182674355
0.00608961855
-0.00246824922
0.00175763156
0.00657056567
-0.00257223685
0.00209128836
0.0067773859
-0.00282193824
0.00261515294
-0.00305674687
0.00288530792
0.00694887817
-3.60146855e-08
3.0881372e-07
-1.54805933e-07
9.60273188e-07
-3.68613087e-07
1.67022922e-06
-6.879579e-07
2.44149518e-06
-1.12158368e-06
3.27386972e-06
-1.67670676e-06
4.16555805e-06
-2.35936983e-06
5.11401977e-06
-3.1746122e-06
6.116394e-06
-4.12665408e-06
7.16996766e-06
-5.21901955e-06
8.27239289e-06
-6.45459702e-06
9.42176023e-06
-7.83564409e-06
1.06165665e-05
-9.36374317e-06
1.18556155e-05
-1.10397129e-05
1.3137885e-05
-1.28634929e-05
1.44623876e-05
-1.48339823e-05
1.58280281e-05
-1.69488644e-05
1.72334914e-05
-1.9204397e-05
1.8677134e-05
-2.15951767e-05
2.01568955e-05
-2.41138788e-05
2.1670224e-05
-2.67509722e-05
2.32140044e-05
-2.94943976e-05
2.47844824e-05
-3.23292316e-05
2.63771971e-05
-3.52373046e-05
2.79868921e-05
-3.81967912e-05
2.96074083e-05
-4.11817377e-05
3.1231554e-05
-4.41615184e-05
3.28509227e-05
-4.71002478e-05
3.44557465e-05
-4.99561946e-05
3.60347255e-05
-5.26808607e-05
3.75744809e-05
-5.52164976e-05
3.90578865e-05
-5.74954658e-05
4.04659832e-05
-5.94433637e-05
4.17811985e-05
-6.09834088e-05
4.29853654e-05
-6.20335212e-05
4.40507128e-05
-6.247482e-05
4.4926498e-05
-6.21425907e-05
4.55547194e-05
-6.08525671e-05
4.58833906e-05
-5.84138353e-05
4.58482624e-05
-5.46375283e-05
4.53764736e-05
-4.92957104e-05
4.43916033e-05
-4.21236502e-05
4.27926351e-05
-3.28329702e-05
4.0472934e-05
-2.11114213e-05
3.7311555e-05
-6.59388856e-06
3.31413472e-05
1.10798788e-05
2.78490801e-05
3.21309491e-05
2.14389627e-05
5.72138108e-05
1.32826735e-05
8.69501331e-05
3.22812342e-06
0.000122042287
-8.83822411e-06
0.000163333307
-2.33317443e-05
0.000211838554
-4.11068815e-05
0.000268473921
-6.22192634e-05
0.000334538614
-8.71921525e-05
0.000411024436
-0.000116644316
0.000499174524
-0.000151176646
0.000600480452
-0.000191463903
0.000716476238
-0.000238188154
0.000848663802
-0.000292033113
0.000998520046
-0.0003536182
0.00116753989
-0.000423719661
0.00135669967
-0.000502494985
0.00156683062
-0.000590459927
0.00179888901
-0.000688131262
0.00205403814
-0.000796259617
0.00233383676
-0.00091522044
0.00263695525
-0.00104167978
0.00296269859
-0.0011833851
0.00332244398
-0.00134940096
0.0037205288
-0.00150279087
0.00410651483
-0.00164844332
0.00448199443
-0.00187877759
0.00497008899
-0.00212914742
0.00550172861
-0.00225311474
0.00586135118
-0.00240509776
0.00612976252
-0.00266248936
0.00650256492
-0.00284106609
0.00688383856
-0.00295351026
0.00711290945
-0.00305098727
-0.00318983877
0.00724604456
-2.53050953e-08
3.34098293e-07
-1.1082923e-07
1.04576294e-06
-2.66992445e-07
1.82634941e-06
-5.02577438e-07
2.67703028e-06
-8.24668953e-07
3.59590607e-06
-1.23883743e-06
4.57966749e-06
-1.74924661e-06
5.62436717e-06
-2.35910515e-06
6.72618916e-06
-3.07069435e-06
7.88149293e-06
-3.88545875e-06
9.08709405e-06
-4.80403858e-06
1.03402787e-05
-5.82624743e-06
1.16387173e-05
-6.95100334e-06
1.29803182e-05
-8.17621536e-06
1.43630505e-05
-9.49863305e-06
1.5784767e-05
-1.09136657e-05
1.72430331e-05
-1.24151638e-05
1.87349743e-05
-1.39951789e-05
2.02571488e-05
-1.56436911e-05
2.18054244e-05
-1.73483106e-05
2.337488e-05
-1.90939545e-05
2.49597065e-05
-2.08624633e-05
2.65530741e-05
-2.26321448e-05
2.81469877e-05
-2.43772765e-05
2.97321621e-05
-2.60675618e-05
3.1297862e-05
-2.76673662e-05
3.28315596e-05
-2.91344588e-05
3.43182494e-05
-3.04201172e-05
3.57416743e-05
-3.14701177e-05
3.70850276e-05
-3.22249425e-05
3.83296401e-05
-3.26224546e-05
3.94557623e-05
-3.25801535e-05
4.04240766e-05
-3.19972127e-05
4.11986735e-05
-3.07450792e-05
4.173367e-05
-2.86703412e-05
4.19764244e-05
-2.56104268e-05
4.18670437e-05
-2.1389953e-05
4.13347011e-05
-1.58115757e-05
4.03054623e-05
-8.66052202e-06
3.86976286e-05
3.02063591e-07
3.64142782e-05
1.13477233e-05
3.33462766e-05
2.47938122e-05
2.93468238e-05
4.09660587e-05
2.43008739e-05
6.00572749e-05
1.8220438e-05
8.26783319e-05
1.05202589e-05
0.000109387213
1.14004618e-06
0.000140843964
-1.00181266e-05
0.000177804453
-2.36783351e-05
0.000221082215
-4.00504199e-05
0.000271747382
-5.95044334e-05
0.00033091327
-8.24990499e-05
0.00039938874
-0.00010958416
0.000478484375
-0.000141317259
0.000569580003
-0.000178290751
0.0006740849
-0.000221153019
0.000793457623
-0.000270554082
0.000929207195
-0.000327219337
0.00108268561
-0.000391673715
0.00125517081
-0.000464527113
0.00144765352
-0.000546111608
0.00166092034
-0.000636998786
0.00189573797
-0.000737325967
0.00215266943
-0.000847405981
0.00243246179
-0.000967939796
0.00273563519
-0.00109945101
0.00306314773
-0.00124275333
0.00341316293
-0.00139171776
0.00377881028
-0.00154905821
0.00415621235
-0.00172683144
0.00457097462
-0.00191758465
0.00500615693
-0.00208365884
0.0053838764
-0.00225653059
0.00572032121
-0.00246562224
0.0060939831
-0.00262680688
0.00642233995
-0.00273348667
0.0066030622
-0.00284323448
0.00673262459
-0.00297063773
0.00687907251
-0.00309995571
0.0070346682
-0.00320656074
-0.00330420706
0.00714907282
-1.89807743e-08
3.53110102e-07
-8.39346674e-08
1.11075886e-06
-2.03246823e-07
1.94570878e-06
-3.83699598e-07
2.85753538e-06
-6.30451124e-07
3.84271496e-06
-9.47139566e-07
4.89641842e-06
-1.33598903e-06
6.01328436e-06
-1.79787362e-06
7.18814698e-06
-2.33256326e-06
8.41626154e-06
-2.93902587e-06
9.69364183e-06
-3.61521584e-06
1.10165604e-05
-4.35803182e-06
1.23816322e-05
-5.16322061e-06
1.37856136e-05
-6.02524384e-06
1.52251889e-05
-6.93710279e-06
1.66967504e-05
-7.89011967e-06
1.81961848e-05
-8.87369674e-06
1.97186973e-05
-9.87502766e-06
2.12586382e-05
-1.08787652e-05
2.2809334e-05
-1.1866592e-05
2.43628941e-05
-1.28167277e-05
2.5910046e-05
-1.37034229e-05
2.74399918e-05
-1.44963377e-05
2.89401446e-05
-1.51607985e-05
3.03968877e-05
-1.56579348e-05
3.17952857e-05
-1.59449043e-05
3.31188413e-05
-1.59709693e-05
3.43446523e-05
-1.56738077e-05
3.54448802e-05
-1.4979141e-05
3.6390757e-05
-1.3797517e-05
3.71484441e-05
-1.2018359e-05
3.76770617e-05
-9.52371848e-06
3.79299256e-05
-6.17679812e-06
3.78522708e-05
-1.81950127e-06
3.73769242e-05
3.72662479e-06
3.6430875e-05
1.0648691e-05
3.49455814e-05
1.91536612e-05
3.28303497e-05
2.94761345e-05
2.99836257e-05
4.18987155e-05
2.6275684e-05
5.67172654e-05
2.15963695e-05
7.41175005e-05
1.59466619e-05
9.46568124e-05
8.80810415e-06
0.000118837435
1.20780776e-07
0.000147247454
-1.01891008e-05
0.000180569836
-2.28017415e-05
0.000219592037
-3.78818781e-05
0.000265343586
-5.57695773e-05
0.000318574759
-7.69095989e-05
0.000380300903
-0.000101776948
0.000451675467
-0.000130879701
0.000533945194
-0.000164769947
0.000628418194
-0.000204058851
0.000736495354
-0.000249396816
0.00085957886
-0.000301377422
0.000999067263
-0.000360645574
0.00115629061
-0.000427782671
0.00133236761
-0.000503302952
0.00152817903
-0.000587493216
0.00174436841
-0.000680725796
0.00198132025
-0.000783073555
0.00223948223
-0.000895171756
0.00251891198
-0.00101676776
0.00281929018
-0.00114779743
0.00313910266
-0.00128776706
0.00347703804
-0.00143740284
0.00383067176
-0.00159640567
0.00419602754
-0.00175709426
0.00457087337
-0.00192392731
0.00493594103
-0.00209192432
0.00528449581
-0.0022661654
0.00562078168
-0.00241997001
0.00590963153
-0.00254540876
0.00610340011
-0.00265942387
0.00625538126
-0.00277881606
0.0064142372
-0.002892361
0.00656676895
-0.00299578421
0.00669247804
-0.0030963527
0.00678953046
-0.00319700191
0.00689030602
-0.00330731992
-0.00339702456
0.00698314281
-1.78650387e-08
3.70884984e-07
-7.75826882e-08
1.17034556e-06
-1.8549803e-07
2.05347173e-06
-3.46259521e-07
3.01812597e-06
-5.62773526e-07
4.05904206e-06
-8.36314659e-07
5.1697585e-06
-1.16676078e-06
6.34351658e-06
-1.55246533e-06
7.57362582e-06
-1.99048146e-06
8.85404096e-06
-2.47647141e-06
1.0179385e-05
-3.005092e-06
1.1544925e-05
-3.56964269e-06
1.29459187e-05
-4.161935e-06
1.43776344e-05
-4.77211244e-06
1.58350889e-05
-5.38842421e-06
1.73127797e-05
-5.99694434e-06
1.88044191e-05
-6.5812189e-06
2.03026839e-05
-7.12188975e-06
2.17990208e-05
-7.59634347e-06
2.32835001e-05
-7.97853516e-06
2.47448007e-05
-8.23900466e-06
2.61702344e-05
-8.3437046e-06
2.75444166e-05
-8.25148489e-06
2.88476554e-05
-7.91421682e-06
3.00593578e-05
-7.27499075e-06
3.11558051e-05
-6.26559203e-06
3.21091959e-05
-4.80898163e-06
3.28878007e-05
-2.81878676e-06
3.34544506e-05
-1.92974955e-07
3.37647133e-05
3.18908814e-06
3.37661503e-05
7.46858035e-06
3.33973335e-05
1.27946803e-05
3.26035832e-05
1.93376508e-05
3.13090419e-05
2.72846814e-05
2.9429616e-05
3.68444458e-05
2.68708e-05
4.82740663e-05
2.35156137e-05
6.18465489e-05
1.92574631e-05
7.77489883e-05
1.40807173e-05
9.64809139e-05
7.54320803e-06
0.000118498227
-4.21581158e-07
0.00014432936
-9.88524404e-06
0.000174589884
-2.14533443e-05
0.000209985872
-3.52763217e-05
0.000251461202
-5.16657476e-05
0.000299683428
-7.10255504e-05
0.000355579144
-9.37794636e-05
0.000420201236
-0.000120393907
0.000494669122
-0.000151380127
0.000580195205
-0.000187306195
0.000678052587
-0.000228740795
0.000789570663
-0.000276292399
0.000916094921
-0.000330588196
0.00105893446
-0.0003922423
0.00121935815
-0.000461808
0.00139843686
-0.000539732319
0.00159682688
-0.00062618188
0.00181487615
-0.000721362147
0.00205258115
-0.000825208421
0.00230970883
-0.000937863986
0.00258561528
-0.00105899093
0.00287966292
-0.00118923083
0.00318960193
-0.00132671893
0.00351389402
-0.00147210252
0.00384718649
-0.00162107369
0.00418850788
-0.00177873966
0.0045294352
-0.00193735017
0.00486335519
-0.00209103191
0.0051717023
-0.00223229259
0.00544096003
-0.00236120201
0.00565229854
-0.00247752835
0.00581728358
-0.0025849829
0.00596327201
-0.00269142283
0.00609446209
-0.00279064162
0.00620849881
-0.00289287799
0.00630780141
-0.00299168039
0.00640348554
-0.00309148174
0.00649238321
-0.00318525254
0.00658268281
-0.00328729609
0.0066825385
-0.00340716378
-0.00349798955
0.00678351843
-2.07312779e-08
3.91627852e-07
-8.69670599e-08
1.23659632e-06
-2.02855899e-07
2.16937686e-06
-3.70695955e-07
3.18598353e-06
-5.90869896e-07
4.27923449e-06
-8.61923798e-07
5.44083165e-06
-1.18067565e-06
6.66228811e-06
-1.54247657e-06
7.93544657e-06
-1.94108818e-06
9.25267216e-06
-2.36840233e-06
1.06067182e-05
-2.81474695e-06
1.19912877e-05
-3.26875999e-06
1.33999486e-05
-3.71705225e-06
1.48259418e-05
-4.14396885e-06
1.62620188e-05
-4.53130117e-06
1.77001232e-05
-4.85797171e-06
1.91310987e-05
-5.09971075e-06
2.05444294e-05
-5.22828073e-06
2.1927595e-05
-5.21093767e-06
2.32661589e-05
-5.00895261e-06
2.45428157e-05
-4.5772158e-06
2.57384956e-05
-3.86445101e-06
2.68316488e-05
-2.81328871e-06
2.7796489e-05
-1.35609013e-06
2.86021554e-05
5.86816014e-07
2.92128954e-05
3.10952698e-06
2.95864834e-05
6.31892408e-06
2.96784035e-05
1.03339317e-05
2.94394467e-05
1.52889145e-05
2.88097369e-05
2.13349721e-05
2.77201042e-05
2.86400241e-05
2.60922958e-05
3.74056803e-05
2.38379466e-05
4.78648707e-05
2.08498723e-05
6.02692437e-05
1.70252676e-05
7.4808439e-05
1.23316254e-05
9.19250047e-05
6.39906486e-06
0.000112030831
-8.48360625e-07
0.000135600022
-9.48848679e-06
0.000163183428
-2.0040246e-05
0.00019541284
-3.26510792e-05
0.000233130533
-4.76030902e-05
0.000276937135
-6.52601756e-05
0.000327666586
-8.60061214e-05
0.000386265917
-0.000110265568
0.000453735404
-0.000138495727
0.000531159744
-0.000171204729
0.000619697538
-0.000208932948
0.000720558713
-0.00025224291
0.000834978511
-0.000301728072
0.000964223108
-0.000357988003
0.00110951729
-0.000421589859
0.00127195281
-0.000493027735
0.00145241398
-0.000572708415
0.00165132838
-0.000660728296
0.0018687515
-0.000757162076
0.00210433933
-0.000861776772
0.00235736372
-0.00097439398
0.00262671436
-0.00109456693
0.00291075238
-0.00122191028
0.00320687978
-0.00135512711
0.00351274409
-0.00149510448
0.00382320264
-0.00163718758
0.0041371475
-0.00178605828
0.00444637704
-0.00193031481
0.00473384287
-0.00206621706
0.00498691523
-0.0021904343
0.00520279401
-0.00230692392
0.00537879476
-0.00240831265
0.00552673012
-0.00250915716
0.00565434159
-0.0026051562
0.0057666487
-0.00269730983
0.00586706417
-0.0027918625
0.00596203928
-0.00288563658
0.00604786908
-0.00297872079
0.00613740658
-0.00308122981
0.00622530939
-0.00317939349
0.00631435442
-0.00327429894
0.00640399066
-0.00337692857
0.00650583538
-0.00350900109
-0.00361610405
0.00662395906
-2.54103179e-08
4.16904e-07
-1.03236331e-07
1.31423257e-06
-2.35191912e-07
2.30111498e-06
-4.20802336e-07
3.37135193e-06
-6.57415536e-07
4.51558371e-06
-9.40270064e-07
5.72340209e-06
-1.26257936e-06
6.98429441e-06
-1.61558365e-06
8.28812971e-06
-1.98857644e-06
9.62532571e-06
-2.36893516e-06
1.09867199e-05
-2.74133122e-06
1.23633093e-05
-3.0879584e-06
1.37461843e-05
-3.38834383e-06
1.51259188e-05
-3.61903081e-06
1.64922809e-05
-3.75296624e-06
1.78336181e-05
-3.75883343e-06
1.91365096e-05
-3.60014499e-06
2.03852684e-05
-3.23586388e-06
2.15628271e-05
-2.61895222e-06
2.26487463e-05
-1.69511331e-06
2.36184612e-05
-4.00476965e-07
2.44433279e-05
1.33930869e-06
2.50913163e-05
3.60773348e-06
2.55275011e-05
6.49920623e-06
2.57101027e-05
1.01205423e-05
2.55909602e-05
1.45918585e-05
2.51145479e-05
2.00524722e-05
2.42171466e-05
2.66648544e-05
2.28263955e-05
3.46139292e-05
2.08599616e-05
4.4113189e-05
1.82201097e-05
5.53961275e-05
1.48085789e-05
6.86527245e-05
1.05805208e-05
8.42723899e-05
5.22932679e-06
0.000102624656
-1.32793533e-06
0.000124132159
-9.17690253e-06
0.000149284379
-1.87542824e-05
0.00017864202
-3.02072469e-05
0.00021294631
-4.37941546e-05
0.000252742828
-5.98383049e-05
0.000298774153
-7.86841274e-05
0.00035188056
-0.000100711441
0.000412955405
-0.000126337214
0.000482965616
-0.000156018833
0.000562944265
-0.000190247046
0.00065398359
-0.00022953826
0.000757210237
-0.000274434991
0.000873759217
-0.000325486019
0.0010047406
-0.000383228895
0.00115117048
-0.000448163147
0.00131388931
-0.000520712681
0.00149348985
-0.000601197016
0.00169012968
-0.000689675017
0.00190354348
-0.000786130178
0.00213303776
-0.000890230575
0.00237747583
-0.0010016082
0.0026353057
-0.00111961476
0.00290433449
-0.00124343096
0.00318156299
-0.00137180378
0.00346344625
-0.00150380207
0.00374570656
-0.00163739629
0.0040245369
-0.00177394409
0.00429414474
-0.00190680482
0.00453764009
-0.00202956266
0.00474659946
-0.00213928347
0.00491723188
-0.00223686029
0.00505965249
-0.00233286824
0.00517993252
-0.0024272169
0.00529005369
-0.00251844791
0.00539233097
-0.00261144909
0.00549043076
-0.0027032674
0.00558165784
-0.00278854947
0.00566556593
-0.00287578602
0.00574326036
-0.00296334247
0.00581701793
-0.00305248675
0.00589830226
-0.00316252088
0.00599316152
-0.00327425683
0.00609178594
-0.00337292355
0.00618755028
-0.00347269005
0.00627387494
-0.00359532138
-0.0037248692
0.00638264519
-2.90172025e-08
4.45925987e-07
-1.14782489e-07
1.40000464e-06
-2.55906082e-07
2.44224628e-06
-4.48477516e-07
3.56393151e-06
-6.86027702e-07
4.75314189e-06
-9.59575167e-07
5.99695677e-06
-1.2576624e-06
7.28238735e-06
-1.56634667e-06
8.59681748e-06
-1.8691107e-06
9.92809022e-06
-2.14674063e-06
1.12643465e-05
-2.37690638e-06
1.25934669e-05
-2.53370888e-06
1.3902973e-05
-2.5874009e-06
1.51795903e-05
-2.50399186e-06
1.64088439e-05
-2.24444909e-06
1.75740389e-05
-1.76414672e-06
1.86561614e-05
-1.01171886e-06
1.96327843e-05
7.19039782e-08
2.04791371e-05
1.55423423e-06
2.1166337e-05
3.51189448e-06
2.16607095e-05
6.03115394e-06
2.19239637e-05
9.21063938e-06
2.19117129e-05
1.31647431e-05
2.15732653e-05
1.80244766e-05
2.08502233e-05
2.39392096e-05
1.96760667e-05
3.107836e-05
1.79752233e-05
3.96362666e-05
1.5659051e-05
4.98280245e-05
1.26344346e-05
6.18397248e-05
8.84804243e-06
7.60142672e-05
4.04533556e-06
9.26830988e-05
-1.86049912e-06
0.000112223243
-8.95988787e-06
0.000135068981
-1.76166985e-05
0.000161716073
-2.79753377e-05
0.000192810165
-4.0271335e-05
0.000228847776
-5.47922694e-05
0.000270487582
-7.18474759e-05
0.000318471227
-9.17782778e-05
0.00037359232
-0.000114959954
0.000436710593
-0.000141803047
0.000508747505
-0.000172749122
0.000590672471
-0.000208263086
0.000683486447
-0.000248833895
0.000788198866
-0.000294960757
0.00090579684
-0.00034713779
0.00103719454
-0.000405834544
0.00118317669
-0.000471470393
0.00134432766
-0.000544382507
0.00152093364
-0.000624772277
0.00171285585
-0.000712638624
0.00191946287
-0.000807808264
0.00213966182
-0.00090987847
0.00237188236
-0.00101835545
0.00261416377
-0.00113251694
0.00286394465
-0.00125139424
0.0031179724
-0.00137364792
0.00337243575
-0.00149789997
0.00362273587
-0.0016221099
0.00386369518
-0.00174476767
0.00409156992
-0.00186527748
0.00429502072
-0.0019774017
0.00446813186
-0.00207992371
0.00460775559
-0.0021691944
0.00472660707
-0.00225814322
0.00483346055
-0.00234372465
0.00493286942
-0.00243228873
0.00502182247
-0.0025161785
0.00510394361
-0.00260057768
0.00517664489
-0.00268416045
0.00524694977
-0.00277358208
0.0053210697
-0.00286267887
0.00539644991
-0.00295117503
0.0054727741
-0.00303967265
0.00555300459
-0.00313272271
0.00562743507
-0.00323695496
0.00571064406
-0.00335746813
0.00580841586
-0.00347069587
0.00591141787
-0.00357569141
0.00599688673
-0.00368078946
-0.00380978031
0.00608179922
-2.84417418e-08
4.74229775e-07
-1.09313975e-07
1.48068481e-06
-2.37519812e-07
2.57023411e-06
-4.04847467e-07
3.73101781e-06
-6.00032586e-07
4.94806444e-06
-8.0878129e-07
6.20542318e-06
-1.01376369e-06
7.48706862e-06
-1.19445048e-06
8.77718481e-06
-1.32686309e-06
1.00601649e-05
-1.38323743e-06
1.13203646e-05
-1.3319547e-06
1.25418098e-05
-1.13671533e-06
1.37073407e-05
-7.55736781e-07
1.47982001e-05
-1.41059346e-07
1.57937363e-05
7.61932809e-07
1.66705979e-05
2.01553829e-06
1.74020883e-05
3.69012898e-06
1.79577071e-05
5.8668964e-06
1.83018642e-05
8.63817084e-06
1.8394537e-05
1.21092937e-05
1.81890407e-05
1.64002942e-05
1.7632396e-05
2.16475304e-05
1.66638873e-05
2.80056944e-05
1.52144879e-05
3.56513417e-05
1.32039377e-05
4.47817359e-05
1.05450055e-05
5.55763221e-05
7.17993829e-06
6.83365921e-05
2.89805253e-06
8.33586596e-05
-2.38839347e-06
0.000100978003
-8.77210892e-06
0.000121578988
-1.65565108e-05
0.000145598409
-2.5880842e-05
0.000173596435
-3.69589029e-05
0.000206024271
-5.00456029e-05
0.000243465168
-6.54173945e-05
0.000286572322
-8.33797579e-05
0.0003360472
-0.00010426854
0.000392648215
-0.000128450033
0.000457187915
-0.000156319686
0.000530521651
-0.000188295586
0.00061353351
-0.000224817008
0.000707117474
-0.000266335423
0.000812153029
-0.000313301234
0.000929464741
-0.000366148492
0.00105977607
-0.00042527529
0.00120365408
-0.000491019342
0.00136144256
-0.000563626949
0.00153317939
-0.000643211584
0.00171850534
-0.00072971331
0.00191649872
-0.000822770916
0.00212573879
-0.000921884077
0.00234428873
-0.00102636358
0.00256981188
-0.00113540699
0.00279941678
-0.00124796571
0.00302977959
-0.00136288515
0.00325690229
-0.00147852241
0.00347617401
-0.00159292523
0.00368405076
-0.0017057824
0.00387556095
-0.00181362594
0.00404659108
-0.00191580391
0.00419187156
-0.00201056522
0.00430997816
-0.00209551549
0.00440780074
-0.00217775276
0.00449618571
-0.00225758781
0.00457681184
-0.00233877886
0.00465232429
-0.00241924564
0.00471975215
-0.00249972442
0.00478372043
-0.00258015522
0.00484792521
-0.002664792
0.00491095508
-0.00274719692
0.00497294657
-0.00283557971
0.00504061059
-0.00293034919
0.00511586091
-0.00302643034
0.00519864017
-0.00312245494
0.00528844807
-0.00322253313
0.00537680627
-0.0033253147
0.0054600961
-0.00344075921
0.00555102075
-0.00356162129
0.00564822522
-0.00367289671
0.00574521995
-0.00377778582
-0.00389538344
0.00583082077
-2.24182432e-08
4.96665636e-07
-8.13617295e-08
1.53965437e-06
-1.6681711e-07
2.65572001e-06
-2.65075762e-07
3.8293104e-06
-3.58745672e-07
5.04177068e-06
-4.2670017e-07
6.27341547e-06
-4.4396719e-07
7.504374e-06
-3.81465204e-07
8.7147209e-06
-2.05640035e-07
9.88437672e-06
1.22062681e-07
1.09926969e-05
6.45784041e-07
1.20181204e-05
1.41575529e-06
1.29373976e-05
2.48903883e-06
1.37249398e-05
3.93068106e-06
1.43521116e-05
5.8145797e-06
1.47867098e-05
8.22542414e-06
1.49912467e-05
1.12591286e-05
1.49239967e-05
1.50247695e-05
1.45362078e-05
1.96460743e-05
1.37732062e-05
2.52627821e-05
1.25722957e-05
3.2034122e-05
1.0861007e-05
4.01394647e-05
8.55848321e-06
4.97491484e-05
5.60472982e-06
6.11267605e-05
1.82623864e-06
7.45357536e-05
-2.86408758e-06
9.02740963e-05
-8.55851805e-06
0.000108681399
-1.5509378e-05
0.000130141334
-2.38484716e-05
0.000155138023
-3.37689557e-05
0.000184077857
-4.54965196e-05
0.000217474289
-5.92774667e-05
0.000255899178
-7.5384005e-05
0.000299968631
-9.4115294e-05
0.000350348058
-0.000115797087
0.000407750063
-0.000140782066
0.000472925779
-0.000169444597
0.000546653677
-0.000202178325
0.000629723977
-0.00023939044
0.000722918318
-0.000281490458
0.000826978499
-0.000328877808
0.000942568238
-0.000381925894
0.00107022898
-0.000440962839
0.0012103281
-0.000506248627
0.00136300046
-0.000577948845
0.00152808327
-0.000656103554
0.0017050387
-0.000740584036
0.00189284825
-0.00083102307
0.00208995312
-0.000926820331
0.00229430705
-0.00102712713
0.00250346003
-0.00113103944
0.00271449383
-0.00123739986
0.00292409644
-0.0013450122
0.00312853741
-0.00145240941
0.00332478518
-0.00155913584
0.00350891857
-0.00166265895
0.00367651598
-0.00176052581
0.00382275326
-0.001852023
0.00394671157
-0.00193758827
0.00404889288
-0.00201798932
0.00413391762
-0.00209559431
0.00420989469
-0.00217149787
0.00427990728
-0.0022477715
0.00434702921
-0.00232471555
0.00440828014
-0.00240003599
0.00446931577
-0.00248028747
0.00452855987
-0.00255897341
0.00458708891
-0.00263868888
0.00464597863
-0.00272368624
0.00470841643
-0.00280963817
0.0047742187
-0.00290138469
0.00484139565
-0.00299752782
0.00491293662
-0.00309797234
0.00499204732
-0.00320156603
0.00507450016
-0.0033049863
0.00515911878
-0.0034099337
0.00523512994
-0.00351677151
0.00530216061
-0.00362865397
0.00538037922
-0.00375111817
0.00547202367
-0.00386943415
-0.00397833267
0.005554966
-1.03425249e-08
5.06900963e-07
-2.80378663e-08
1.55720283e-06
-3.66777375e-08
2.66419487e-06
-1.53963553e-08
3.80784755e-06
6.11270048e-08
4.96505073e-06
2.22824301e-07
6.11150745e-06
5.04512357e-07
7.22246172e-06
9.4619981e-07
8.27279609e-06
1.59357003e-06
9.23675619e-06
2.49857098e-06
1.00874328e-05
3.72031407e-06
1.07961015e-05
5.32597363e-06
1.13314495e-05
7.39161748e-06
1.1658995e-05
1.00042507e-05
1.1739165e-05
1.32621478e-05
1.15284868e-05
1.72766406e-05
1.0976415e-05
2.21735971e-05
1.00266887e-05
2.80952642e-05
8.6141764e-06
3.52032079e-05
6.66488468e-06
4.36567723e-05
4.11833942e-06
5.36844919e-05
8.32882973e-07
6.55191545e-05
-3.2765966e-06
7.94238424e-05
-8.30039288e-06
9.56968037e-05
-1.44471768e-05
0.000114672854
-2.18406124e-05
0.000136768027
-3.06541885e-05
0.000162345347
-4.10872231e-05
0.000191854627
-5.33583059e-05
0.000225794128
-6.77090473e-05
0.000264701885
-8.4404907e-05
0.000309158237
-0.000103734499
0.00035978448
-0.000126010986
0.000417236299
-0.000151567915
0.000482194863
-0.000180756526
0.000555354137
-0.000213942298
0.000637404149
-0.000251495661
0.000729006708
-0.000293782045
0.00083076391
-0.00034114892
0.000943182064
-0.000393910026
0.00106662927
-0.000452326573
0.00120128749
-0.000516585837
0.00134710026
-0.000586777513
0.00150371828
-0.00066286874
0.00167044541
-0.00074467828
0.00184618485
-0.000831845542
0.00202936351
-0.00092376545
0.00221795016
-0.00101961254
0.00240952908
-0.00111840207
0.00260145069
-0.00121905155
0.00279076172
-0.00132035327
0.00297424918
-0.00142089015
0.00314874004
-0.00151950599
0.00331136607
-0.00161503842
0.00345758013
-0.00170535277
0.00358377871
-0.00178886025
0.00369067489
-0.00186742518
0.00378056855
-0.00194192095
0.00386024382
-0.00201726765
0.00393178588
-0.00208953539
0.00399864338
-0.00216245631
0.00406094091
-0.0022337996
0.00411953374
-0.00230636961
0.00417407041
-0.00237925742
0.00422588716
-0.0024518573
0.00427559178
-0.00252999753
0.00432537857
-0.0026087655
0.00437702535
-0.00269033961
0.00442839215
-0.00277505599
0.00448178636
-0.00286303395
0.00453604513
-0.00295564388
0.00459221424
-0.00305369622
0.00464999036
-0.00315574715
0.00471103078
-0.00326260476
0.0047763102
-0.00337026451
0.00484488174
-0.00347850481
0.00491664272
-0.00358853346
0.00498238689
-0.00369440048
0.0050395078
-0.00380824465
0.00509646454
-0.00392639897
-0.00404847058
0.00516659429
8.63865453e-09
4.98303065e-07
5.39024571e-08
1.51199762e-06
1.60329932e-07
2.55783505e-06
3.57751708e-07
3.61050106e-06
6.81357845e-07
4.64152623e-06
1.17193376e-06
5.62101847e-06
1.87625636e-06
6.51823051e-06
2.84763524e-06
7.30151237e-06
4.14660568e-06
7.93788404e-06
5.8417852e-06
8.39235413e-06
8.01066194e-06
8.62732737e-06
1.0741506e-05
8.60070922e-06
1.41337193e-05
8.26688624e-06
1.82995978e-05
7.5733912e-06
2.33662649e-05
6.46192368e-06
2.94768085e-05
4.86597438e-06
3.67784368e-05
2.72516179e-06
4.54679591e-05
-7.52471059e-08
5.57499324e-05
-3.61699277e-06
6.78554141e-05
-7.98704897e-06
8.20449439e-05
-1.33565564e-05
9.86092054e-05
-1.98407706e-05
0.000117903524
-2.75946274e-05
0.000140250046
-3.67936168e-05
0.000166040453
-4.76309408e-05
0.00019570652
-6.0320178e-05
0.000229715338
-7.50959671e-05
0.000268570535
-9.2213429e-05
0.000312810922
-0.000111949362
0.000363005677
-0.000134599591
0.000419747482
-0.000160476234
0.000483642271
-0.000189905704
0.000555295711
-0.000223221288
0.000635294367
-0.000260755115
0.000724179912
-0.000302827781
0.000822419748
-0.000349735439
0.000930372066
-0.000401734316
0.00104824599
-0.000459022809
0.00117605721
-0.000521721233
0.00131358106
-0.000589850432
0.00146030475
-0.000663309577
0.00161538253
-0.000741855376
0.00177759834
-0.000825084692
0.00194533943
-0.000912419589
0.0021165746
-0.001003081
0.00228890834
-0.00109609954
0.00245972036
-0.00119042496
0.00262628401
-0.00128496618
0.00278580693
-0.00137857497
0.00293557572
-0.00147012264
0.00307311893
-0.00155843403
0.00319630295
-0.0016426908
0.0033029314
-0.00172166785
0.00339264098
-0.00179506356
0.00346954258
-0.00186576343
0.00353803019
-0.00193591461
0.00360153304