/*--------------------------------*- C++ -*----------------------------------*\
  =========                 |
  \\      /  F ield         | OpenFOAM: The Open Source CFD Toolbox
   \\    /   O peration     | Website:  https://openfoam.org
    \\  /    A nd           | Version:  8
     \\/     M anipulation  |
\*---------------------------------------------------------------------------*/
FoamFile
{
    version     2.0;
    format      ascii;
    class       volVectorField;
    location    "0.027";
    object      U;
}
// * * * * * * * * * * * * * * * * * * * * * * * * * * * * * * * * * * * * * //

dimensions      [0 1 -1 0 0 0 0];

internalField   nonuniform List<vector> 
42400
(
(-0.0152966005 0.0146591191 -8.35693197e-27)
(-0.0458845043 0.0431659765 2.88038255e-26)
(-0.0773250985 0.0714192607 3.31343242e-26)
(-0.109832921 0.099508841 0)
(-0.143410781 0.127386298 0)
(-0.177953705 0.154900906 -5.78254615e-28)
(-0.213297022 0.181854653 0)
(-0.249254876 0.208042489 6.31768771e-28)
(-0.285647932 0.23327663 0)
(-0.322318668 0.257398904 6.89010932e-28)
(-0.359136863 0.280284764 7.18990163e-28)
(-0.395998686 0.301841838 -7.49834732e-28)
(-0.43282224 0.322005501 -8.33746536e-26)
(-0.469541686 0.34073339 -9.04830817e-26)
(-0.506101356 0.358000159 -8.47042326e-28)
(-0.542450687 0.373793187 0)
(-0.578540288 0.388109497 0)
(-0.614319142 0.400953819 0)
(-0.649732741 0.412337617 0)
(-0.684721927 0.42227879 0)
(-0.719222159 0.430801815 0)
(-0.753163004 0.437938113 -2.17516724e-27)
(-0.786467684 0.443726466 -1.90613831e-25)
(-0.819052538 0.448213386 -4.11485282e-25)
(-0.850826328 0.45145336 -2.22235989e-25)
(-0.88168935 0.453508925 -2.42486642e-27)
(-0.911532335 0.454450621 -2.47729619e-27)
(-0.940235165 0.454356885 5.0471749e-27)
(-0.967665262 0.453314 0)
(-0.993675568 0.451416283 0)
(-1.01810201 0.44876613 3.63904504e-25)
(-1.0407594 0.445472019 3.94505538e-25)
(-1.06143447 0.441638082 5.23628625e-27)
(-1.07986556 0.437366703 -4.62661016e-25)
(-1.09580982 0.432788389 -5.03939003e-25)
(-1.10904745 0.428120055 0)
(-1.11896906 0.423952657 0)
(-1.12523975 0.419268147 0)
(-1.12669524 0.414871422 0)
(-1.12377201 0.409538108 -7.58982005e-25)
(-1.11459529 0.406013053 -8.74591586e-25)
(-1.09884356 0.402813913 -8.9748653e-25)
(-1.07396992 0.400338694 -1.75513501e-24)
(-1.03974913 0.397050532 -3.50985716e-27)
(-0.994146378 0.394070076 9.34180577e-25)
(-0.935772521 0.391503238 9.89124696e-25)
(-0.863012563 0.38941193 -6.04979314e-27)
(-0.773785405 0.387594599 -1.07656994e-24)
(-0.665743351 0.385846631 -1.42440384e-26)
(-0.536959796 0.383742937 -1.20172585e-24)
(-0.383250858 0.381148893 -1.16175763e-33)
(-0.206724091 0.377946734 2.17032626e-24)
(0.00208499429 0.375963218 1.2369103e-24)
(0.237080128 0.37529061 -8.27626624e-26)
(0.518122556 0.372470995 0)
(0.84535076 0.366566254 0)
(1.22109535 0.358994387 0)
(1.65189502 0.35046002 1.61627806e-25)
(2.14398845 0.340577673 1.96179431e-25)
(2.70136507 0.329383179 0)
(3.32872702 0.317081855 -2.44013728e-24)
(4.02949952 0.303653734 -2.65908935e-24)
(4.80505006 0.289043213 2.01216215e-24)
(5.65520176 0.273987474 1.46204811e-24)
(6.57858891 0.260319169 0)
(7.56686194 0.253361705 0)
(8.61098531 0.251827248 -1.06106638e-25)
(9.73704124 0.231981061 -1.03791988e-24)
(10.8990964 0.263957359 1.38626422e-24)
(11.9627957 0.41410203 0)
(13.3621535 0.223833417 0)
(14.9452568 -0.143562873 1.67829902e-24)
(15.6982691 0.61008545 2.09987804e-24)
(16.7450928 1.15086844 0)
(19.0480944 -0.362334005 2.06083035e-24)
(20.3716064 -1.00397492 4.99181401e-24)
(20.6861945 1.03629548 6.002028e-24)
(21.6096951 1.62926387 -6.07765009e-24)
(23.0022554 0.510829706 -1.25920722e-23)
(23.3385316 -0.415605313 -3.29537414e-23)
(-0.0185018607 0.0164089188 0)
(-0.0558231438 0.0489193798 2.23113537e-26)
(-0.0942893553 0.081645654 2.60322943e-26)
(-0.133944469 0.114529534 0)
(-0.17465073 0.147397967 0)
(-0.21618254 0.180006912 3.64857794e-26)
(-0.258280509 0.212092258 4.09913227e-26)
(-0.300686898 0.243403708 3.38999171e-28)
(-0.343168241 0.273723228 0)
(-0.385525849 0.302872417 3.626808e-28)
(-0.427597169 0.330712639 3.74291036e-28)
(-0.469251497 0.357140775 -6.55632097e-26)
(-0.510382901 0.382082907 -1.42458609e-25)
(-0.550902398 0.405487668 -7.7711645e-26)
(-0.590730695 0.427320337 8.40647201e-26)
(-0.62979219 0.447558245 9.25773979e-26)
(-0.668010447 0.466187612 0)
(-0.705305011 0.483201681 8.11705893e-28)
(-0.741589325 0.498599889 0)
(-0.776769417 0.512387769 0)
(-0.810743077 0.52457732 0)
(-0.843399256 0.535187597 -1.51479492e-25)
(-0.87461752 0.544245367 -3.2809708e-25)
(-0.904267413 0.551785696 -1.77877758e-25)
(-0.932207602 0.557852382 0)
(-0.958284616 0.562498194 -1.45415086e-27)
(-0.9823312 0.565785031 -7.41579235e-28)
(-1.00416456 0.567783994 1.35678597e-27)
(-1.02358343 0.568574625 -2.6843991e-25)
(-1.0403614 0.568241918 -2.90924002e-25)
(-1.05423454 0.566880809 -3.87110704e-28)
(-1.06493634 0.564590207 -9.45752255e-30)
(-1.07223857 0.561447307 -3.58556127e-25)
(-1.07546696 0.557877049 -3.54500215e-25)
(-1.07444936 0.553302504 3.64562971e-25)
(-1.06850595 0.548291187 4.1474021e-25)
(-1.0576913 0.542434032 0)
(-1.04065613 0.537006564 -2.48184428e-27)
(-1.01631156 0.531234199 0)
(-0.982742536 0.525300641 -7.83208634e-27)
(-0.939880315 0.518300843 -6.38976589e-25)
(-0.885996582 0.511119878 -6.67310575e-25)
(-0.819873857 0.503911021 -1.52937451e-26)
(-0.739998528 0.496645295 1.78541016e-26)
(-0.644329344 0.489181478 -4.44524852e-26)
(-0.530929027 0.48144644 2.59313562e-26)
(-0.398388654 0.473127073 -3.00999858e-26)
(-0.243532485 0.464241254 -7.48334523e-25)
(-0.0633319992 0.455597336 -7.62355889e-25)
(0.140057089 0.449538659 0)
(0.37104704 0.444198026 5.26354488e-26)
(0.651394069 0.436108413 -1.16225283e-25)
(0.971553523 0.425712181 -7.70457552e-25)
(1.33870434 0.415395745 -1.01516792e-24)
(1.75922039 0.405150217 -1.76654852e-25)
(2.23786326 0.394787677 -1.91991513e-24)
(2.77979795 0.384391514 -1.87321158e-24)
(3.38989592 0.37395076 2.58470296e-25)
(4.07194287 0.363576631 2.98224754e-25)
(4.82792094 0.353577396 -7.65040219e-25)
(5.65967531 0.344556578 -7.12698286e-26)
(6.56657546 0.338268921 -4.47785024e-25)
(7.5465584 0.336537112 5.11381706e-25)
(8.58927953 0.341647909 0)
(9.68903957 0.354185407 -1.46803628e-24)
(10.8378741 0.379686178 -6.22209625e-24)
(12.0088127 0.425365753 -2.68106152e-24)
(13.2555199 0.431517137 0)
(14.5735945 0.408477328 2.80032701e-26)
(15.6656712 0.636543769 1.46773302e-24)
(16.8449779 0.838945114 8.49722728e-24)
(18.5169047 0.296673355 1.3738687e-23)
(19.7800599 0.122221782 -8.69325206e-24)
(20.3086567 1.20899551 -7.9648467e-24)
(21.3429348 1.31635043 9.92445133e-26)
(22.8908062 0.190002181 2.33690516e-23)
(23.3817856 -0.175180415 2.00380665e-23)
(23.468975 0.529278095 -8.07554687e-24)
(23.4147677 0.995821 -1.30456976e-23)
(23.3871 0.618354436 -2.70344757e-23)
(-0.0210760782 0.0172775466 2.36041262e-27)
(-0.0639296861 0.0519978548 2.05086011e-29)
(-0.108268908 0.0873654232 -2.27516305e-29)
(-0.153980314 0.123206171 1.87705463e-29)
(-0.200770891 0.159237286 0)
(-0.248288608 0.195135773 -2.92095386e-26)
(-0.29618321 0.230587167 3.11478286e-35)
(-0.344116677 0.265304237 3.64454344e-26)
(-0.391794752 0.299043103 4.03394697e-26)
(-0.438971043 0.331607874 8.88315975e-26)
(-0.485444006 0.362847435 4.87040598e-26)
(-0.531049205 0.392648706 8.74071924e-30)
(-0.575649522 0.420928685 -1.57012786e-30)
(-0.619125307 0.447626769 6.31378141e-26)
(-0.661365677 0.472698284 6.86027575e-26)
(-0.702261552 0.496109611 -1.59416726e-28)
(-0.741700492 0.517834937 -8.06049586e-26)
(-0.77956313 0.537854432 -1.75166371e-25)
(-0.815720866 0.556153521 -9.5001127e-26)
(-0.850034456 0.572722945 -3.58388001e-28)
(-0.882353178 0.587559324 4.36348645e-28)
(-0.912514247 0.600666032 5.25713654e-28)
(-0.940342123 0.612054335 0)
(-0.965647686 0.621744634 -1.40116162e-27)
(-0.988227011 0.629767121 1.54727641e-25)
(-1.00785811 0.636162072 -1.02918155e-28)
(-1.02429407 0.64098114 -1.81872293e-25)
(-1.03726146 0.644286925 -1.9792324e-25)
(-1.04647076 0.64614027 -2.16226409e-25)
(-1.05162219 0.646579282 2.25449414e-25)
(-1.05222236 0.645759839 3.96655417e-27)
(-1.04800754 0.643558946 -4.68849423e-25)
(-1.03848886 0.640347614 -2.75587637e-25)
(-1.02354854 0.636101779 0)
(-1.00231891 0.631421605 0)
(-0.973309836 0.625854021 6.92614371e-27)
(-0.935109237 0.619226496 0)
(-0.88683406 0.61139857 -1.91221236e-26)
(-0.827691535 0.60265124 -4.3588766e-25)
(-0.756398559 0.593367622 -5.08412001e-26)
(-0.671587767 0.583570976 4.66652513e-25)
(-0.571412078 0.573192452 0)
(-0.454039786 0.562208405 0)
(-0.318144336 0.550352357 -5.8005401e-25)
(-0.160771594 0.537962333 -5.49854733e-25)
(0.0197492827 0.527092164 -4.83692415e-26)
(0.219373471 0.518459399 0)
(0.457871891 0.508141913 0)
(0.733136288 0.495983367 -6.62971887e-25)
(1.04917406 0.483596612 -5.95450143e-25)
(1.41125313 0.471898309 8.08716601e-26)
(1.82490203 0.460960724 0)
(2.29444948 0.45078702 4.05395471e-25)
(2.82503278 0.441602051 5.69640439e-25)
(3.42167353 0.433539156 7.2050048e-25)
(4.08830276 0.426855202 8.92341596e-26)
(4.82789206 0.422185349 -1.38085299e-25)
(5.64323884 0.420788032 4.3830489e-32)
(6.5353941 0.423991772 -6.15374598e-32)
(7.50157701 0.43266606 -3.13574854e-24)
(8.53716183 0.447734138 -2.42647169e-24)
(9.62826902 0.472025702 3.04526671e-24)
(10.7670001 0.506023082 4.24239566e-24)
(11.9484194 0.54737944 0)
(13.1637965 0.59373673 6.38703846e-24)
(14.4066899 0.648429029 1.15802487e-23)
(15.6191168 0.739470798 6.19578018e-24)
(16.8324937 0.827376951 0)
(18.1347266 0.800168636 -4.17000005e-26)
(19.309884 0.811543079 9.60696776e-24)
(20.2364964 1.18444758 9.82275166e-24)
(21.2639564 1.25623465 0)
(22.5310672 0.745719152 0)
(23.2581797 0.711195476 1.59810204e-24)
(23.4384984 1.20586171 -1.80732284e-24)
(23.4422651 1.28095026 1.0149079e-23)
(23.4305953 1.11209359 1.03070878e-23)
(23.434745 0.860260878 0)
(23.4016854 0.928788059 -3.30646539e-24)
(23.3552129 0.881957211 2.4343149e-23)
(-0.0231327606 0.0174981743 -5.2538026e-29)
(-0.0705222593 0.0530430244 -8.188571e-29)
(-0.119770559 0.0895683739 7.72128507e-27)
(-0.170604536 0.126806428 -9.08464336e-27)
(-0.222589955 0.164396205 -1.0271552e-26)
(-0.275250475 0.201951386 0)
(-0.328105752 0.239105189 -2.60574541e-26)
(-0.38075812 0.275547695 -2.8512229e-26)
(-0.432844907 0.311021131 -3.17123292e-26)
(-0.484066343 0.345318314 -3.47869767e-26)
(-0.534176347 0.378280054 -3.85924295e-26)
(-0.582970344 0.409787058 -8.32777977e-35)
(-0.630272997 0.43975066 -3.80443382e-28)
(-0.675926495 0.468104322 -5.2151466e-34)
(-0.719780438 0.494796712 4.51382922e-28)
(-0.761683881 0.519786638 -5.7119975e-26)
(-0.801479526 0.543039748 6.15177637e-26)
(-0.83899978 0.564526774 1.14051741e-27)
(-0.87406426 0.584223052 -7.01149034e-26)
(-0.906478211 0.602109158 -1.37546171e-27)
(-0.936031581 0.618172288 3.07579943e-27)
(-0.962497525 0.632407459 8.766335e-26)
(-0.985624105 0.644815093 9.47125634e-26)
(-1.00513577 0.655400836 -2.00619476e-27)
(-1.02073721 0.664173441 0)
(-1.03211106 0.67113376 -2.4310092e-27)
(-1.03886794 0.676279282 0)
(-1.04065824 0.67964912 -1.3678609e-25)
(-1.03714779 0.68142518 -2.77705009e-25)
(-1.02797802 0.681838646 -1.62718344e-25)
(-1.01297868 0.680929412 1.89041342e-25)
(-0.990621613 0.678785451 2.29055681e-25)
(-0.960194869 0.675132589 -1.93311813e-26)
(-0.920416939 0.669891209 -1.08036709e-26)
(-0.869990658 0.663166467 2.42559801e-25)
(-0.808577509 0.655159368 2.64142175e-25)
(-0.734870366 0.646185501 0)
(-0.647545814 0.636296544 -3.0839174e-25)
(-0.544953326 0.62551202 -3.16265192e-25)
(-0.425350952 0.613887705 -3.96971066e-26)
(-0.287385829 0.601225292 -4.44398218e-26)
(-0.128342282 0.587831892 0)
(0.0538535443 0.575760971 0)
(0.254366167 0.565647637 0)
(0.493803195 0.553718211 -6.35115696e-26)
(0.768638218 0.54036319 -4.6663132e-25)
(1.08304919 0.527566461 -3.70903243e-25)
(1.4424126 0.515911809 0)
(1.85108519 0.505429699 0)
(2.31389722 0.496373045 -3.7764601e-25)
(2.83581805 0.489051607 -2.22476743e-25)
(3.42171264 0.483687175 -2.43232648e-25)
(4.07584399 0.480962657 -9.16837995e-26)
(4.80189598 0.482164529 3.08075672e-25)
(5.60292954 0.488484556 8.31729498e-26)
(6.4799928 0.50083243 -8.5136974e-25)
(7.43174458 0.519941991 -1.49451725e-24)
(8.45317318 0.546400398 -2.7693841e-24)
(9.5371061 0.581351101 0)
(10.6690581 0.626567543 -5.16171878e-25)
(11.8424093 0.681904469 -4.40709896e-24)
(13.0450947 0.747351222 -9.52879717e-24)
(14.2645334 0.823878936 5.48840879e-25)
(15.4896001 0.906381528 5.63530397e-25)
(16.7081527 0.98939448 -8.13415952e-24)
(17.9180129 1.07002671 7.4512379e-24)
(19.0441419 1.16880426 7.6646796e-24)
(20.0911716 1.293445 -1.21416483e-24)
(21.0994703 1.37938863 -5.10962277e-24)
(22.1014897 1.29241709 -1.02081221e-23)
(22.9022637 1.29344972 8.2501179e-26)
(23.3774398 1.49271549 -1.86521687e-23)
(23.5013448 1.50780627 -1.17908465e-23)
(23.5155878 1.41789515 0)
(23.5220555 1.35341933 -7.94720512e-24)
(23.4565275 1.41404891 -3.01936566e-23)
(23.4341062 1.40242157 3.42168408e-24)
(23.4347868 1.33999103 8.71024057e-24)
(23.4647718 1.28162194 1.48516286e-23)
(23.4240124 1.26413254 1.50923153e-23)
(-0.024992478 0.017405552 1.53314634e-27)
(-0.0764982206 0.0530053828 0)
(-0.130210821 0.0897709527 0)
(-0.185702159 0.127359913 2.32381687e-30)
(-0.242390412 0.165352115 0)
(-0.299672058 0.203321399 0)
(-0.356982876 0.240873634 0)
(-0.4137964 0.277667322 9.68155315e-28)
(-0.469682221 0.313433849 0)
(-0.524312166 0.34797102 -5.53639995e-28)
(-0.577382845 0.381123443 -2.90575835e-26)
(-0.628643148 0.412770997 -7.85820422e-34)
(-0.677872916 0.442825204 3.07222859e-26)
(-0.724868716 0.471220074 0)
(-0.769432253 0.497904532 7.70355622e-28)
(-0.811361235 0.522837153 -1.66946121e-27)
(-0.85044254 0.545983038 0)
(-0.886447715 0.567312293 -4.06232581e-26)
(-0.919129049 0.58680002 -2.107812e-27)
(-0.948210242 0.604423229 8.79409219e-26)
(-0.973383325 0.620155968 5.21405297e-26)
(-0.994341551 0.633926855 -2.62391717e-27)
(-1.01067231 0.645783267 0)
(-1.02208126 0.655728491 6.46008517e-26)
(-1.02823478 0.663859643 6.61502003e-26)
(-1.02880282 0.670309289 6.5763048e-26)
(-1.0231916 0.675082764 7.65935739e-26)
(-1.01060143 0.678090862 -8.61587602e-26)
(-0.990242119 0.679288025 -9.18159973e-26)
(-0.961169948 0.678597806 0)
(-0.922132773 0.676049178 9.71379959e-26)
(-0.872836712 0.671926744 1.0206366e-25)
(-0.812104576 0.666400326 -1.36534866e-26)
(-0.738757108 0.659544104 1.11902993e-25)
(-0.651487311 0.651436797 1.38181279e-25)
(-0.548713805 0.642158501 3.56272553e-26)
(-0.428721823 0.631809797 -1.97745961e-26)
(-0.290090193 0.620252782 1.78284359e-25)
(-0.13030227 0.607803684 1.16264823e-25)
(0.0527701507 0.596442029 -1.55510497e-25)
(0.254406259 0.586721986 -5.5681319e-25)
(0.494473137 0.575366495 -3.32007004e-25)
(0.769210351 0.562897606 0)
(1.08254933 0.551377928 7.01720591e-26)
(1.43958213 0.541288389 1.97890948e-25)
(1.84428581 0.532660184 8.53956904e-26)
(2.30135642 0.525911551 -1.80667096e-32)
(2.81573259 0.521423963 8.5342121e-27)
(3.39220295 0.519801329 0)
(4.03525105 0.522079154 1.25922611e-25)
(4.74848698 0.529423953 6.32240015e-26)
(5.53488368 0.542721849 -3.64127008e-25)
(6.39587135 0.562758737 6.86222189e-25)
(7.33087094 0.590302668 -6.36255656e-26)
(8.33706742 0.626239481 -1.14923776e-24)
(9.40805094 0.671519372 -1.55788434e-24)
(10.5342476 0.727390438 -6.41512263e-24)
(11.6994318 0.79545645 -4.96673298e-24)
(12.8939629 0.875911427 -4.95379283e-24)
(14.1030721 0.965327772 -6.10454058e-24)
(15.3222112 1.06310989 0)
(16.5262166 1.16549111 5.54692783e-25)
(17.7068996 1.277488 -6.16653884e-24)
(18.8313118 1.38963266 -7.84745551e-24)
(19.9081205 1.4951916 -4.14260433e-26)
(20.9279402 1.59339407 0)
(21.7994796 1.67005435 1.08375514e-23)
(22.6221061 1.74346997 1.13930467e-23)
(23.188142 1.80536693 1.50329177e-24)
(23.5181288 1.82302062 -1.52229838e-24)
(23.582202 1.8033197 -4.46598774e-26)
(23.5716338 1.79876265 -3.16683508e-24)
(23.5396921 1.82323295 -1.00985162e-23)
(23.5180447 1.72955055 -1.73627608e-23)
(23.5024041 1.70790327 -1.07984509e-24)
(23.5303227 1.63047264 0)
(23.5199898 1.60888954 -8.87061125e-24)
(23.5223137 1.58034554 -1.1222566e-23)
(23.5759607 1.51035691 0)
(23.5109699 1.53815632 -1.22582765e-23)
(-0.0269748278 0.0172493218 -3.51952678e-27)
(-0.0827429728 0.0526175576 -6.19386057e-27)
(-0.140971086 0.0891779135 -6.52261798e-27)
(-0.20107487 0.126529408 2.56152286e-28)
(-0.26232319 0.164209794 7.70661823e-27)
(-0.323982101 0.201764084 5.77925629e-28)
(-0.385373707 0.238785133 -9.3471716e-27)
(-0.445905395 0.27493016 -8.65578118e-27)
(-0.505072356 0.309922358 -6.90320092e-28)
(-0.562431137 0.343558893 -1.46192106e-27)
(-0.61767085 0.375691457 8.80159874e-27)
(-0.670479759 0.406216388 2.88480894e-26)
(-0.720583184 0.435052835 1.91709831e-26)
(-0.767720809 0.462142575 1.79941807e-26)
(-0.811632978 0.487442514 -1.01501396e-27)
(-0.852049446 0.510919005 -2.00867175e-26)
(-0.888675762 0.532543787 0)
(-0.921190985 0.552293243 0)
(-0.94927562 0.570104002 -2.11620457e-26)
(-0.972535272 0.586038901 -4.56013605e-26)
(-0.99065372 0.600116615 -1.62462327e-26)
(-1.00319764 0.612395026 -9.55513185e-27)
(-1.00960188 0.622738697 -1.10987727e-33)
(-1.00921342 0.631168903 1.20936477e-26)
(-1.00132287 0.637650896 -5.33532198e-27)
(-0.985075337 0.642116135 -2.12419255e-26)
(-0.95974994 0.644691467 -6.42477849e-27)
(-0.924671823 0.645549029 5.41702116e-27)
(-0.878886555 0.644765687 -5.87408313e-27)
(-0.821319566 0.642408915 1.27519018e-26)
(-0.750782852 0.638546181 0)
(-0.665920708 0.633265022 -3.97481547e-26)
(-0.565115559 0.626672144 1.61485506e-26)
(-0.446672396 0.618879441 4.84574287e-26)
(-0.309090218 0.609801593 0)
(-0.150008456 0.599760008 6.72045352e-27)
(0.0326804459 0.590562846 -2.61078511e-26)
(0.23476917 0.582670004 0)
(0.474448876 0.573475501 0)
(0.74830296 0.563464195 1.40889399e-27)
(1.05992819 0.554627244 1.53253966e-26)
(1.41412135 0.547453101 -1.35325423e-25)
(1.8146536 0.542031268 0)
(2.26601836 0.538917571 9.90500893e-26)
(2.77301259 0.538772878 2.20777516e-25)
(3.34019987 0.542344855 2.27645458e-25)
(3.97173472 0.550495223 -1.07411914e-25)
(4.67099466 0.564198943 -7.85225246e-28)
(5.44090358 0.584240625 0)
(6.28320004 0.61136258 -5.08856691e-25)
(7.19819494 0.646413751 3.22540733e-25)
(8.18418785 0.690281093 1.19349317e-24)
(9.23706327 0.743804294 4.06657229e-25)
(10.3489067 0.807797243 -1.47353966e-24)
(11.5084475 0.883106321 -5.17386005e-24)
(12.6978055 0.971445271 6.26494242e-32)
(13.9043554 1.07245759 2.75873123e-24)
(15.1127725 1.18285796 0)
(16.3123951 1.30373307 0)
(17.4784865 1.42634445 5.4078866e-25)
(18.6165163 1.55379053 5.54412303e-25)
(19.6762422 1.67248785 0)
(20.6888685 1.79596521 7.69773166e-24)
(21.5720669 1.89830783 6.52584405e-24)
(22.4221132 1.98267168 -1.02916139e-23)
(23.0489615 2.0342838 -3.52933502e-23)
(23.4710618 2.07280868 -1.48097884e-23)
(23.5749369 2.13055283 -9.34346142e-24)
(23.6040739 2.13442645 -7.16444768e-24)
(23.5910836 2.17906544 -1.73364066e-24)
(23.5586965 2.16430488 1.27910375e-23)
(23.5547076 2.09025339 1.07155667e-23)
(23.5604605 2.05488984 -1.48127702e-23)
(23.5706191 2.0153742 -9.69970981e-24)
(23.5859107 1.98588924 -1.12022212e-23)
(23.603864 1.96261169 -1.64436707e-23)
(23.5977671 1.9441689 -1.23819701e-23)
(23.6433741 1.88683697 1.84108904e-31)
(23.7797419 1.79317041 3.69229474e-23)
(23.735167 1.7969206 2.48614954e-23)
(-0.0293019219 0.0171485936 1.99644374e-27)
(-0.0898539182 0.0522479969 -2.58239305e-28)
(-0.152951508 0.0884221603 7.39522049e-27)
(-0.217846781 0.125224014 4.52956763e-34)
(-0.283655141 0.162165459 -7.11947745e-27)
(-0.349510451 0.198777782 -6.44431154e-27)
(-0.414624178 0.234650637 -1.38897852e-26)
(-0.478309473 0.269447462 -6.02959372e-27)
(-0.539985139 0.302902886 -6.4662282e-27)
(-0.599150641 0.334821529 -5.84480256e-27)
(-0.655394957 0.365070178 -4.92583249e-27)
(-0.708362894 0.39355623 -3.00897275e-27)
(-0.757703627 0.420218541 -2.85388024e-27)
(-0.803080378 0.445015839 -2.74923563e-27)
(-0.844152187 0.467923025 -1.13172573e-27)
(-0.880577806 0.488891376 -1.21040703e-27)
(-0.911935242 0.507999675 3.97936192e-27)
(-0.937845315 0.52515936 1.05216068e-26)
(-0.957796255 0.540445929 2.99930595e-27)
(-0.971234508 0.55375912 3.21825742e-27)
(-0.977491218 0.565094024 2.80182177e-26)
(-0.97591547 0.574492922 2.99066818e-26)
(-0.965893691 0.582064528 0)
(-0.946637613 0.587836173 -4.33056592e-27)
(-0.917262555 0.591853164 0)
(-0.876784504 0.594164857 0)
(-0.824118311 0.594833614 -5.43172286e-27)
(-0.758047883 0.593953126 -3.52415457e-26)
(-0.67719187 0.591639059 -5.70496709e-26)
(-0.57995776 0.588015384 6.51110225e-26)
(-0.464656142 0.583213675 4.33126839e-26)
(-0.329712024 0.577206194 -1.62011466e-26)
(-0.172893515 0.570312131 1.73519764e-26)
(0.00785549523 0.564104536 0)
(0.209079463 0.55894089 -2.00483067e-26)
(0.446859587 0.55290066 0)
(0.718417632 0.546396222 0)
(1.02714865 0.541257589 -2.55512611e-26)
(1.37741906 0.538030751 0)
(1.77286858 0.536943504 0)
(2.21768267 0.538633191 1.40757372e-25)
(2.71627443 0.543770028 1.04498741e-25)
(3.27284841 0.553083001 0)
(3.89128106 0.567390912 0)
(4.57479364 0.587608621 0)
(5.32628012 0.614565832 -1.05714983e-25)
(6.14766854 0.649088783 -1.18340499e-25)
(7.03960105 0.691998132 1.02812039e-24)
(8.00104355 0.744063695 1.15113376e-24)
(9.02882249 0.805907057 1.45683481e-24)
(10.117292 0.8779785 1.81937111e-24)
(11.2573883 0.960501131 2.43638707e-24)
(12.4372612 1.05339255 2.92390835e-24)
(13.6379119 1.15790401 0)
(14.8444405 1.27308305 0)
(16.0404256 1.39654687 -2.95973677e-24)
(17.210839 1.52767858 -6.75972164e-24)
(18.335189 1.66048127 -3.83702365e-24)
(19.4028619 1.79677032 -3.94301358e-24)
(20.3831034 1.92200353 -2.95561467e-24)
(21.2992835 2.04286133 8.77933112e-24)
(22.0757782 2.1366126 1.80517664e-23)
(22.8057915 2.21164909 6.39162364e-25)
(23.2977739 2.27152397 -1.60030478e-23)
(23.478409 2.33434239 6.2872539e-25)
(23.5274221 2.3590798 -1.24483406e-24)
(23.5621512 2.36178051 6.60851933e-24)
(23.5707389 2.34641851 -1.13956697e-31)
(23.5755149 2.30880919 -1.31863255e-23)
(23.5777503 2.30422059 -9.93217265e-25)
(23.5706435 2.29961036 8.87199327e-24)
(23.5689645 2.28559704 1.10585455e-23)
(23.5744534 2.25955897 0)
(23.5797553 2.24645472 1.10225259e-24)
(23.6772939 2.13669897 0)
(23.7253975 2.11482458 1.42451874e-23)
(23.7424944 2.13597687 2.89797844e-23)
(23.7332358 2.13858501 1.34619805e-23)
(23.8920084 2.02750016 1.25832773e-23)
(23.9334942 1.94625249 2.74394209e-23)
(-0.0320302003 0.0170886224 2.14242598e-27)
(-0.0979309978 0.051881999 6.95008379e-27)
(-0.166222771 0.0875243608 2.63386689e-28)
(-0.235983721 0.123536921 -6.59638584e-27)
(-0.306169599 0.159420146 -6.09020708e-27)
(-0.375775956 0.194705004 -5.1760658e-27)
(-0.443897016 0.228989621 6.60226682e-28)
(-0.509745858 0.261953489 4.37653777e-27)
(-0.572651398 0.293355524 3.45441561e-27)
(-0.632046959 0.323013361 2.69632716e-27)
(-0.687405084 0.350806019 0)
(-0.738271646 0.376655931 1.82498048e-27)
(-0.784219512 0.400546178 -9.76621184e-28)
(-0.824847795 0.422435794 0)
(-0.859687565 0.442336916 0)
(-0.888227632 0.46028427 0)
(-0.90992597 0.476187411 0)
(-0.924200298 0.490179808 1.38738361e-27)
(-0.930417989 0.502263723 0)
(-0.927850568 0.512484359 -2.1441742e-26)
(-0.915691645 0.520875739 -2.4557083e-26)
(-0.89302811 0.527496434 6.71605672e-26)
(-0.858887091 0.532411735 7.12755368e-26)
(-0.812166206 0.535718611 -8.35128028e-26)
(-0.751640193 0.537529064 -8.24331872e-26)
(-0.67593925 0.537970591 -9.52385693e-26)
(-0.583503535 0.537183393 -1.06825623e-25)
(-0.472658246 0.535316104 -8.87912921e-26)
(-0.34177006 0.532388892 -2.28240725e-25)
(-0.188713272 0.52871578 -1.59208183e-25)
(-0.0114531802 0.525636917 0)
(0.187304016 0.523457977 1.5999746e-26)
(0.421481495 0.520883521 1.7552494e-26)
(0.688994787 0.518281987 0)
(0.993051546 0.517270342 -2.06193352e-26)
(1.33764364 0.518411301 0)
(1.72622501 0.521997807 0)
(2.16267424 0.528682563 2.02638187e-25)
(2.65104779 0.539162235 2.89143614e-26)
(3.19523259 0.554187644 -3.06802969e-25)
(3.79887066 0.574601858 3.33367022e-25)
(4.4650896 0.601340361 4.46185292e-25)
(5.1966342 0.635280976 -4.21459127e-26)
(5.99544687 0.677258799 0)
(6.86233302 0.728070533 9.45310092e-25)
(7.79663623 0.788429125 9.31386645e-25)
(8.79588825 0.858892621 0)
(9.85546903 0.939802579 0)
(10.9682099 1.0312285 -1.80191869e-24)
(12.1239223 1.13282132 -2.20213773e-24)
(13.3095988 1.24380171 2.85461268e-24)
(14.5063791 1.36397317 3.36533737e-24)
(15.6974866 1.49162416 -3.21249516e-24)
(16.8660716 1.62386931 5.97270819e-32)
(17.9950902 1.75875546 3.98937606e-24)
(19.0649642 1.89264239 2.08279278e-26)
(20.0595359 2.02382857 0)
(20.9573126 2.14680184 5.15209737e-25)
(21.7496542 2.25647416 -4.32373589e-24)
(22.4189902 2.34510329 5.95462407e-25)
(22.9923569 2.40512492 6.7637505e-24)
(23.4023731 2.45724951 0)
(23.4918604 2.47957808 6.85704675e-25)
(23.50256 2.53081558 0)
(23.5015379 2.54585155 4.60879611e-25)
(23.5147372 2.50501087 -6.61781219e-25)
(23.5159441 2.50836849 -1.08233932e-24)
(23.5104554 2.50662969 -9.80342246e-24)
(23.536656 2.47130015 -1.1260829e-23)
(23.5804998 2.39746817 -1.36972719e-24)
(23.582332 2.39881779 -8.89352164e-24)
(23.5866272 2.3757489 -1.48423258e-23)
(23.5902672 2.37585312 -1.00334724e-23)
(23.5926629 2.37285227 -1.35853244e-23)
(23.678965 2.30945605 -1.43886414e-23)
(23.8054375 2.19878035 -1.53537816e-23)
(23.8388419 2.22726227 1.48055622e-23)
(23.8460634 2.22187584 1.35644661e-23)
(23.8840922 2.252311 -2.83569554e-24)
(23.9819556 2.09124803 2.83852585e-24)
(-0.0349543824 0.0169206389 1.96607466e-27)
(-0.106320992 0.0511264393 -6.02823808e-27)
(-0.179629842 0.085900075 2.09316566e-28)
(-0.253768111 0.120743376 2.18137525e-34)
(-0.327521484 0.155157338 -3.84664981e-27)
(-0.399737813 0.188685166 2.53300322e-28)
(-0.469384226 0.220944555 -1.1592708e-27)
(-0.535562437 0.251637679 -4.39095946e-34)
(-0.597499157 0.280547591 -6.35088438e-27)
(-0.654517472 0.307541082 -5.71592593e-27)
(-0.7060249 0.332514666 -7.15720735e-28)
(-0.751441828 0.355430205 -1.04700616e-26)
(-0.790209224 0.376248759 -1.45445515e-26)
(-0.821751088 0.395017466 -1.675472e-26)
(-0.845472208 0.411748902 -2.04947434e-26)
(-0.860716227 0.426489478 2.45177737e-26)
(-0.866760262 0.439292564 2.88721842e-26)
(-0.862801013 0.450227679 1.23703565e-27)
(-0.847964979 0.45935692 0)
(-0.821234028 0.466788575 -4.44280734e-26)
(-0.781550139 0.472622226 -4.82958485e-26)
(-0.727701649 0.47699043 3.35804124e-27)
(-0.658343477 0.480037599 5.93294412e-26)
(-0.571959923 0.481925318 6.04365217e-26)
(-0.466913465 0.482829761 8.74662846e-27)
(-0.341567323 0.482833471 0)
(-0.193902029 0.4822543 -5.05250916e-27)
(-0.0218780094 0.482216792 1.21907032e-28)
(0.172511117 0.482979973 -1.59244431e-25)
(0.401214463 0.483744521 -1.78176736e-25)
(0.662767761 0.484856466 2.28732113e-25)
(0.96020328 0.487724977 2.72346129e-25)
(1.29714606 0.492936478 3.41887677e-26)
(1.67685605 0.500860243 -2.91794822e-25)
(2.10293984 0.512169377 1.4491919e-32)
(2.57915322 0.527591042 3.31684447e-25)
(3.10912243 0.547903329 -3.4811507e-25)
(3.69626707 0.573956395 -4.25347217e-25)
(4.34358636 0.606672392 6.00971557e-26)
(5.0536803 0.646945788 -3.28555673e-26)
(5.82848888 0.695621834 -3.72239061e-26)
(6.6689574 0.753502503 -8.06612981e-25)
(7.5747491 0.821305944 -1.98536952e-24)
(8.54393378 0.899600188 -1.16934747e-24)
(9.57268327 0.988738827 -1.2951606e-24)
(10.6549792 1.08879763 -1.69912157e-24)
(11.7823211 1.19949829 0)
(12.9435113 1.32015577 2.58363355e-24)
(14.1240423 1.44968657 3.05348583e-24)
(15.3054387 1.5867562 3.41910692e-24)
(16.4683357 1.72926032 7.14362412e-24)
(17.5953742 1.87354405 7.49155053e-24)
(18.6691898 2.01636615 8.05201453e-24)
(19.6717762 2.15370088 8.60581818e-24)
(20.5864634 2.28265773 4.58293663e-24)
(21.3944449 2.39809089 -6.26560177e-25)
(22.0879728 2.49849097 0)
(22.6534881 2.58069073 -4.82108136e-24)
(23.0793262 2.63246642 -5.11441114e-24)
(23.407937 2.67688673 0)
(23.5044413 2.69300253 -5.93186452e-24)
(23.5014456 2.70505092 -4.7178999e-24)
(23.4785749 2.72226559 0)
(23.4857846 2.66621109 -6.34538127e-25)
(23.4848727 2.66570545 0)
(23.5038529 2.62548117 -1.28436512e-23)
(23.5100241 2.6127328 -1.22383071e-24)
(23.5273584 2.55874573 1.47778341e-23)
(23.5240429 2.55275901 -1.05809208e-24)
(23.5494173 2.52630209 -9.82143566e-25)
(23.6048828 2.47096009 -1.34594531e-23)
(23.6338477 2.45552337 -1.62076002e-23)
(23.6439307 2.46776875 -1.00584529e-24)
(23.6875843 2.47128702 -1.2976911e-24)
(23.7353207 2.48525586 -5.90853827e-26)
(23.8531225 2.41136971 -1.4581104e-24)
(24.0011566 2.38505828 1.69684533e-23)
(24.0066633 2.38830337 2.54896323e-23)
(23.9909352 2.4248385 1.05871769e-23)
(24.0368293 2.35796674 -2.69654057e-24)
(-0.0376658737 0.0164452654 0)
(-0.113787199 0.0494317149 1.09776153e-28)
(-0.19108049 0.0826980643 -1.19389246e-28)
(-0.26822147 0.115742511 1.74151355e-27)
(-0.343813362 0.14807919 -1.38839321e-28)
(-0.416544135 0.179281477 -1.50339181e-28)
(-0.485246255 0.208996032 -4.8815426e-27)
(-0.548886777 0.236963932 0)
(-0.60655864 0.263003584 -3.92953735e-28)
(-0.657453473 0.2869898 -1.34593014e-26)
(-0.700828785 0.308889903 -1.73741798e-26)
(-0.735975579 0.328685444 2.08930749e-26)
(-0.762177336 0.346402539 -5.52726933e-28)
(-0.778689631 0.362093989 -6.04457933e-26)
(-0.784718368 0.375834518 -7.02094132e-26)
(-0.779391284 0.387725714 -4.11768758e-26)
(-0.761771594 0.397853753 8.09152485e-28)
(-0.73074127 0.406367662 -5.18791336e-26)
(-0.685174053 0.4133965 -5.93553345e-26)
(-0.623762096 0.419111373 -1.11951645e-27)
(-0.545049588 0.423694614 1.19139013e-27)
(-0.447456668 0.427349394 5.40142717e-27)
(-0.329366155 0.43021503 -8.52863849e-26)
(-0.188858243 0.43260869 -2.07616157e-25)
(-0.0238875908 0.435468006 -1.09825835e-25)
(0.164178746 0.439031703 3.85979296e-27)
(0.385460595 0.442912516 -1.18382504e-25)
(0.639021067 0.447460321 -4.82078023e-27)
(0.927744082 0.453898899 5.31180411e-27)
(1.25494089 0.462821736 -1.55935849e-25)
(1.62369942 0.474657213 0)
(2.03738211 0.490089685 -3.44948976e-25)
(2.49946682 0.50986251 1.59208402e-26)
(3.0133351 0.534767293 4.07559356e-25)
(3.58220311 0.565653383 4.55474634e-25)
(4.20895035 0.603427921 5.12389637e-25)