/*--------------------------------*- C++ -*----------------------------------*\
  =========                 |
  \\      /  F ield         | OpenFOAM: The Open Source CFD Toolbox
   \\    /   O peration     | Website:  https://openfoam.org
    \\  /    A nd           | Version:  8
     \\/     M anipulation  |
\*---------------------------------------------------------------------------*/
FoamFile
{
    version     2.0;
    format      ascii;
    class       volScalarField;
    location    "0.078";
    object      p;
}
// * * * * * * * * * * * * * * * * * * * * * * * * * * * * * * * * * * * * * //

dimensions      [1 -1 -2 0 0 0 0];

internalField   nonuniform List<scalar> 
42400
(
101609.445
101609.432
101609.416
101609.401
101609.385
101609.369
101609.352
101609.335
101609.317
101609.299
101609.281
101609.262
101609.242
101609.222
101609.201
101609.18
101609.158
101609.135
101609.111
101609.086
101609.059
101609.031
101609.002
101608.971
101608.939
101608.904
101608.867
101608.828
101608.787
101608.742
101608.695
101608.644
101608.591
101608.533
101608.472
101608.407
101608.337
101608.264
101608.195
101608.131
101608.065
101607.977
101607.859
101607.734
101607.619
101607.513
101607.404
101607.29
101607.173
101607.054
101606.93
101606.799
101606.677
101606.569
101606.466
101606.349
101606.223
101606.111
101606.013
101605.931
101605.861
101605.797
101605.746
101605.716
101605.708
101605.736
101605.823
101605.938
101606.046
101606.488
101607.155
101607.136
101608.098
101610.942
101611.402
101611.056
101614.008
101614.284
101617.159
101626.764
101609.753
101609.742
101609.73
101609.717
101609.704
101609.69
101609.676
101609.661
101609.646
101609.63
101609.613
101609.596
101609.578
101609.56
101609.541
101609.521
101609.501
101609.48
101609.457
101609.434
101609.409
101609.383
101609.356
101609.327
101609.296
101609.264
101609.229
101609.193
101609.154
101609.112
101609.068
101609.021
101608.971
101608.917
101608.859
101608.804
101608.756
101608.706
101608.636
101608.542
101608.441
101608.348
101608.265
101608.179
101608.089
101607.997
101607.9
101607.799
101607.692
101607.599
101607.525
101607.446
101607.324
101607.202
101607.116
101607.048
101606.982
101606.923
101606.874
101606.84
101606.828
101606.849
101606.913
101607.021
101607.163
101607.334
101607.589
101607.954
101608.271
101608.854
101610.094
101610.847
101611.679
101613.784
101615.102
101615.531
101620.796
101625.65
101628.588
101631.778
101610.141
101610.133
101610.123
101610.113
101610.102
101610.091
101610.079
101610.067
101610.054
101610.041
101610.027
101610.013
101609.998
101609.983
101609.967
101609.95
101609.933
101609.915
101609.897
101609.877
101609.856
101609.835
101609.812
101609.788
101609.762
101609.735
101609.706
101609.675
101609.643
101609.608
101609.57
101609.534
101609.498
101609.463
101609.427
101609.377
101609.311
101609.24
101609.174
101609.115
101609.053
101608.988
101608.92
101608.847
101608.771
101608.698
101608.638
101608.588
101608.514
101608.416
101608.339
101608.281
101608.226
101608.168
101608.115
101608.073
101608.045
101608.039
101608.063
101608.117
101608.207
101608.344
101608.544
101608.832
101609.204
101609.655
101610.175
101610.871
101611.561
101612.349
101613.586
101614.401
101615.495
101619.564
101624.423
101627.613
101628.207
101630.755
101635.507
101638.382
101610.637
101610.63
101610.622
101610.614
101610.605
101610.596
101610.587
101610.577
101610.567
101610.556
101610.545
101610.534
101610.522
101610.511
101610.499
101610.486
101610.474
101610.461
101610.447
101610.433
101610.419
101610.404
101610.388
101610.371
101610.354
101610.336
101610.317
101610.296
101610.276
101610.255
101610.235
101610.211
101610.18
101610.143
101610.102
101610.065
101610.031
101609.995
101609.956
101609.915
101609.87
101609.819
101609.773
101609.739
101609.716
101609.659
101609.581
101609.534
101609.502
101609.464
101609.426
101609.391
101609.364
101609.351
101609.357
101609.383
101609.43
101609.501
101609.61
101609.769
101609.992
101610.299
101610.72
101611.289
101611.975
101612.798
101613.652
101614.736
101615.734
101616.806
101619.45
101623.989
101627.141
101627.421
101628.196
101631.329
101634.305
101637.154
101639.694
101642.472
101611.227
101611.221
101611.214
101611.207
101611.199
101611.192
101611.184
101611.176
101611.168
101611.16
101611.152
101611.145
101611.137
101611.13
101611.122
101611.115
101611.108
101611.102
101611.095
101611.089
101611.082
101611.076
101611.069
101611.062
101611.054
101611.047
101611.04
101611.033
101611.024
101611.014
101611.001
101610.987
101610.974
101610.963
101610.951
101610.936
101610.92
101610.902
101610.876
101610.86
101610.864
101610.858
101610.816
101610.775
101610.756
101610.747
101610.728
101610.71
101610.696
101610.69
101610.696
101610.714
101610.746
101610.796
101610.869
101610.974
101611.121
101611.319
101611.579
101611.911
101612.338
101612.86
101613.53
101614.384
101615.426
101616.593
101617.552
101618.964
101622.514
101625.948
101627.195
101627.552
101628.987
101631.399
101633.665
101636.337
101638.96
101641.16
101644.101
101646.821
101611.894
101611.887
101611.88
101611.874
101611.867
101611.86
101611.854
101611.848
101611.842
101611.837
101611.832
101611.828
101611.825
101611.822
101611.82
101611.818
101611.818
101611.818
101611.819
101611.82
101611.82
101611.822
101611.825
101611.83
101611.837
101611.843
101611.85
101611.856
101611.864
101611.871
101611.879
101611.885
101611.891
101611.897
101611.9
101611.899
101611.906
101611.932
101611.944
101611.929
101611.922
101611.931
101611.941
101611.946
101611.951
101611.962
101611.977
101612
101612.031
101612.074
101612.134
101612.215
101612.324
101612.465
101612.648
101612.882
101613.184
101613.566
101614.044
101614.592
101615.242
101615.949
101616.785
101617.657
101618.767
101621.041
101624.509
101626.817
101627.295
101628.152
101630.157
101632.356
101634.709
101636.327
101638.166
101640.335
101642.295
101644.953
101647.489
101649.776
101612.584
101612.577
101612.57
101612.563
101612.557
101612.551
101612.547
101612.542
101612.539
101612.537
101612.536
101612.536
101612.537
101612.539
101612.543
101612.548
101612.554
101612.56
101612.569
101612.581
101612.595
101612.611
101612.628
101612.645
101612.663
101612.683
101612.703
101612.724
101612.746
101612.768
101612.792
101612.814
101612.834
101612.862
101612.907
101612.937
101612.946
101612.966
101612.998
101613.03
101613.058
101613.088
101613.12
101613.156
101613.196
101613.245
101613.304
101613.377
101613.47
101613.585
101613.727
101613.903
101614.12
101614.389
101614.725
101615.146
101615.666
101616.293
101617.059
101617.921
101618.913
101619.886
101621.035
101623.499
101626.296
101627.318
101627.665
101628.961
101631.474
101633.709
101635.213
101636.458
101637.977
101639.807
101641.634
101643.55
101645.886
101648.278
101650.79
101653.231
101613.251
101613.245
101613.237
101613.231
101613.226
101613.222
101613.219
101613.217
101613.217
101613.218
101613.221
101613.226
101613.232
101613.24
101613.25
101613.262
101613.277
101613.295
101613.315
101613.336
101613.359
101613.384
101613.411
101613.44
101613.471
101613.504
101613.539
101613.576
101613.613
101613.649
101613.693
101613.75
101613.794
101613.825
101613.868
101613.92
101613.971
101614.02
101614.07
101614.123
101614.18
101614.241
101614.309
101614.386
101614.475
101614.58
101614.703
101614.85
101615.026
101615.236
101615.488
101615.792
101616.159
101616.606
101617.138
101617.763
101618.474
101619.28
101620.176
101621.09
101622.633
101625.318
101627.596
101628.424
101628.766
101629.634
101631.621
101633.739
101635.038
101636.219
101637.825
101639.392
101641.303
101643.384
101645.456
101647.736
101649.695
101651.451
101654.386
101657.554
101613.825
101613.819
101613.812
101613.808
101613.804
101613.803
101613.803
101613.805
101613.809
101613.814
101613.822
101613.833
101613.846
101613.862
101613.881
101613.902
101613.925
101613.952
101613.981
101614.013
101614.047
101614.085
101614.125
101614.168
101614.214
101614.261
101614.308
101614.363
101614.429
101614.486
101614.534
101614.593
101614.662
101614.728
101614.795
101614.864
101614.936
101615.011
101615.092
101615.178
101615.273
101615.377
101615.495
101615.63
101615.784
101615.964
101616.173
101616.417
101616.701
101617.035
101617.43
101617.902
101618.453
101619.089
101619.813
101620.634
101621.49
101622.498
101624.214
101626.603
101628.073
101628.603
101629.277
101630.72
101632.573
101634.411
101636.07
101637.507
101638.645
101640.129
101641.95
101643.922
101645.689
101647.499
101649.91
101652.657
101655.401
101657.622
101659.116
101660.915
101614.245
101614.241
101614.236
101614.234
101614.234
101614.236
101614.241
101614.248
101614.258
101614.271
101614.287
101614.305
101614.326
101614.35
101614.377
101614.408
101614.442
101614.48
101614.521
101614.565
101614.613
101614.664
101614.718
101614.773
101614.835
101614.909
101614.976
101615.036
101615.108
101615.188
101615.267
101615.348
101615.432
101615.52
101615.611
101615.708
101615.811
101615.921
101616.041
101616.173
101616.319
101616.484
101616.67
101616.884
101617.128
101617.41
101617.735
101618.11
101618.547
101619.061
101619.662
101620.369
101621.168
101622.076
101623.049
101624.152
101625.668
101627.62
101629.107
101629.764
101630.539
101631.849
101633.646
101635.384
101636.857
101638.146
101639.582
101640.948
101642.58
101644.706
101646.664
101648.538
101650.711
101652.865
101654.639
101656.276
101658.566
101660.996
101663.169
101665.38
101614.446
101614.444
101614.444
101614.446
101614.451
101614.459
101614.47
101614.483
101614.5
101614.52
101614.544
101614.571
101614.602
101614.637
101614.676
101614.718
101614.765
101614.816
101614.87
101614.929
101614.989
101615.057
101615.135
101615.209
101615.28
101615.361
101615.45
101615.539
101615.631
101615.727
101615.827
101615.932
101616.041
101616.157
101616.28
101616.412
101616.554
101616.71
101616.882
101617.073
101617.287
101617.528
101617.802
101618.113
101618.467
101618.868
101619.323
101619.843
101620.432
101621.096
101621.806
101622.603
101623.436
101624.543
101626.323
101628.167
101629.528
101630.442
101631.171
101632.185
101633.722
101635.44
101637.268
101638.965
101640.416
101641.727
101643.041
101644.478
101646.428
101648.292
101650.193
101652.205
101654.307
101656.223
101658.028
101659.953
101662.05
101664.375
101666.365
101668.428
101614.362
101614.365
101614.37
101614.378
101614.389
101614.403
101614.422
101614.444
101614.469
101614.499
101614.533
101614.572
101614.615
101614.662
101614.714
101614.77
101614.831
101614.895
101614.966
101615.046
101615.126
101615.204
101615.291
101615.386
101615.483
101615.584
101615.689
101615.798
101615.913
101616.032
101616.158
101616.291
101616.432
101616.583
101616.747
101616.924
101617.119
101617.335
101617.576
101617.846
101618.15
101618.494
101618.883
101619.323
101619.819
101620.379
101621.014
101621.734
101622.548
101623.46
101624.417
101625.44
101627.066
101628.808
101629.648
101630.214
101631.173
101632.655
101634.345
101636.138
101637.957
101639.287
101640.131
101641.231
101642.867
101644.575
101646.262
101648.043
101649.823
101651.62
101653.486
101655.351
101657.228
101659.242
101661.054
101662.893
101664.964
101667.037
101668.846
101670.907
101613.915
101613.924
101613.936
101613.952
101613.972
101613.995
101614.023
101614.055
101614.092
101614.134
101614.181
101614.232
101614.289
101614.35
101614.416
101614.488
101614.57
101614.652
101614.735
101614.827
101614.927
101615.029
101615.136
101615.248
101615.365
101615.487
101615.615
101615.749
101615.889
101616.038
101616.197
101616.366
101616.548
101616.747
101616.963
101617.203
101617.468
101617.765
101618.098
101618.472
101618.894
101619.369
101619.904
101620.504
101621.176
101621.93
101622.774
101623.705
101624.744
101625.873
101627.114
101628.391
101629.316
101630.153
101631.427
101633.066
101634.567
101636.005
101637.263
101638.345
101639.561
101641.166
101642.637
101644.12
101645.848
101647.621
101649.397
101651.245
101653.109
101654.972
101656.872
101658.721
101660.559
101662.307
101664.373
101666.888
101669.264
101671.526
101674.083
101675.495
101613.035
101613.051
101613.073
101613.099
101613.129
101613.163
101613.203
101613.247
101613.297
101613.353
101613.413
101613.479
101613.551
101613.632
101613.715
101613.801
101613.896
101613.997
101614.103
101614.214
101614.331
101614.453
101614.581
101614.715
101614.855
101615.002
101615.157
101615.32
101615.494
101615.679
101615.878
101616.094
101616.329
101616.587
101616.871
101617.186
101617.536
101617.926
101618.362
101618.847
101619.387
101619.986
101620.647
101621.371
101622.163
101623.015
101623.908
101624.848
101625.788
101626.972
101628.508
101630.12
101631.358
101632.639
101634.22
101635.818
101637.035
101638.1
101639.423
101640.823
101642.368
101644.002
101645.679
101647.436
101649.161
101650.948
101652.813
101654.73
101656.717
101658.761
101660.847
101663.032
101665.441
101668.3
101670.51
101672.044
101673.796
101675.501
101677.201
101679.218
101611.646
101611.673
101611.707
101611.744
101611.786
101611.834
101611.887
101611.946
101612.011
101612.082
101612.159
101612.241
101612.33
101612.425
101612.527
101612.634
101612.747
101612.867
101612.992
101613.124
101613.263
101613.408
101613.56
101613.721
101613.89
101614.069
101614.26
101614.465
101614.685
101614.923
101615.183
101615.468
101615.782
101616.129
101616.513
101616.94
101617.415
101617.94
101618.52
101619.158
101619.854
101620.61
101621.423
101622.284
101623.179
101624.207
101625.385
101626.879
101628.757
101630.445
101631.792
101633.128
101634.532
101635.481
101636.148
101637.103
101638.547
101640.233
101641.919
101643.593
101645.267
101646.902
101648.589
101650.323
101652.072
101653.901
101655.899
101657.942
101659.994
101662.103
101664.278
101666.442
101668.603
101670.68
101672.688
101674.578
101676.799
101679.093
101681.348
101684.101
101609.691
101609.73
101609.777
101609.829
101609.885
101609.948
101610.017
101610.091
101610.172
101610.259
101610.353
101610.453
101610.559
101610.672
101610.792
101610.919
101611.052
101611.193
101611.34
101611.496
101611.66
101611.833
101612.017
101612.212
101612.421
101612.646
101612.889
101613.153
101613.442
101613.761
101614.112
101614.502
101614.935
101615.416
101615.952
101616.547
101617.207
101617.934
101618.734
101619.61
101620.564
101621.598
101622.71
101623.908
101625.127
101626.467
101627.894
101629.12
101630.343
101631.649
101632.681
101633.542
101634.72
101636.308
101637.788
101639.186
101640.809
101642.501
101644.189
101645.908
101647.654
101649.475
101651.282
101653.022
101654.655
101656.582
101659.006
101661.246
101663.397
101665.564
101667.664
101670.13
101672.285
101673.723
101675.376
101677.482
101679.661
101681.785
101682.947
101684.251
101607.132
101607.184
101607.248
101607.315
101607.387
101607.465
101607.55
101607.641
101607.738
101607.842
101607.953
101608.07
101608.194
101608.325
101608.464
101608.61
101608.764
101608.926
101609.097
101609.279
101609.472
101609.679
101609.9
101610.138
101610.397
101610.678
101610.987
101611.327
101611.703
101612.12
101612.583
101613.097
101613.668
101614.3
101614.997
101615.764
101616.601
101617.511
101618.492
101619.539
101620.652
101621.824
101623.036
101624.308
101625.708
101627.169
101628.676
101629.979
101630.98
101631.957
101633.096
101634.35
101635.741
101637.291
101639.092
101641.181
101643.122
101645.095
101647.043
101649.075
101651.188
101653.326
101655.559
101657.886
101660.432
101662.733
101664.217
101665.458
101666.958
101668.664
101670.115
101671.339
101673.426
101676.217
101678.659
101680.966
101683.311
101685.229
101686.502
101687.034
101603.968
101604.036
101604.116
101604.2
101604.288
101604.382
101604.483
101604.59
101604.703
101604.822
101604.949
101605.082
101605.222
101605.37
101605.526
101605.691
101605.865
101606.049
101606.246
101606.456
101606.681
101606.924
101607.189
101607.477
101607.793
101608.141
101608.527
101608.953
101609.427
101609.952
101610.534
101611.178
101611.889
101612.669
101613.522
101614.451
101615.458
101616.541
101617.703
101618.933
101620.246
101621.63
101623.048
101624.438
101625.901
101627.357
101628.803
101630.407
101632.097
101633.789
101635.542
101637.36
101639.336
101641.283
101643.468
101645.359
101646.705
101648.085
101649.692
101651.653
101653.858
101655.79
101657.566
101659.324
101661.033
101663.161
101665.476
101667.512
101669.334
101671.153
101673.464
101676.108
101678.461
101680.509
101682.556
101684.412
101686.797
101688.326
101689.244
101690.431
101600.27
101600.354
101600.453
101600.554
101600.66
101600.771
101600.888
101601.011
101601.142
101601.278
101601.423
101601.574
101601.735
101601.904
101602.084
101602.275
101602.48
101602.699
101602.936
101603.193
101603.473
101603.78
101604.118
101604.49
101604.903
101605.36
101605.867
101606.429
101607.049
101607.732
101608.48
101609.295
101610.178
101611.126
101612.138
101613.208
101614.331
101615.492
101616.67
101617.968
101619.668
101621.771
101623.892
101625.734
101627.381
101629.046
101630.733
101632.462
101634.204
101635.921
101637.683
101639.515
101641.345
101643.234
101644.73
101646.297
101648.334
101650.171
101651.86
101653.651
101655.564
101657.441
101659.352
101661.187
101663.619
101666.409
101668.492
101670.903
101673.573
101675.518
101677.501
101679.79
101681.732
101683.78
101685.762
101687.514
101689.405
101691.226
101692.819
101695.3
101596.121
101596.222
101596.339
101596.457
101596.58
101596.708
101596.843
101596.984
101597.132
101597.289
101597.454
101597.63
101597.816
101598.016
101598.23
101598.461
101598.713
101598.987
101599.288
101599.62
101599.988
101600.397
101600.852
101601.36
101601.926
101602.556
101603.257
101604.033
101604.891
101605.833
101606.864
101607.985
101609.196
101610.498
101611.889
101613.367
101614.923
101616.538
101618.182
101619.773
101621.399
101623.009
101624.256
101625.554
101627.294
101629.212
101631.142
101633.025
101634.901
101636.759
101638.633
101640.661
101642.551
101644.362
101646.536
101648.501
101650.299
101652.327
101654.326
101656.282
101658.464
101660.669
101663.307
101665.561
101667.428
101669.963
101672.864
101674.615
101675.965
101678.29
101681.406
101683.01
101684.163
101686.198
101688.264
101690.249
101692.314
101694.3
101696.198
101697.817
101599.65
101599.655
101599.659
101599.661
101599.661
101599.66
101599.657
101599.652
101599.645
101599.637
101599.626
101599.614
101599.599
101599.583
101599.564
101599.542
101599.519
101599.493
101599.464
101599.432
101599.398
101599.36
101599.32
101599.276
101599.228
101599.177
101599.122
101599.063
101599
101598.933
101598.86
101598.783
101598.701
101598.613
101598.52
101598.421
101598.315
101598.203
101598.084
101597.958
101597.824
101597.683
101597.533
101597.372
101597.2
101597.023
101596.835
101596.636
101596.426
101596.203
101595.968
101595.718
101595.451
101595.167
101594.864
101594.539
101594.19
101593.815
101593.409
101592.968
101592.486
101591.959
101591.381
101590.745
101590.05
101589.288
101588.446
101587.509
101586.456
101585.317
101584.125
101583
101581.751
101580.228
101578.261
101575.681
101572.211
101569.573
101567.43
101564.968
101599.6
101599.604
101599.607
101599.609
101599.609
101599.607
101599.604
101599.599
101599.593
101599.585
101599.575
101599.564
101599.55
101599.535
101599.517
101599.498
101599.476
101599.451
101599.425
101599.396
101599.364
101599.329
101599.292
101599.251
101599.208
101599.161
101599.11
101599.056
101598.998
101598.936
101598.869
101598.798
101598.722
101598.642
101598.556
101598.465
101598.368
101598.265
101598.155
101598.039
101597.917
101597.786
101597.646
101597.497
101597.341
101597.177
101597.003
101596.818
101596.623
101596.415
101596.196
101595.963
101595.715
101595.449
101595.166
101594.863
101594.537
101594.187
101593.809
101593.399
101592.953
101592.468
101591.939
101591.36
101590.725
101590.021
101589.233
101588.353
101587.39
101586.371
101585.316
101584.206
101582.79
101581.017
101578.794
101577.172
101575.637
101573.696
101571.619
101569.097
101599.78
101599.784
101599.786
101599.788
101599.788
101599.786
101599.784
101599.78
101599.774
101599.767
101599.759
101599.748
101599.737
101599.723
101599.708
101599.691
101599.672
101599.651
101599.628
101599.603
101599.575
101599.545
101599.513
101599.478
101599.44
101599.399
101599.356
101599.309
101599.259
101599.205
101599.148
101599.086
101599.021
101598.951
101598.877
101598.799
101598.715
101598.626
101598.532
101598.432
101598.325
101598.213
101598.092
101597.962
101597.828
101597.686
101597.535
101597.375
101597.206
101597.026
101596.835
101596.632
101596.416
101596.185
101595.939
101595.674
101595.389
101595.082
101594.75
101594.389
101593.996
101593.566
101593.093
101592.571
101591.991
101591.344
101590.626
101589.846
101589.014
101588.131
101587.163
101586.003
101584.617
101583.377
101582.16
101580.672
101579.159
101577.813
101576.877
101575.229
101600.172
101600.174
101600.177
101600.178
101600.178
101600.177
101600.175
101600.172
101600.167
101600.162
101600.155
101600.147
101600.138
101600.127
101600.115
101600.102
101600.087
101600.07
101600.052
101600.032
101600.01
101599.986
101599.96
101599.932
101599.902
101599.87
101599.835
101599.798
101599.758
101599.715
101599.669
101599.62
101599.568
101599.513
101599.454
101599.392
101599.325
101599.255
101599.18
101599.1
101599.017
101598.925
101598.828
101598.727
101598.62
101598.507
101598.387
101598.259
101598.124
101597.981
101597.828
101597.665
101597.491
101597.306
101597.107
101596.894
101596.664
101596.415
101596.145
101595.851
101595.53
101595.179
101594.793
101594.368
101593.9
101593.388
101592.833
101592.241
101591.606
101590.903
101590.091
101589.165
101588.203
101587.194
101586.103
101584.989
101584.406
101583.895
101583.118
101581.627
101600.732
101600.734
101600.736
101600.737
101600.738
101600.737
101600.736
101600.734
101600.731
101600.727
101600.723
101600.717
101600.711
101600.703
101600.695
101600.686
101600.675
101600.664
101600.651
101600.637
101600.621
101600.605
101600.586
101600.567
101600.546
101600.523
101600.498
101600.472
101600.443
101600.413
101600.381
101600.347
101600.31
101600.271
101600.229
101600.185
101600.138
101600.088
101600.037
101599.982
101599.923
101599.86
101599.793
101599.723
101599.649
101599.57
101599.487
101599.399
101599.306
101599.207
101599.102
101598.991
101598.873
101598.747
101598.613
101598.469
101598.315
101598.148
101597.968
101597.772
101597.559
101597.326
101597.07
101596.788
101596.477
101596.133
101595.754
101595.334
101594.858
101594.315
101593.717
101593.107
101592.532
101592.023
101591.597
101591.18
101590.653
101589.973
101589.119
101588.06
101601.428
101601.43
101601.431
101601.432
101601.433
101601.433
101601.432
101601.431
101601.43
101601.428
101601.426
101601.423
101601.42
101601.416
101601.412
101601.407
101601.402
101601.395
101601.388
101601.381
101601.372
101601.363
101601.353
101601.342
101601.33
101601.318
101601.304
101601.289
101601.274
101601.257
101601.239
101601.22
101601.199
101601.178
101601.155
101601.133
101601.108
101601.081
101601.052
101601.02
101600.989
101600.955
101600.92
101600.883
101600.844
101600.803
101600.76
101600.715
101600.668
101600.618
101600.565
101600.51
101600.452
101600.391
101600.327
101600.259
101600.187
101600.11
101600.026
101599.936
101599.837
101599.728
101599.606
101599.471
101599.319
101599.147
101598.952
101598.729
101598.479
101598.207
101597.936
101597.694
101597.497
101597.322
101597.115
101596.863
101596.394
101595.998
101595.54
101594.722
101602.209
101602.21
101602.212
101602.212
101602.213
101602.214
101602.214
101602.214
101602.215
101602.215
101602.215
101602.215
101602.215
101602.214
101602.214
101602.213
101602.212
101602.211
101602.21
101602.209
101602.207
101602.205
101602.203
101602.201
101602.198
101602.195
101602.192
101602.189
101602.185
101602.182
101602.179
101602.176
101602.172
101602.168
101602.162
101602.155
101602.149
101602.144
101602.139
101602.134
101602.128
101602.123
101602.117
101602.112
101602.107
101602.102
101602.098
101602.094
101602.091
101602.089
101602.088
101602.087
101602.088
101602.091
101602.096
101602.102
101602.112
101602.125
101602.141
101602.161
101602.184
101602.211
101602.24
101602.273
101602.306
101602.341
101602.374
101602.404
101602.429
101602.451
101602.473
101602.494
101602.504
101602.485
101602.427
101602.325
101602.169
101602.018
101601.918
101601.388
101603.04
101603.04
101603.041
101603.041
101603.042
101603.043
101603.044
101603.045
101603.047
101603.048
101603.05
101603.052
101603.055
101603.057
101603.06
101603.063
101603.067
101603.07
101603.074
101603.078
101603.082
101603.087
101603.091
101603.097
101603.103
101603.11
101603.117
101603.124
101603.132
101603.139
101603.147
101603.155
101603.164
101603.174
101603.185
101603.197
101603.21
101603.223
101603.238
101603.254
101603.271
101603.291
101603.311
101603.334
101603.359
101603.386
101603.416
101603.449
101603.485
101603.525
101603.569
101603.617
101603.67
101603.729
101603.793
101603.865
101603.944
101604.031
101604.129
101604.238
101604.359
101604.491
101604.636
101604.798
101604.98
101605.181
101605.399
101605.633
101605.885
101606.14
101606.379
101606.593
101606.771
101606.905
101606.985
101606.99
101606.9
101606.654
101606.491
101606.416
101603.873
101603.872
101603.872
101603.872
101603.873
101603.874
101603.875
101603.877
101603.88
101603.883
101603.886
101603.89
101603.894
101603.899
101603.904
101603.911
101603.918
101603.925
101603.933
101603.941
101603.95
101603.96
101603.97
101603.981
101603.992
101604.004
101604.017
101604.032
101604.047
101604.064
101604.081
101604.1
101604.12
101604.141
101604.164
101604.189
101604.215
101604.243
101604.273
101604.305
101604.34
101604.377
101604.418
101604.461
101604.508
101604.559
101604.614
101604.674
101604.739
101604.81
101604.887
101604.97
101605.061
101605.161
101605.27
101605.389
101605.519
101605.663
101605.824
101606.005
101606.209
101606.439
101606.693
101606.971
101607.27
101607.592
101607.934
101608.287
101608.656
101609.033
101609.413
101609.788
101610.151
101610.456
101610.658
101610.727
101610.702
101610.688
101610.621
101610.075
101604.684
101604.683
101604.682
101604.681
101604.681
101604.682
101604.683
101604.684
101604.687
101604.69
101604.693
101604.698
101604.703
101604.709
101604.716
101604.723
101604.731
101604.739
101604.749
101604.76
101604.772
101604.785
101604.798
101604.813
101604.829
101604.846
101604.863
101604.883
101604.903
101604.925
101604.948
101604.973
101604.999
101605.027
101605.057
101605.089
101605.123
101605.159
101605.198
101605.239
101605.284
101605.331
101605.382
101605.437
101605.496
101605.559
101605.627
101605.701
101605.78
101605.867
101605.96
101606.061
101606.172
101606.296
101606.432
101606.584
101606.752
101606.933
101607.123
101607.33
101607.554
101607.804
101608.097
101608.447
101608.848
101609.288
101609.774
101610.3
101610.806
101611.275
101611.722
101612.136
101612.499
101612.776
101612.919
101612.911
101612.857
101612.863
101612.841
101612.38
101605.439
101605.436
101605.433
101605.432
101605.431
101605.43
101605.43
101605.431
101605.433
101605.435
101605.439
101605.443
101605.448
101605.454
101605.46
101605.468
101605.476
101605.486
101605.496
101605.507
101605.52
101605.533
101605.547
101605.563
101605.58
101605.598
101605.617
101605.637
101605.659
101605.682
101605.707
101605.733
101605.761
101605.791
101605.822
101605.855
101605.891
101605.929
101605.969
101606.012
101606.058
101606.106
101606.158
101606.214
101606.273
101606.337
101606.407
101606.485
101606.57
101606.663
101606.765
101606.872
101606.982
101607.099
101607.224
101607.356
101607.498
101607.664
101607.859
101608.076
101608.311
101608.564
101608.842
101609.131
101609.443
101609.798
101610.19
101610.66
101611.2
101611.755
101612.302
101612.817
101613.153
101613.279
101613.278
101613.214
101613.18
101613.229
101613.294
101612.988
101606.127
101606.123
101606.119
101606.115
101606.113
101606.111
101606.109
101606.109
101606.109
101606.11
101606.112
101606.114
101606.118
101606.122
101606.128
101606.134
101606.141
101606.149
101606.158
101606.168
101606.179
101606.191
101606.204
101606.218
101606.233
101606.249
101606.266
101606.285
101606.304
101606.325
101606.348
101606.371
101606.396
101606.422
101606.45
101606.479
101606.51
101606.543
101606.578
101606.614
101606.653
101606.696
101606.743
101606.794
101606.849
101606.907
101606.965
101607.024
101607.086
101607.151
101607.22
101607.302
101607.4
101607.509
101607.623
101607.745
101607.872
101608.007
101608.144
101608.288
101608.453
101608.639
101608.847
101609.078
101609.33
101609.605
101609.905
101610.226
101610.574
101610.927
101611.261
101611.608
101611.91
101612.005
101611.957
101611.907
101611.939
101612.102
101612.342
101612.267
101606.74
101606.734
101606.727
101606.722
101606.717
101606.712
101606.709
101606.706
101606.704
101606.702
101606.702
101606.702
101606.703
101606.705
101606.707
101606.711
101606.715
101606.72
101606.726
101606.733
101606.74
101606.749
101606.758
101606.768
101606.779
101606.791
101606.803
101606.816
101606.831
101606.845
101606.861
101606.878
101606.895
101606.913
101606.932
101606.952
101606.974
101606.998
101607.024
101607.052
101607.079
101607.104
101607.129
101607.154
101607.18
101607.21
101607.249
101607.296
101607.345
101607.395
101607.447
101607.501
101607.552
101607.604
101607.664
101607.731
101607.806
101607.888
101607.977
101608.069
101608.166
101608.269
101608.38
101608.499
101608.629
101608.77
101608.922
101609.082
101609.247
101609.405
101609.533
101609.633
101609.687
101609.68
101609.628
101609.571
101609.689
101610.012
101610.475
101610.694
101607.274
101607.265
101607.256
101607.248
101607.24
101607.233
101607.226
101607.22
101607.215
101607.21
101607.207
101607.203
101607.201
101607.199
101607.197
101607.197
101607.197
101607.198
101607.199
101607.201
101607.204
101607.207
101607.211
101607.215
101607.22
101607.225
101607.23
101607.237
101607.244
101607.251
101607.259
101607.268
101607.277
101607.286
101607.296
101607.303
101607.309
101607.314
101607.318
101607.32
101607.325
101607.335
101607.347
101607.358
101607.369
101607.379
101607.386
101607.39
101607.396
101607.406
101607.418