/*--------------------------------*- C++ -*----------------------------------*\
  =========                 |
  \\      /  F ield         | OpenFOAM: The Open Source CFD Toolbox
   \\    /   O peration     | Website:  https://openfoam.org
    \\  /    A nd           | Version:  8
     \\/     M anipulation  |
\*---------------------------------------------------------------------------*/
FoamFile
{
    version     2.0;
    format      ascii;
    class       surfaceScalarField;
    location    "0.033";
    object      phi;
}
// * * * * * * * * * * * * * * * * * * * * * * * * * * * * * * * * * * * * * //

dimensions      [1 0 -1 0 0 0 0];

internalField   nonuniform List<scalar> 
84340
(
-6.66236671e-08
3.41961898e-07
-2.75554246e-07
-2.65422896e-07
1.02474126e-06
-8.26291116e-07
-5.99639669e-07
1.73306606e-06
-1.39928037e-06
-1.07275351e-06
2.47295756e-06
-2.00034554e-06
-1.68877211e-06
3.24861686e-06
-2.63316252e-06
-2.45226519e-06
4.06315375e-06
-3.30028284e-06
-3.36835011e-06
4.91905351e-06
-4.00364721e-06
-4.44261517e-06
5.81832417e-06
-4.74479495e-06
-5.68099711e-06
6.76257186e-06
-5.52498537e-06
-7.08962784e-06
7.75306683e-06
-6.34529462e-06
-8.6746661e-06
8.79080633e-06
-7.20669392e-06
-1.04421261e-05
9.87655722e-06
-8.1100953e-06
-1.23977125e-05
1.10108831e-05
-9.05637228e-06
-1.45466665e-05
1.21941625e-05
-1.00463673e-05
-1.68936146e-05
1.34265952e-05
-1.10808956e-05
-1.94424376e-05
1.47082197e-05
-1.21607414e-05
-2.21961292e-05
1.60389154e-05
-1.32866718e-05
-2.51566671e-05
1.74184091e-05
-1.44594301e-05
-2.83248699e-05
1.88462804e-05
-1.56797554e-05
-3.17002469e-05
2.03219552e-05
-1.69483835e-05
-3.5280833e-05
2.18446983e-05
-1.8266054e-05
-3.90630029e-05
2.34135958e-05
-1.96335141e-05
-4.30412546e-05
2.50275221e-05
-2.1051515e-05
-4.72079746e-05
2.66851049e-05
-2.25207969e-05
-5.15531505e-05
2.83846584e-05
-2.40420733e-05
-5.60640512e-05
3.01241115e-05
-2.56159928e-05
-6.07248579e-05
3.1900899e-05
-2.72430778e-05
-6.55162246e-05
3.37118297e-05
-2.89236659e-05
-7.04147477e-05
3.55528908e-05
-3.06578012e-05
-7.53923153e-05
3.74190024e-05
-3.24451143e-05
-8.0415442e-05
3.93038549e-05
-3.42846673e-05
-8.54448902e-05
4.11999419e-05
-3.6174709e-05
-9.04356235e-05
4.30986089e-05
-3.81123819e-05
-9.53359741e-05
4.49889149e-05
-4.00933739e-05
-0.000100084511
4.68553136e-05
-4.21119002e-05
-0.00010460876
4.86800083e-05
-4.41612363e-05
-0.000108829212
5.0447809e-05
-4.62332165e-05
-0.000112659719
5.21367643e-05
-4.83124085e-05
-0.000116016566
5.37335171e-05
-5.03830975e-05
-0.000118801101
5.51948384e-05
-5.24171621e-05
-0.000120849643
5.64500279e-05
-5.44087965e-05
-0.000121910373
5.7399281e-05
-5.63462812e-05
-0.000121710521
5.79841635e-05
-5.81921586e-05
-0.000119974535
5.8126721e-05
-5.98712491e-05
-0.000116397315
5.771532e-05
-6.13015388e-05
-0.000110634889
5.66263948e-05
-6.23983418e-05
-0.000102280561
5.47213654e-05
-6.30856738e-05
-9.08772548e-05
5.18246408e-05
-6.32383913e-05
-7.58519331e-05
4.76859517e-05
-6.2722148e-05
-5.66843952e-05
4.21947763e-05
-6.13736245e-05
-3.26916401e-05
3.49954567e-05
-5.8999926e-05
-3.52692555e-06
2.62124719e-05
-5.53893713e-05
3.19251821e-05
1.47687116e-05
-5.02332894e-05
7.47617748e-05
4.53538914e-07
-4.33025877e-05
0.000126103115
-1.69879353e-05
-3.43659116e-05
0.000187325444
-3.80359645e-05
-2.31993722e-05
0.000259869139
-6.398589e-05
-8.57111061e-06
0.00034518009
-9.50555493e-05
9.7312425e-06
0.00044497353
-0.000131884997
3.20783658e-05
0.000561419878
-0.000175372075
5.89126963e-05
0.000695970692
-0.000226485288
9.19217882e-05
0.000850831306
-0.000286106081
0.000131233274
0.00102823275
-0.000355244886
0.000177832132
0.00123051145
-0.000435041107
0.00023275217
0.00145967316
-0.000526194944
0.000297024891
0.00171771641
-0.000629964698
0.000371915616
0.00200799656
-0.000748732663
0.00045844924
0.00232673417
-0.00087208357
0.000553345077
0.00266720637
-0.00101045316
0.000669982367
0.00306117954
-0.00120262431
0.000808654675
0.00350771373
-0.00133901693
0.000892488161
0.00387538158
-0.0014368846
0.00106922369
0.00425247869
-0.00177946406
0.00140237492
0.00487357377
-0.00208174733
0.00146066066
0.00554208403
-0.00208308693
0.00141458423
0.0059322267
-0.00219730302
0.00180716581
0.00617194655
-0.00254859662
0.00230887855
0.00655870223
-0.00287165046
0.00248489092
0.00719272122
-0.00298589707
0.00235185228
-0.00298588157
0.00249987457
0.00767869976
-5.41611726e-08
3.95904756e-07
-2.15517956e-07
1.18579249e-06
-4.86543534e-07
2.00374271e-06
-8.69966285e-07
2.85599065e-06
-1.36879621e-06
3.74701802e-06
-1.98651991e-06
4.68040966e-06
-2.72701669e-06
5.65904227e-06
-3.59448252e-06
6.68523948e-06
-4.59330719e-06
7.76080048e-06
-5.72792119e-06
8.88703559e-06
-7.00262334e-06
1.006481e-05
-8.42140217e-06
1.12945797e-05
-9.98775573e-06
1.25764176e-05
-1.17045122e-05
1.3910032e-05
-1.35736621e-05
1.52947846e-05
-1.55961762e-05
1.6729694e-05
-1.77718345e-05
1.82134483e-05
-2.00990418e-05
1.9744399e-05
-2.25746273e-05
2.13205496e-05
-2.51936315e-05
2.29395371e-05
-2.79490674e-05
2.45985986e-05
-3.0831646e-05
2.62945177e-05
-3.38294754e-05
2.8023566e-05
-3.69277025e-05
2.97814093e-05
-4.01081008e-05
3.15629887e-05
-4.33486002e-05
3.3362389e-05
-4.66227419e-05
3.51726566e-05
-4.98991338e-05
3.69856662e-05
-5.31408612e-05
3.87918833e-05
-5.6304734e-05
4.05799536e-05
-5.93396798e-05
4.23356861e-05
-6.21874842e-05
4.40444194e-05
-6.47835564e-05
4.56911306e-05
-6.70532819e-05
4.72549093e-05
-6.89193818e-05
4.87175065e-05
-7.03043762e-05
5.00608432e-05
-7.10838496e-05
5.12228716e-05
-7.11044117e-05
5.2152678e-05
-7.01522547e-05
5.27764714e-05
-6.79896299e-05
5.30270756e-05
-6.43660231e-05
5.28209999e-05
-5.90301473e-05
5.2057682e-05
-5.16814204e-05
5.06294454e-05
-4.19568239e-05
4.8395843e-05
-2.94908189e-05
4.52427496e-05
-1.38175683e-05
4.09462768e-05
5.52092876e-06
3.53757271e-05
2.87874397e-05
2.85506716e-05
5.67952469e-05
1.96703713e-05
9.03870326e-05
8.59501001e-06
0.000130464295
-5.08990155e-06
0.000178081384
-2.14130914e-05
0.000234445103
-4.16038118e-05
0.000300829466
-6.59398824e-05
0.000378703964
-9.48716495e-05
0.00046976922
-0.000129110619
0.0005752222
-0.000169448298
0.000696792734
-0.000216635562
0.000836408977
-0.000271510514
0.000996016592
-0.000334988632
0.00117753161
-0.000408008591
0.00138304487
-0.00049162681
0.00161440864
-0.000586614519
0.00187333025
-0.000693966695
0.00216095521
-0.000813821905
0.00247707187
-0.000946081541
0.00282380142
-0.00109546057
0.00320375872
-0.00125203753
0.00359314944
-0.00139983897
0.00398735507
-0.00159682365
0.00446936053
-0.00182101497
0.00496049274
-0.00192800862
0.00528986931
-0.00210883233
0.00564994364
-0.00244181421
0.00620365597
-0.00263679364
0.00669876388
-0.00269240781
0.00695176878
-0.00280160344
0.00705271147
-0.00297260051
0.00719891219
-0.00313211232
-0.00325423778
0.0074672424
-4.21727174e-08
4.37775898e-07
-1.67484249e-07
1.31067835e-06
-3.77468933e-07
2.21323886e-06
-6.73787333e-07
3.15176245e-06
-1.05830327e-06
4.13093279e-06
-1.53302538e-06
5.15447758e-06
-2.10015135e-06
6.22546074e-06
-2.76210843e-06
7.34643418e-06
-3.52132321e-06
8.5191955e-06
-4.38006242e-06
9.74489451e-06
-5.34025409e-06
1.10240572e-05
-6.40329806e-06
1.2356611e-05
-7.56987291e-06
1.37419072e-05
-8.8397386e-06
1.51787353e-05
-1.02115348e-05
1.66653363e-05
-1.16825779e-05
1.81994052e-05
-1.32486383e-05
1.97780839e-05
-1.49037122e-05
2.13979495e-05
-1.6639764e-05
2.30549731e-05
-1.8446443e-05
2.47444761e-05
-2.03107637e-05
2.64610609e-05
-2.22167264e-05
2.81984959e-05
-2.41448664e-05
2.99495878e-05
-2.60717133e-05
3.17059957e-05
-2.79693229e-05
3.34581868e-05
-2.98045905e-05
3.51950853e-05
-3.15383849e-05
3.69037113e-05
-3.3126715e-05
3.85710728e-05
-3.45197549e-05
4.01818029e-05
-3.56624332e-05
4.17193315e-05
-3.6494659e-05
4.31644258e-05
-3.69501963e-05
4.44962366e-05
-3.69348286e-05
4.56718054e-05
-3.6334599e-05
4.66504989e-05
-3.50051242e-05
4.73835966e-05
-3.27666775e-05
4.78176829e-05
-2.94285801e-05
4.78797907e-05
-2.47727199e-05
4.74915199e-05
-1.85610185e-05
4.6559147e-05
-1.05367307e-05
4.49968447e-05
-4.01606056e-07
4.26796127e-05
1.21884297e-05
3.94610482e-05
2.75713997e-05
3.5239552e-05
4.61704924e-05
2.978947e-05
6.82187988e-05
2.31868102e-05
9.45032843e-05
1.46539181e-05
0.000125779758
4.09117356e-06
0.000162887287
-8.56537544e-06
0.000206765765
-2.42170398e-05
0.000258493316
-4.31418387e-05
0.000319160426
-6.57666402e-05
0.000390329301
-9.2591957e-05
0.000473001394
-0.000124286185
0.000568560259
-0.000161509362
0.000678632748
-0.000204955013
0.000804895289
-0.000255384262
0.000949011897
-0.000313575971
0.00111271925
-0.000380353898
0.00129781625
-0.0004566182
0.0015060626
-0.000543245052
0.00173900818
-0.000640962677
0.00199787456
-0.00075049985
0.00228329963
-0.000872044286
0.00259515689
-0.00100582686
0.00293268863
-0.00115135468
0.00329347658
-0.00130686879
0.00367158454
-0.0014735661
0.00407395621
-0.00165440518
0.00449338392
-0.0018192612
0.00487876995
-0.00198220291
0.00525697677
-0.00219921408
0.00571461552
-0.0023856394
0.00610242575
-0.00249663508
0.00630740527
-0.00264678608
0.00648107098
-0.00281045194
0.00672541355
-0.00293674671
0.00696943863
-0.00304562913
0.00712724836
-0.0031304163
0.00722128624
-0.00322616172
-0.00334311744
0.00731014853
-3.398449e-08
4.71587987e-07
-1.34178336e-07
1.41063254e-06
-3.00888087e-07
2.37967614e-06
-5.34414314e-07
3.38498501e-06
-8.35202568e-07
4.43138693e-06
-1.20372237e-06
5.5226324e-06
-1.64044037e-06
6.66178147e-06
-2.14551683e-06
7.85107896e-06
-2.71903269e-06
9.09224248e-06
-3.36064686e-06
1.03859993e-05
-4.06940654e-06
1.17322633e-05
-4.84355142e-06
1.31301542e-05
-5.68029759e-06
1.45779993e-05
-6.57561977e-06
1.60733463e-05
-7.52401993e-06
1.76129635e-05
-8.51827772e-06
1.91928232e-05
-9.54919291e-06
2.08080871e-05
-1.06052779e-05
2.24530447e-05
-1.16723967e-05
2.41210187e-05
-1.27333246e-05
2.58042417e-05
-1.37672827e-05
2.74937616e-05
-1.47495005e-05
2.91793552e-05
-1.56516709e-05
3.08502924e-05
-1.64412833e-05
3.24940275e-05
-1.70814892e-05
3.409669e-05
-1.75309511e-05
3.56427216e-05
-1.77420989e-05
3.71129094e-05
-1.76542321e-05
3.84811214e-05
-1.71955473e-05
3.97208899e-05
-1.62807693e-05
4.08021828e-05
-1.4805641e-05
4.16867742e-05
-1.26436574e-05
4.2331565e-05
-9.65589877e-06
4.26812007e-05
-5.68234993e-06
4.26739369e-05
-5.36878353e-07
4.22349296e-05
5.99794469e-06
4.12794776e-05
1.41491168e-05
3.97250562e-05
2.41791063e-05
3.74577831e-05
3.63833284e-05
3.43509909e-05
5.1075486e-05
3.03005629e-05
6.86371537e-05
2.51136374e-05
8.92536954e-05
1.88399872e-05
0.000113705678
1.07829139e-05
0.000142647585
8.42781903e-07
0.000176823557
-1.09941919e-05
0.000217075272
-2.56031208e-05
0.000264366062
-4.32051765e-05
0.000319947935
-6.41530781e-05
0.000384686762
-8.89619563e-05
0.000459724149
-0.000118185623
0.000546375843
-0.000152425028
0.000646105115
-0.000192328302
0.000760376811
-0.000238565259
0.000890724206
-0.000291864444
0.00103872565
-0.000352964344
0.00120593784
-0.000422604595
0.00139395897
-0.000501605373
0.00160426468
-0.000590667733
0.00183798527
-0.000690346055
0.00209579568
-0.00080106166
0.00237767929
-0.000922851221
0.00268283573
-0.00105566002
0.00300942263
-0.00119863353
0.00335488063
-0.00135128587
0.00371508009
-0.00151155366
0.00408719258
-0.00167897938
0.00445995075
-0.00184632084
0.00482955827
-0.00202400789
0.00520491211
-0.00219460904
0.00555909206
-0.00233637614
0.00583438371
-0.00247449836
0.006070493
-0.00262174067
0.00630921858
-0.00273535129
0.00649736642
-0.00283492477
0.0066139604
-0.00292704029
0.00670256953
-0.00302535135
0.00679283662
-0.00313589479
0.00690172705
-0.00323930948
0.00700643394
-0.00333087516
-0.00343334183
0.00709664804
-3.06039987e-08
5.01905816e-07
-1.19582864e-07
1.49921208e-06
-2.65910552e-07
2.5255491e-06
-4.68392806e-07
3.58696143e-06
-7.25699734e-07
4.68814005e-06
-1.03646744e-06
5.83279964e-06
-1.39910725e-06
7.0237738e-06
-1.81157765e-06
8.26285374e-06
-2.27097447e-06
9.55089382e-06
-2.77371546e-06
1.08879425e-05
-3.31534661e-06
1.22730415e-05
-3.89020562e-06
1.37041021e-05
-4.4911753e-06
1.51779961e-05
-5.10941782e-06
1.66905507e-05
-5.73408616e-06
1.82365246e-05
-6.35201079e-06
1.98095673e-05
-6.9473513e-06
2.14021697e-05
-7.50128703e-06
2.30056406e-05
-7.99211624e-06
2.46104204e-05
-8.39489144e-06
2.62054957e-05
-8.68122031e-06
2.77784739e-05
-8.81562069e-06
2.93120384e-05
-8.75728911e-06
3.07901338e-05
-8.45877839e-06
3.21935732e-05
-7.86436686e-06
3.35002114e-05
-6.90832675e-06
3.46844856e-05
-5.51372633e-06
3.57159753e-05
-3.59334651e-06
3.65582596e-05
-1.04378738e-06
3.71686959e-05
2.25817656e-06
3.74974178e-05
6.45631866e-06
3.74856466e-05
1.17171367e-05
3.70675679e-05
1.82189171e-05
3.61760444e-05
2.61669861e-05
3.47222825e-05
3.57939945e-05
3.2604117e-05
4.73637739e-05
2.97056659e-05
6.12213684e-05
2.58632024e-05
7.75864596e-05
2.1088184e-05
9.67658091e-05
1.5166858e-05
0.00011944986
7.6115275e-06
0.000146184091
-1.62574759e-06
0.000177606054
-1.25874643e-05
0.000214537578
-2.61544687e-05
0.0002577927
-4.24185275e-05
0.000308507622
-6.17156266e-05
0.000367429213
-8.4531583e-05
0.000435580001
-0.00011136319
0.000514172805
-0.000142753509
0.000604485293
-0.000179282482
0.000707863303
-0.000221572099
0.000825707131
-0.000270277661
0.000959435654
-0.000326065985
0.00111047997
-0.000389619018
0.00128019854
-0.000461592814
0.00146988624
-0.000542662124
0.00168065489
-0.000633383302
0.00191319661
-0.000734156302
0.00216769071
-0.000845169995
0.00244355453
-0.000966216839
0.00273931023
-0.00109682321
0.00305255732
-0.00123610289
0.00337989125
-0.00138299736
0.00371648006
-0.00153522439
0.00405751525
-0.00169232185
0.00439621929
-0.00185025703
0.00472866358
-0.00201142161
0.00504831147
-0.00216596529
0.00533181457
-0.00230750659
0.00557414953
-0.00243693849
0.00578741164
-0.00254963126
0.00596541616
-0.00265249328
0.00609497005
-0.00275128437
0.00621129321
-0.00285166289
0.00632623119
-0.00294985139
0.00644077157
-0.00304157342
0.00653921629
-0.00312379084
0.00661515543
-0.00321183031
0.00668692705
-0.00331108008
0.00677327196
-0.00341722101
-0.00352503397
0.00686496087
-3.09553161e-08
5.32739732e-07
-1.19699387e-07
1.58778788e-06
-2.63643596e-07
2.66930217e-06
-4.59861572e-07
3.78296618e-06
-7.05036306e-07
4.93307965e-06
-9.95373275e-07
6.1228789e-06
-1.32650656e-06
7.35462532e-06
-1.69349433e-06
8.62953354e-06
-2.0902682e-06
9.94733104e-06
-2.50938549e-06
1.13066917e-05
-2.94178562e-06
1.27050389e-05
-3.37680262e-06
1.41386783e-05
-3.80172599e-06
1.56024371e-05
-4.20149582e-06
1.70897926e-05
-4.55835951e-06
1.85928104e-05
-4.85149936e-06
2.0102075e-05
-5.05656783e-06
2.16065484e-05
-5.1450047e-06
2.30933261e-05
-5.08380217e-06
2.4548399e-05
-4.83468132e-06
2.59554819e-05
-4.35314567e-06
2.72959679e-05
-3.58950569e-06
2.85473475e-05
-2.48506009e-06
2.96845504e-05
-9.70689887e-07
3.06779739e-05
1.03532388e-06
3.14928715e-05
3.62928651e-06
3.20890912e-05
6.92257694e-06
3.2421143e-05
1.10379832e-05
3.24411991e-05
1.6116417e-05
3.2088491e-05
2.23194246e-05
3.12925169e-05
2.98304254e-05
2.99726267e-05
3.88601715e-05
2.80356725e-05
4.96589448e-05
2.53749913e-05
6.25260697e-05
2.18527405e-05
7.76732493e-05
1.74543698e-05
9.54788154e-05
1.18974102e-05
0.000116449253
4.89000965e-06
0.000141077827
-3.54326321e-06
0.000169954751
-1.37131354e-05
0.000203787091
-2.62240694e-05
0.000243307603
-4.11496715e-05
0.000289553818
-5.88372601e-05
0.000343124238
-7.97286359e-05
0.000404965337
-0.000104263563
0.000476174735
-0.000132929153
0.000557893855
-0.000166255064
0.000651330182
-0.000204804097
0.000757742729
-0.000249170874
0.000878415905
-0.000299960692
0.00101461547
-0.000357776955
0.00116754187
-0.000423209587
0.00133829001
-0.000496819969
0.00152780385
-0.000579138986
0.0017368026
-0.000670597853
0.00196555074
-0.000771416229
0.00221372245
-0.000881560523
0.00248021592
-0.00100065465
0.00276307891
-0.00112803728
0.00305947797
-0.00126261943
0.00336543518
-0.00140278324
0.00367609011
-0.00154675974
0.00398587184
-0.00169278016
0.00428807661
-0.00183742916
0.0045772383
-0.0019814825
0.00484759277
-0.00212060932
0.0050861241
-0.0022499497
0.00528842264
-0.00236825954
0.00545059468
-0.00246967269
0.00558050233
-0.00256683666
0.00569488336
-0.00266400204
0.00580165506
-0.00275925623
0.00589948864
-0.00284910781
0.00598934413
-0.00294150797
0.00607295201
-0.00303345019
0.0061583459
-0.00312695785
0.00625266894
-0.00321810458
0.00634499653
-0.00330415086
0.00643393769
-0.00340001771
0.00651499164
-0.0034982716
-0.00360683008
0.00659678999
-3.29393344e-08
5.65448993e-07
-1.25779772e-07
1.68030943e-06
-2.74029546e-07
2.81719046e-06
-4.72566138e-07
3.98110186e-06
-7.15547989e-07
5.17562346e-06
-9.9625901e-07
6.40311582e-06
-1.30690121e-06
7.66475732e-06
-1.6383637e-06
8.96044878e-06
-1.98032543e-06
1.02887067e-05
-2.3205774e-06
1.16463166e-05
-2.64472333e-06
1.30285146e-05
-2.93572094e-06
1.44289603e-05
-3.17355946e-06
1.58395118e-05
-3.33494027e-06
1.72503585e-05
-3.39281883e-06
1.86498196e-05
-3.31588352e-06
2.00242125e-05
-3.06801222e-06
2.135769e-05
-2.60779963e-06
2.26320635e-05
-1.88711905e-06
2.38266e-05
-8.49510221e-07
2.49166795e-05
5.71158032e-07
2.58740256e-05
2.44919426e-06
2.66679542e-05
4.87022445e-06
2.72620744e-05
7.93204425e-06
2.76146121e-05
1.17464768e-05
2.76767937e-05
1.64411774e-05
2.73926358e-05
2.21630011e-05
2.66974477e-05
2.90850095e-05
2.55171947e-05
3.74048847e-05
2.37664874e-05
4.73539637e-05
2.13411703e-05
5.91828838e-05
1.8141287e-05
7.30936905e-05
1.41222755e-05
8.94926947e-05
8.97325155e-06
0.000108772023
2.57055508e-06
0.000131379224
-5.15586423e-06
0.000157834795
-1.45614222e-05
0.000188700014
-2.59786921e-05
0.000224756379
-3.96033369e-05
0.000266788363
-5.57490614e-05
0.000315355917
-7.47958145e-05
0.000371340948
-9.71391455e-05
0.000435717251
-0.000123218279
0.00050949483
-0.000153511216
0.000593752374
-0.000188526401
0.000689616063
-0.000228798397
0.000798227576
-0.0002748724
0.000920711709
-0.000327294291
0.00105812999
-0.000386595472
0.00121143507
-0.0004532723
0.00138142274
-0.000527771412
0.00156866688
-0.000610460771
0.00177349075
-0.000701651002
0.00199574568
-0.000801400702
0.00223468875
-0.000909547123
0.00248881604
-0.00102554902
0.00275579527
-0.00114854462
0.00303249345
-0.00127735695
0.00331490681
-0.00141045409
0.00359841537
-0.00154613062
0.00387736346
-0.00168173322
0.00414600602
-0.00181540326
0.00439868275
-0.00194545703
0.00463127479
-0.00207002029
0.00483318073
-0.0021833866
0.00500178432
-0.00228920982
0.0051373052
-0.00238546593
0.00524679711
-0.00247774563
0.00534341319
-0.00256628235
0.00542726507
-0.00265068028
0.00549975701
-0.00273648404
0.00556557236
-0.00282506154
0.00563182735
-0.00291535245
0.00569766616
-0.00300733624
0.00576713537
-0.0031029072
0.0058414258
-0.00320123612
0.00592587661
-0.00330254721
0.0060146462
-0.00339291296
0.00610663088
-0.00349199538
0.00620385583
-0.00359548601
-0.00370267161
0.00629970556
-3.33044361e-08
5.98674343e-07
-1.25040202e-07
1.77193561e-06
-2.6823717e-07
2.96026282e-06
-4.55059021e-07
4.16778435e-06
-6.76571595e-07
5.39698174e-06
-9.22509543e-07
6.64888379e-06
-1.18098697e-06
7.92304785e-06
-1.43817524e-06
9.21743156e-06
-1.67790492e-06
1.05282103e-05
-1.88152427e-06
1.18496868e-05
-2.02732297e-06
1.31740384e-05
-2.08983182e-06
1.44911657e-05
-2.03947317e-06
1.57888183e-05
-1.84197583e-06
1.70524918e-05
-1.45777606e-06
1.82652126e-05
-8.4132002e-07
1.94073079e-05
5.97593447e-08
2.0456117e-05
1.30567685e-06
2.13856033e-05
2.96551972e-06
2.21661616e-05
5.11825136e-06
2.27632952e-05
7.85372445e-06
2.31378383e-05
1.12761825e-05
2.32447157e-05
1.55052396e-05
2.30321668e-05
2.06782793e-05
2.24406471e-05
2.69520927e-05
2.1401976e-05
3.45057089e-05
1.98379317e-05
4.35469249e-05
1.76550566e-05
5.4305652e-05
1.4757199e-05
6.69746866e-05
1.10960852e-05
8.19123898e-05
6.40201091e-06
9.94738135e-05
5.78320317e-07
0.000120054344
-6.45991134e-06
0.000144112059
-1.50862386e-05
0.000172143458
-2.54627344e-05
0.000204830195
-3.78446097e-05
0.000242782471
-5.2515829e-05
0.000286605939
-6.98044127e-05
0.000337066829
-9.00666082e-05
0.000395012254
-0.000113696996
0.000461336915
-0.000141123125
0.000536994942
-0.000172799953
0.000622981785
-0.000209208032
0.000720308033
-0.000250840488
0.000829971291
-0.000298192805
0.000952918851
-0.000351749207
0.00109000668
-0.000411963597
0.00124194674
-0.000479237814
0.00140924548
-0.00055389779
0.00159213485
-0.000636165355
0.0017905526
-0.000726192951
0.00200397766
-0.000823889468
0.00223129635
-0.00092897304
0.00247069551
-0.00104080281
0.00271962463
-0.00115847883
0.00297481869
-0.00128074518
0.00323231892
-0.00140604652
0.00348763243
-0.00153267155
0.00373583438
-0.00165865662
0.00397221013
-0.00178250626
0.00419152427
-0.00190104661
0.00439051237
-0.00201438986
0.00456346205
-0.00211840461
0.00470885373
-0.00221540868
0.00482820269
-0.00230273149
0.00492765958
-0.00238866227
0.00501629816
-0.00247409958
0.00509669811
-0.00255813951
0.00516856889
-0.00263814505
0.00522930515
-0.00271140744
0.00528226692
-0.00278943605
0.00533213977
-0.00287492273
0.00538084842
-0.00296404937
0.0054311448
-0.00305762207
0.00548276224
-0.00315451454
0.0055369052
-0.00325536968
0.00559473645
-0.00336037047
0.00566864456
-0.00346681267
0.00574866181
-0.00357200226
0.00583699386
-0.0036838075
-0.0037926152
0.00592694684
-2.94879529e-08
6.27995516e-07
-1.07336202e-07
1.84955354e-06
-2.23523779e-07
3.07618991e-06
-3.66664096e-07
4.31063613e-06
-5.23759751e-07
5.55376239e-06
-6.79841523e-07
6.80462473e-06
-8.1758342e-07
8.06042274e-06
-9.16860592e-07
9.31631474e-06
-9.54172312e-07
1.05651e-05
-9.02128469e-07
1.17971915e-05
-7.28994702e-07
1.30004214e-05
-3.98209647e-07
1.41598635e-05
1.32413131e-07
1.52576428e-05
9.11318954e-07
1.62729951e-05
1.99412022e-06
1.71817797e-05
3.44460173e-06
1.79561511e-05
5.33543159e-06
1.85645656e-05
7.75026267e-06
1.8970001e-05
1.0784655e-05
1.9130944e-05
1.45478268e-05
1.899924e-05
1.91646328e-05
1.85200867e-05
2.47774665e-05
1.76308695e-05
3.15484781e-05
1.62600707e-05
3.96643398e-05
1.43236239e-05
4.93346049e-05
1.17304647e-05
6.07437861e-05
8.42741168e-06
7.42060697e-05
4.19134793e-06
9.0034672e-05
-1.07291936e-06
0.000108580112
-7.45098775e-06
0.000130241209
-1.52608474e-05
0.000155473316
-2.46556768e-05
0.000184863489
-3.58521137e-05
0.000218889208
-4.91141341e-05
0.000258154366
-6.47302267e-05
0.00030332639
-8.30191332e-05
0.000355140092
-0.00010433221
0.000414383101
-0.000129050288
0.000481893408
-0.000157579978
0.000558544974
-0.000190351811
0.000645228745
-0.000227810333
0.00074282999
-0.000270404811
0.000852196148
-0.00031857798
0.000974101346
-0.000372749634
0.00110920128
-0.000433296847
0.00125797873
-0.000500530883
0.00142068276
-0.00057467197
0.00159726631
-0.000655825817
0.0017873316
-0.00074396767
0.00199006851
-0.000838906725
0.00220410161
-0.000940230149
0.00242742556
-0.00104721704
0.00265733049
-0.00115888115
0.00289050048
-0.00127397543
0.00312315008
-0.00139113058
0.00335121216
-0.00150880882
0.00357021045
-0.00162504583
0.00377561908
-0.00173808055
0.00396403161
-0.00184706893
0.00413227983
-0.00195075348
0.00427891453
-0.00204767963
0.00440232229
-0.00213779525
0.00450359945
-0.00221967884
0.00458721795
-0.00229902317
0.00466080933
-0.00237631722
0.00472656642
-0.00245441167
0.00478811983
-0.00253564472
0.00484900358
-0.00261901653
0.00491225336
-0.0027013872
0.00497357074
-0.00277271544
0.00503026905
-0.00284612527
0.00508678733
-0.00293143165
0.00514181757
-0.00301906921
0.00519409876
-0.00310989348
0.00524655265
-0.00320695989
0.00529765194
-0.00330646116
0.00534677275
-0.00340948174
0.00540018523
-0.00352021282
0.00546385088
-0.00363565533
0.00553787409
-0.00375781824
-0.00387616057
0.00562142933
-2.05104541e-08
6.4845954e-07
-6.82209697e-08
1.89720038e-06
-1.28799075e-07
3.13669594e-06
-1.85963881e-07
4.36772027e-06
-2.21093321e-07
5.58880212e-06
-2.12752469e-07
6.79618437e-06
-1.36169934e-07
7.98372977e-06
3.73546752e-08
9.14266738e-06
3.41012526e-07
1.02613056e-05
8.13063922e-07
1.13249878e-05
1.49753464e-06
1.23157807e-05
2.4449532e-06
1.32122552e-05
3.71314431e-06
1.39892397e-05
5.36828003e-06
1.46176226e-05
7.4858833e-06
1.50639123e-05
1.01525852e-05
1.52891549e-05
1.3467176e-05
1.52496471e-05
1.75423582e-05
1.48944543e-05
2.25066096e-05
1.41662881e-05
2.85056737e-05
1.29997278e-05
3.57063839e-05
1.13188815e-05
4.42980115e-05
9.03869542e-06
5.4455004e-05
6.10247596e-06
6.64508834e-05
2.32708709e-06
8.05609269e-05
-2.38029373e-06
9.70946405e-05
-8.10708619e-06
0.000116402823
-1.51176932e-05
0.000138881706
-2.35527377e-05
0.00016503873
-3.36090262e-05
0.000195297159
-4.55203758e-05
0.000230182622
-5.95423275e-05
0.00027028671
-7.59574812e-05
0.000316248528
-9.50773281e-05
0.000368756877
-0.000117240054
0.000428543812
-0.000142807647
0.000496374247
-0.000172164325
0.000573031605
-0.000205709419
0.000659298868
-0.000243849109
0.000755932542
-0.000286987437
0.000863632944
-0.000335512771
0.000983007299
-0.000389781269
0.00111452444
-0.000450097295
0.00125846331
-0.000516690705
0.00141485624
-0.000589692029
0.00158343059
-0.0006691075
0.00176355523
-0.000754798901
0.00195421461
-0.000846487434
0.00215391771
-0.000943672849
0.00236063331
-0.00104562411
0.00257172707
-0.00115132542
0.00278407827
-0.00125956939
0.00299416584
-0.00136896951
0.00319822424
-0.00147803417
0.00339260988
-0.00158551614
0.00357451306
-0.00169071139
0.00374110908
-0.00179164074
0.00388911132
-0.00188608114
0.00401670503
-0.00197466045
0.00412444486
-0.00205849028
0.00421526326
-0.00213849482
0.00429230444
-0.00221483273
0.00435918349
-0.00228655268
0.00441583358
-0.00235566723
0.00446405186
-0.00242452869
0.00450537022
-0.00249572193
0.00454289293
-0.00257315963
0.00458024843
-0.00265636509
0.00462178191
-0.00274291298
0.00467265862
-0.00282358439
0.00472649377
-0.00289995108
0.00478113987
-0.00298606533
0.00483880124
-0.00307671989
0.00489872796
-0.00316981068
0.00495914
-0.00326736084
0.00502405471
-0.00337136424
0.0050960247
-0.00348144081
0.00517124907
-0.00359542727
0.00524823989
-0.00371263622
0.00532520497
-0.00383477141
-0.00395218596
0.00540124367
-5.37865115e-09
6.53730697e-07
-3.55465752e-09
1.89522972e-06
2.54728867e-08
3.10750373e-06
1.04430335e-07
4.2885811e-06
2.59286582e-07
5.43374777e-06
5.19808382e-07
6.53544825e-06
9.20195409e-07
7.58311192e-06
1.49975338e-06
8.56286142e-06
2.30355254e-06
9.45724035e-06
3.38332978e-06
1.02449252e-05
4.79837447e-06
1.09004301e-05
6.61635804e-06
1.13939437e-05
8.91472428e-06
1.16905221e-05
1.17818547e-05
1.17501153e-05
1.5318415e-05
1.15269473e-05
1.96387586e-05
1.09683764e-05
2.48732826e-05
1.00146557e-05
3.11699445e-05
8.59729001e-06
3.86971639e-05
6.63852746e-06
4.7617775e-05
4.07853297e-06
5.8168053e-05
7.67977513e-07
7.05891615e-05
-3.38308457e-06
8.51531525e-05
-8.46224177e-06
0.000102167036
-1.46875842e-05
0.000121974269
-2.21883785e-05
0.000145008932
-3.11426712e-05
0.000171646479
-4.17562382e-05
0.000202347579
-5.42549183e-05
0.000237625871
-6.88884864e-05
0.000278036167
-8.5931938e-05
0.000324176879
-0.000105684408
0.000376684742
-0.000128466825
0.000436226528
-0.000154620707
0.000503487985
-0.000184503222
0.000579158583
-0.000218480072
0.000663910729
-0.000256918417
0.000758375226
-0.000300175977
0.000863111395
-0.000348587455
0.000978570051
-0.000402448373
0.00110505103
-0.000461996129
0.0012426562
-0.000527388902
0.00139123934
-0.000598682967
0.00155035571
-0.000675809658
0.00171921517
-0.000758554112
0.00189664905
-0.000846544008
0.00208111674
-0.000939269147
0.00227064444
-0.00103601744
0.00246281117
-0.00113584159
0.00265481347
-0.00123762806
0.0028436213
-0.00134013454
0.00302618115
-0.0014421301
0.00319944837
-0.00154223717
0.00336066675
-0.00163925246
0.00350815013
-0.00173299896
0.00363886264
-0.00182142282
0.00375123828
-0.00190401479
0.0038461617
-0.00198100214
0.00392694487
-0.00205544101
0.00399820916
-0.00212975172
0.00406063641
-0.00220091761
0.00411861598
-0.00227280634
0.00417070765
-0.00233863798
0.00421427121
-0.00239922439
0.00425039645
-0.00246064687
0.00428172282
-0.00252704047
0.00431082474
-0.00260225413
0.00433806851
-0.00268360117
0.0043659531
-0.00277079011
0.00440809443
-0.0028657182
0.00446140488
-0.00295325192
0.00451600284
-0.0030406551
0.00457378399
-0.0031344937
0.00463799116
-0.00323400944
0.00470590772
-0.00333526902
0.00477630592
-0.00344175394
0.00485154703
-0.00355667336
0.00493388738
-0.00367775911
0.00501813269
-0.003796872
0.00509699348
-0.00391362135
-0.00402266992
0.00516748795
1.65039264e-08
6.37214382e-07
8.88924374e-08
1.82282634e-06
2.4433583e-07
2.95204478e-06
5.13671757e-07
4.01922813e-06
9.32016329e-07
5.01538382e-06
1.53945791e-06
5.92798408e-06
2.38185611e-06
6.74068697e-06
3.51168482e-06
7.43300074e-06
4.98895633e-06
7.97993055e-06
6.88207079e-06
8.3517649e-06
9.26923351e-06
8.51321265e-06
1.22395036e-05
8.42360842e-06
1.58941431e-05
8.0358053e-06
2.03485075e-05
7.29565954e-06
2.57341802e-05
6.14116746e-06
3.21899606e-05
4.51247085e-06
3.98776224e-05
2.32684845e-06
4.89977337e-05
-5.22988762e-07
5.97593521e-05
-4.12328257e-06
7.23991866e-05
-8.56152126e-06
8.7184019e-05
-1.40171056e-05
0.00010441041
-2.06097595e-05
0.00012444732
-2.8499473e-05
0.000147626403
-3.78670285e-05
0.000174348965
-4.89113448e-05
0.00020505824
-6.18523963e-05
0.000240233663
-7.69321606e-05
0.000280392539
-9.4414348e-05
0.000326085902
-0.000114582459
0.000377892245
-0.000137738949
0.00043640908
-0.000164201968
0.000502240777
-0.000194299307
0.000575982301
-0.000228363074
0.000658199101
-0.000266720923
0.000749403228
-0.000309685152
0.000850023237
-0.000357539432
0.0009603694
-0.000410523185
0.00108059477
-0.000468813914
0.00121065302
-0.000532507725
0.00135025515
-0.000601599382
0.00149882744
-0.000675962315
0.00165547416
-0.000755330793
0.00181894979
-0.000839286356
0.00198764687
-0.000927252212
0.00215963414
-0.00101853217
0.00233264744
-0.00111228318
0.00250413429
-0.00120750479
0.00267137348
-0.00130308106
0.00283168007
-0.00139793461
0.00298258293
-0.00149103707
0.00312203409
-0.00158158053
0.0032482705
-0.00166847246
0.00336035743
-0.00175133786
0.0034568089
-0.00182944862
0.00353780787
-0.00190241924
0.00360399014