/*--------------------------------*- C++ -*----------------------------------*\
  =========                 |
  \\      /  F ield         | OpenFOAM: The Open Source CFD Toolbox
   \\    /   O peration     | Website:  https://openfoam.org
    \\  /    A nd           | Version:  8
     \\/     M anipulation  |
\*---------------------------------------------------------------------------*/
FoamFile
{
    version     2.0;
    format      ascii;
    class       volScalarField;
    location    "0.033";
    object      T;
}
// * * * * * * * * * * * * * * * * * * * * * * * * * * * * * * * * * * * * * //

dimensions      [0 0 0 1 0 0 0];

internalField   nonuniform List<scalar> 
42400
(
472.227288
470.664806
469.061339
467.416008
465.727988
463.996522
462.220935
460.40066
458.535253
456.62442
454.668048
452.666227
450.619289
448.527842
446.3928
444.215431
441.997389
439.740755
437.44808
435.122418
432.767366
430.387094
427.986372
425.570592
423.145779
420.718596
418.296329
415.886874
413.498695
411.140777
408.822565
406.553895
404.344887
402.205817
400.146972
398.178498
396.310246
394.551627
392.911507
391.398166
390.019154
388.781152
387.689766
386.749432
385.963285
385.333033
384.858856
384.539312
384.37117
384.349509
384.465846
384.710848
385.072639
385.535464
386.079717
386.681128
387.306599
387.923998
388.508834
389.028968
389.246995
389.138757
388.527077
387.69142
386.558554
385.053954
383.052174
380.470819
377.214017
373.239021
368.928789
363.684083
357.220573
351.479817
345.932349
338.972551
331.208157
325.443436
319.609465
315.275005
472.258832
470.760153
469.22222
467.64424
466.025477
464.365272
462.663057
460.918375
459.130907
457.30049
455.42715
453.511129
451.552921
449.553301
447.513367
445.434575
443.318776
441.168259
438.985787
436.774632
434.538613
432.282124
430.010161
427.728337
425.4429
423.160724
420.889307
418.636738
416.411669
414.223248
412.081062
409.995036
407.975336
406.032249
404.176052
402.416879
400.764591
399.228594
397.817643
396.539676
395.401565
394.408898
393.565717
392.874344
392.335166
391.946344
391.703739
391.600524
391.627253
391.771439
392.016189
392.339689
392.714701
393.112043
393.506784
393.892534
394.060949
393.980699
393.551987
392.741788
391.698981
390.348627
388.612551
386.343796
383.488357
379.998092
375.852962
371.130899
365.83529
359.859885
353.739333
347.513273
340.316416
333.263127
327.312053
321.503471
315.80501
310.424785
306.143102
302.676713
472.300199
470.885193
469.433205
467.943551
466.415615
464.848865
463.242869
461.597317
459.912045
458.187057
456.422554
454.618968
452.776985
450.897589
448.98209
447.032164
445.049886
443.037773
440.998813
438.936501
436.854872
434.758522
432.652634
430.542988
428.435966
426.338547
424.258286
422.203283
420.182137
418.203882
416.277911
414.413885
412.621633
410.911005
409.291715
407.773152
406.36419
405.072908
403.906319
402.870106
401.968335
401.20316
400.574465
400.079649
399.713186
399.466918
399.328559
399.281138
399.302297
399.370794
399.463683
399.566302
399.531577
399.30503
398.818988
397.995935
396.979632
395.704523
394.102476
392.075354
389.533736
386.433419
382.743743
378.440862
373.543291
368.09699
362.159689
355.879792
349.436278
342.735564
335.990164
329.72783
323.628172
317.678974
312.495508
308.291566
304.753237
301.838822
300.277605
299.898917
472.348227
471.030367
469.678158
468.291042
466.86854
465.410266
463.915943
462.385429
460.818737
459.216059
457.577797
455.904588
454.197337
452.457249
450.685863
448.885083
447.057215
445.204995
443.331622
441.440786
439.53669
437.624068
435.708198
433.794901
431.890538
430.001988
428.136627
426.302272
424.507125
422.759687
421.06865
419.442772
417.89072
416.420865
415.041065
413.758401
412.578902
411.507234
410.546364
409.69713
408.958029
408.324745
407.790094
407.342769
406.968088
406.649842
406.369471
406.091001
405.731715
405.244123
404.572968
403.652659
402.570611
401.272165
399.700697
397.786327
395.433057
392.599583
389.251933
385.367028
380.940079
375.968853
370.492345
364.571004
358.292892
351.765978
345.115549
338.472893
332.074002
325.992926
320.229733
315.018695
310.598071
306.831573
303.948532
301.467602
300.239108
299.973685
299.905066
299.876887
472.399288
471.184708
469.938575
468.660464
467.350036
466.007058
464.631415
463.223136
461.782413
460.309629
458.805379
457.270502
455.706108
454.113603
452.494726
450.851571
449.186615
447.502747
445.803284
444.091992
442.373098
440.651293
438.931731
437.22001
435.522149
433.844542
432.193906
430.577195
429.0015
427.473918
426.001396
424.590538
423.247386
421.977167
420.784015
419.670651
418.638012
417.684923
416.807881
416.000637
415.254036
414.556253
413.890228
413.215103
412.496119
411.694517
410.76661
409.685772
408.467632
407.069079
405.443286
403.533207
401.259722
398.583271
395.468823
391.88957
387.83105
383.290851
378.282768
372.824571
366.968202
360.785048
354.367174
347.815086
341.25162
334.79791
328.608239
322.804254
317.523783
312.877118
308.910672
305.656325
303.168749
301.386151
300.199277
299.953168
299.890959
299.877215
299.86888
299.87
472.449302
471.335879
470.19364
469.022285
467.821609
466.591516
465.332038
464.043353
462.725809
461.379939
460.006492
458.606452
457.181062
455.731848
454.260642
452.769601
451.261224
449.738364
448.204238
446.66243
445.116877
443.571861
442.031974
440.502076
438.987236
437.492653
436.023551
434.585053
433.182026
431.818903
430.499465
429.226602
428.002036
426.826025
425.697046
424.611576
423.563671
422.544691
421.540554
420.530572
419.490247
418.392015
417.210308
415.938322
414.547032
413.003507
411.269254
409.295136
407.028564
404.432593
401.473349
398.122111
394.358285
390.170808
385.559652
380.536704
375.127268
369.362633
363.299977
357.016182
350.601571
344.156424
337.793423
331.620665
325.758496
320.323328
315.431649
311.175284
307.6123
304.780015
302.660931
301.243452
300.307461
299.970877
299.898943
299.883567
299.880157
299.872966
299.859046
299.84193
472.493675
471.469998
470.419926
469.343262
468.239903
467.109856
465.953253
464.770367
463.561627
462.327639
461.0692
459.78732
458.483231
457.15841
455.814581
454.453729
453.0781
451.690196
450.292767
448.888785
447.481416
446.073971
444.669844
443.272436
441.885051
440.510776
439.15234
437.811936
436.491035
435.190157
433.908619
432.644267
431.39325
430.14966
428.905246
427.648039
426.363411
425.035432
423.646006
422.176632
420.605136
418.905037
417.043752
414.98247
412.689251
410.13192
407.279195
404.103218
400.580908
396.695422
392.437601
387.80723
382.814211
377.479236
371.83365
365.916923
359.783843
353.510184
347.183964
340.903625
334.771845
328.89517
323.38163
318.330948
313.825175
309.946101
306.745203
304.240621
302.404521
301.160666
300.417808
300.022935
299.917747
299.887233
299.878031
299.869289
299.854068
299.838815
299.829744
299.82935
472.527526
471.572305
470.592523
469.588041
468.558804
467.504857
466.426351
465.323556
464.196874
463.046845
461.874161
460.679672
459.464392
458.229497
456.976329
455.706381
454.421284
453.122782
451.812699
450.49289
449.165183
447.831304
446.492783
445.150842
443.806265
442.459248
441.109219
439.754658
438.39289
437.019913
435.630341
434.216726
432.769765
431.277981
429.727577
428.103542
426.388069
424.558978
422.593423
420.467035
418.154142
415.628376
412.863469
409.83416
406.517935
402.895912
398.953984
394.683994
390.084827
385.163324
379.935297
374.425877
368.6698
362.711316
356.599721
350.407841
344.219572
338.127624
332.230103
326.631474
321.427936
316.713621
312.56295
309.0333
306.152191
303.918185
302.292243
301.196811
300.523764
300.160382
299.985303
299.92952
299.89618
299.867269
299.845045
299.830903
299.829754
299.829239
299.828941
299.828107
472.546247
471.628872
470.687918
469.72324
468.734754
467.722448
466.686383
465.626696
464.543609
463.437425
462.30853
461.157389
459.984542
458.790586
457.576166
456.341946
455.088582
453.816679
452.526741
451.219104
449.893859
448.550755
447.189077
445.807516
444.404019
442.975583
441.517987
440.025424
438.490409
436.904977
435.259376
433.542404
431.74091
429.839889
427.822618
425.67081
423.36485
420.884135
418.207584
415.314195
412.183653
408.797489
405.139879
401.198504
396.965503
392.438411
387.621062
382.524421
377.167376
371.57734
365.79096
359.853634
353.817151
347.745498
341.719426
335.827754
330.163933
324.823115
319.895946
315.469303
311.608137
308.358116
305.729557
303.705777
302.23286
301.229493
300.598984
300.239343
300.049285
299.948329
299.89102
299.853764
299.836629
299.833315
299.831511
299.829273
299.829003
299.828888
299.829976
299.830598
472.546477
471.629532
470.688933
469.724453
468.7359
467.723122
466.686004
465.624462
464.53844
463.4279
462.292807
461.133115
459.94874
458.739538
457.505281
456.24562
454.960029
453.647743
452.307682
450.938351
449.537733
448.103134
446.630508
445.114049
443.548236
441.927116
440.243748
438.490425
436.65851
434.736961
432.713417
430.574249
428.304647
425.88879
423.310086
420.551492
417.595912
414.42664
411.028122
407.386653
403.491
399.333179
394.909258
390.220179
385.272595
380.079672
374.661877
369.047797
363.27481
357.389626
351.448004
345.511123
339.654317
333.961876
328.523231
323.429069
318.763031
314.596228
310.981596
307.953891
305.517289
303.642529
302.270008
301.317728
300.693019
300.307479
300.080965
299.956128
299.881479
299.846099
299.840675
299.837512
299.835085
299.833744
299.831774
299.830442
299.830087
299.830585
299.831098
299.83076
472.528483
471.575128
470.597102
469.594076
468.565719
467.5117
466.43167
465.32526
464.192066
463.031636
461.843463
460.626956
459.380508
458.102072
456.790121
455.442837
454.058034
452.63309
451.164887
449.649754
448.083406
446.460936
444.777318
443.02761
441.204871
439.300733
437.305839
435.209873
433.00156
430.668709
428.198315
425.57672
422.789824
419.823356
416.663198
413.295861
409.709078
405.892265
401.837142
397.538419
392.994526
388.208404
383.18833
377.948771
372.511213
366.904948
361.167847
355.347011
349.498934
343.689099
337.988315
332.477937
327.243057
322.365751
317.923614
313.979767
310.57577
307.728508
305.432865
303.65653
302.342794
301.417001
300.794138
300.390044
300.13784
299.987251
299.896013
299.851084
299.84199
299.8393
299.837656
299.835615
299.833674
299.831437
299.829658
299.828947
299.8293
299.83059
299.830763
299.831183
472.491119
471.462171
470.406447
469.323437
468.212579
467.073249
465.90474
464.705944
463.475299
462.211411
460.912639
459.577046
458.203271
456.789867
455.334263
453.833462
452.284023
450.682015
449.02297
447.301824
445.512849
443.649653
441.705129
439.671381
437.539722
435.300677
432.944008
430.458788
427.833497
425.056163
422.114547
418.996373
415.689626
412.183035
408.466425
404.531216
400.371
395.982179
391.364688
386.522777
381.465859
376.20939
370.775747
365.195031
359.505695
353.754996
347.999184
342.303096
336.73874
331.382199
326.312295
321.607654
317.337196
313.555389
310.298218
307.575891
305.375491
303.660231
302.375327
301.454696
300.826095
300.414667
300.157161
299.99263
299.904805
299.862047
299.850103
299.844337
299.839841
299.836248
299.832772
299.829597
299.827606
299.827224
299.826994
299.826405
299.826365
299.826308
299.828485
299.82987
472.435816
471.294984
470.124265
468.922899
467.690016
466.424604
465.12499
463.789903
462.418145
461.007899
459.557075
458.063285
456.523801
454.935519
453.294905
451.597957
449.840153
448.016423
446.121117
444.147971
442.090057
439.939796
437.688952
435.328646
432.849396
430.241168
427.493476
424.5955
421.536249
418.304764
414.890469
411.283467
407.474939
403.457619
399.226345
394.7787
390.115724
385.242708
380.17005
374.914138
369.498215
363.953167
358.31811
352.640659
346.976675
341.389664
335.949261
330.729023
325.802738
321.23952
317.100671
313.436009
310.275279
307.626627
305.475449
303.785244
302.501122
301.559455
300.895183
300.447984
300.164263
299.998628
299.907376
299.880001
299.867589
299.857616
299.851609
299.846619
299.839129
299.833505
299.83018
299.82814
299.827234
299.826926
299.826911
299.826409
299.825251
299.824777
299.825491
299.829446
472.366846
471.086505
469.772478
468.423771
467.039221
465.617326
464.156737
462.655675
461.112091
459.523633
457.887607
456.200944
454.460165
452.661337
450.800047
448.87137
446.86983
444.789381
442.623392
440.364644
438.005327
435.537066
432.950954
430.237612
427.387278
424.389921
421.235393
417.913656
414.415058
410.730634
406.852505
402.774339
398.4919
394.003683
389.311627
384.421903
379.345755
374.100358
368.70964
363.204986
357.625739
352.019354
346.441071
340.952935
335.621997
330.517945
325.709516
321.260896
317.226838
313.64865
310.549084
307.93481
305.791304
304.087941
302.778607
301.806374
301.10922
300.62669
300.305842
300.102672
299.981646
299.916465
299.888154
299.872211
299.863343
299.854083
299.846222
299.841457
299.838517
299.834368
299.831129
299.828714
299.827145
299.826397
299.825991
299.825845
299.825551
299.824714
299.823849
299.826516
472.287335
470.846182
469.367014
467.848611
466.289529
464.688107
463.042557
461.350693
459.610003
457.81761
455.970241
454.064187
452.095279
450.058848
447.949703
445.762112
443.489787
441.125883
438.663
436.093208
433.408084
430.598773
427.656071
424.570541
421.332669
417.933085
414.362811
410.613578
406.67821
402.551087
398.22868
393.710184
388.998207
384.099545
379.025986
373.79512
368.431096
362.965244
357.436462
351.891252
346.38327
340.9723
335.72251
330.699909
325.968958
321.58901
317.60981
314.068799
310.987292
308.3694
306.200756
304.454298
303.090613
302.058024
301.30227
300.77071
300.412579
300.181433
300.038194
299.953406
299.902668
299.875005
299.858755
299.849541
299.844383
299.841325
299.839873
299.837479
299.834215
299.832906
299.831504
299.829432
299.826134
299.823746
299.822485
299.821854
299.822394
299.82442
299.825345
299.824261
472.199262
470.579989
468.917938
467.211665
465.459469
463.659486
461.809514
459.906965
457.94887
455.931845
453.852056
451.705189
449.486425
447.190419
444.811285
442.342597
439.777388
437.108179
434.327014
431.425521
428.394996
425.226521
421.91112
418.439965
414.804629
410.997394
407.011634
402.842259
398.486249
393.943253
389.216267
384.312365
379.243463
374.027074
368.687
363.253879
357.765493
352.266733
346.80909
341.449577
336.24899
331.269604
326.572326
322.213043
318.238633
314.684834
311.572501
308.906948
306.677432
304.862191
303.42476
302.317984
301.492515
300.898136
300.486045
300.212955
300.041917
299.940846
299.885719
299.857678
299.849449
299.846628
299.844813
299.843487
299.84239
299.84145
299.840233
299.837726
299.833463
299.829454
299.826985
299.825143
299.822526
299.819781
299.818841
299.819266
299.820909
299.82317
299.826856
299.826188
472.1039
470.291773
468.431742
466.522194
464.56123
462.546618
460.475765
458.345683
456.152951
453.893689
451.563525
449.157574
446.670423
444.096124
441.428202
438.659672
435.783076
432.790547
429.673884
426.424674
423.034443
419.494855
415.797958
411.936487
407.904233
403.696475
399.31049
394.746129
390.006463
385.098473
380.033768
374.829293
369.507959
364.099142
358.638946
353.170148
347.741702
342.407723
337.225873
332.255154
327.553143
323.173074
319.161136
315.553014
312.369771
309.620409
307.298565
305.386873
303.854322
302.660553
301.759407
301.100739
300.635336
300.31873
300.112049
299.983574
299.908781
299.872849
299.859869
299.854098
299.849336
299.846064
299.843634
299.84208
299.840797
299.839666
299.838261
299.835581
299.831223
299.826369
299.822137
299.820202
299.819634
299.818975
299.818611
299.818793
299.819118
299.818378
299.822414
299.825208
472.002345
469.984845
467.913999
465.78798
463.604627
461.361404
459.055368
456.683135
454.240849
451.724158
449.128193
446.447559
443.676339
440.808106
437.835962
434.752586
431.550318
428.221268
424.75746
421.151025
417.394438
413.480805
409.404217
405.160163
400.746012
396.161563
391.409655
386.496812
381.433928
376.236918
370.927322
365.532761
360.087196
354.630886
349.20996
343.875518
338.682222
333.686328
328.94325
324.504789
320.416182
316.713685
313.421637
310.552278
308.105495
306.06841
304.415401
303.109988
302.108549
301.364179
300.830159
300.461556
300.217145
300.061703
299.96714
299.912677
299.882817
299.865326
299.854106
299.847333
299.842972
299.840061
299.838131
299.83624
299.834472
299.832778
299.831138
299.828039
299.822914
299.820446
299.818744
299.817555
299.817632
299.817038
299.816377
299.817227
299.817829
299.812065
299.811152
299.814903
471.895527
469.662017
467.369437
465.015753
462.598549
460.114995
457.561812
454.935246
452.231043
449.444432
446.570127
443.602335
440.534779
437.360751
434.073181
430.664735
427.127956
423.45544
419.640055
415.675219
411.555227
407.275644
402.833756
398.229087
393.463972
388.544169
383.479496
378.284458
372.97881
367.588019
362.143528
356.682765
351.248807
345.889623
340.65687
335.604218
330.785262
326.251059
322.047493
318.212688
314.775121
311.750662
309.143984
306.948145
305.142948
303.696885
302.56973
301.716474
301.090785
300.647433
300.344696
300.145959
300.020623
299.944628
299.899649
299.873046
299.856933
299.846774
299.840311
299.836711
299.835108
299.83432
299.833495
299.832026
299.829466
299.825294
299.820431
299.815972
299.81283
299.809356
299.808749
299.810141
299.81252
299.815305
299.815298
299.815108
299.819215
299.819851
299.813856
299.809483
471.784568
469.326678
466.803786
464.213657
461.553637
458.820624
456.011036
453.120796
450.145318
447.07951
443.917793
440.654136
437.282121
433.795024
430.185947
426.447968
422.574353
418.558806
414.395773
410.080807
405.61099
400.985417
396.205726
391.276684
386.206781
381.00883
375.700525
370.304894
364.850607
359.372058
353.909142
348.506672
343.213384
338.08049
333.159848
328.501834
324.153068
320.153989
316.536681
313.322226
310.521034
308.131341
306.137285
304.511744
303.219216
302.218836
301.466946
300.919394
300.534089
300.272612
300.101778
299.994386
299.928623
299.888466
299.863853
299.848644
299.839311
299.834186
299.831728
299.830966
299.831038
299.830849
299.829624
299.828064
299.825889
299.823757
299.821408
299.818375
299.814553
299.81214
299.80964
299.810194
299.81134
299.814719
299.815236
299.813916
299.816005
299.821892
299.827043
299.828033
472.596778
471.781414
470.944658
470.086012
469.204962
468.300976
467.373506
466.421984
465.445819
464.444395
463.417067
462.363155
461.281939
460.172656
459.034491
457.86657
456.667954
455.437629
454.174496
452.877363
451.544936
450.175805
448.768435
447.321153
445.832141
444.299423
442.720854
441.094119
439.416722
437.685988
435.899064
434.052926
432.144396
430.170163
428.126808
426.010855
423.818811
421.547243
419.192844
416.752537
414.223573
411.603656
408.891079
406.084867
403.184942
400.192288
397.109131
393.939095
390.687392
387.361093
383.969441
380.524182
377.039143
373.530317
370.018639
366.528555
363.086114
359.720302
356.462889
353.347939
350.409498
347.67694
345.169297
342.93162
340.958798
339.234916
337.733035
336.3754
335.142867
333.955486
332.737623
331.504812
330.234861
328.935281
327.615235
326.281331
324.949241
323.647721
322.444694
321.446909
472.600235
471.79187
470.962324
470.111115
469.237745
468.341701
467.422448
466.479428
465.512063
464.519743
463.501829
462.457644
461.386471
460.287544
459.160043
458.003084
456.815713
455.596896
454.345508
453.060326
451.740011
450.383106
448.988017
447.553003
446.076167
444.555444
442.988591
441.373182
439.706603
437.98605
436.208532
434.370882
432.469772
430.501736
428.463203
426.350543
424.160116
421.888346
419.5318
417.087289
414.551976
411.923511
409.200171
406.381016
403.466061
400.456459
397.354686
394.164729
390.892249
387.544718
384.131548
380.664763
377.160093
373.63252
370.096417
366.588145
363.132631
359.762409
356.498493
353.373904
350.414744
347.631698
345.106808
342.850496
340.872637
339.169867
337.653075
336.26853
335.059395
333.933187
332.838002
331.702659
330.540461
329.343959
328.120907
326.884949
325.650387
324.439008
323.291741
322.293392
472.600514
471.792727
470.963801
470.113274
469.240665
468.345479
467.427197
466.485281
465.519167
464.528265
463.51195
462.469565
461.40041
460.303737
459.178744
458.024567
456.840269
455.624834
454.377155
453.096023
451.780117
450.427991
449.03806
447.608592
446.137695
444.623303
443.063172
441.454868
439.795764
438.08304
436.313683
434.484499
432.592129
430.633068
428.603703
426.500349
424.319303
422.056896
419.709443
417.273629
414.746482
412.1255
409.408797
406.595277
403.684803
400.678386
397.578366
394.388598
391.114628
387.763848
384.345656
380.871614
377.355521
373.813291
370.262964
366.72817
363.240344
359.825243
356.535594
353.403128
350.46704
347.776673
345.341007
343.103163
341.08684
339.28702
337.71443
336.283685
335.047064
333.924372
332.860341
331.830431
330.785671
329.710843
328.603771
327.477662
326.352022
325.246148
324.186391
323.223681
472.597479
471.783577
470.948414
470.091554
469.212541
468.310905
467.386152
466.437772
465.46523
464.467964
463.445387
462.396876
461.321772
460.21937
459.088917
457.929598
456.740535
455.520772
454.269263
452.984868
451.666336
450.312293
448.92123
447.491493
446.021264
444.508559
442.951206
441.346847
439.692925
437.986687
436.225181
434.405272
432.523653
430.576875
428.561388
426.473595
424.309929
422.066976
419.741232
417.329375
414.828325
412.235343
409.547552
406.763627
403.883155
400.906842
397.836693
394.676193
391.430472
388.106464
384.713041
381.261134
377.76381
374.236321
370.696058
367.163023
363.667171
360.241259
356.921221
353.742959
350.740944
347.944123
345.366851
343.05974
341.014858
339.229776
337.710466
336.494977
335.363578
334.312384
333.301881
332.242279
331.209752
330.177425
329.132192
328.073679
327.012783
325.968899
324.969145
324.045103
472.590815
471.763463
470.91455
470.04367
469.150399
468.2343
467.294916
466.331775
465.344387
464.332239
463.294796
462.231499
461.141755
460.024939
458.880381
457.707363
456.50511
455.27278
454.009452
452.714115
451.385658
450.022856
448.624359
447.188677
445.714164
444.199007
442.64121
441.038584
439.388736
437.689064
435.93676
434.128816
432.262047
430.333126
428.33863
426.275076
424.138956
421.926789
419.635206
417.261071
414.801624
412.25467
409.617516
406.888009
404.064001
401.145731
398.134717
395.033885
391.847748
388.582554
385.246416
381.849402
378.403595
374.923103
371.423991
367.924078
364.446626
361.022924
357.686587
354.472587
351.415922
348.549903
345.904625
343.506574
341.369777
339.498291
337.884752
336.499456
335.328649
334.298053
333.343613
332.442881
331.536829
330.615267
329.670846
328.701225
327.713009
326.723627
325.760452
324.857416
472.580171
471.731321
470.860409
469.967059
469.050882
468.111479
467.148439
466.161337
465.149739
464.113199
463.051256
461.963438
460.849254
459.708195
458.539727
457.343289
456.118286
454.864082
453.579958
452.265066
450.918473
449.539136
448.12597
446.677776
445.193205
443.670739
442.108671
440.505078
438.857802
437.164423
435.422236
433.628219
431.779005
429.871441
427.902661
425.870231
423.771201
421.601952
419.358966
417.038971
414.639102
412.156858
409.590253
406.93808
404.197704
401.366156
398.444157
395.433732
392.338434
389.163508
385.916038
382.605053
379.241573
375.838618
372.411149
368.975906
365.551142
362.161647
358.839324
355.617617
352.530589
349.611602
346.891621
344.397171
342.147506
340.15278
338.412369
336.913625
335.634347
334.53395
333.563994
332.680635
331.840451
331.012176
330.174497
329.314403
328.428056
327.520796
326.610764
325.728069
472.565151
471.685956
470.783958
469.858804
468.910132
467.937572
466.940749
465.919279
464.872775
463.800846
462.703097
461.579132
460.428549
459.250938
458.045845
456.812814
455.55139
454.261091
452.941433
451.591955
450.212155
448.801479
447.359237
445.884632
444.376763
442.834609
441.257009
439.642648
437.990038
436.29751
434.563207
432.785089
430.960955
429.087904
427.162296
425.179676
423.135738
421.02653
418.847838
416.595949
414.272546
411.874723
409.399768
406.84583
404.211803
401.495696
398.695696
395.809754
392.840068
389.790448
386.666509
383.475803
380.227913
376.934485
373.609191
370.267625
366.9271
363.606351
360.329502
357.128541
354.036226
351.085029
348.305739
345.725747
343.367088
341.244575
339.364162
337.721824
336.303333
335.083395
334.028137
333.09937
332.257952
331.468147
330.699781
329.929363
329.140639
328.326385
327.490553
326.642058
472.545478
471.626526
470.683777
469.716894
468.725534
467.709351
466.667997
465.601125
464.508392
463.389462
462.244009
461.071723
459.872308
458.645491
457.391051
456.108775
454.798444
453.459853
452.092802
450.697092
449.272515
447.818845
446.33582
444.82313
443.280402
441.707174
440.102882
438.466831
436.798169
435.095866
433.35868
431.58513
429.773466
427.921636
426.027269
424.087687
422.09996
420.060987
417.967584
415.815921
413.597344
411.307656
408.94291
406.507807
404.001372
401.421889
398.769313
396.041072
393.235464
390.350926
387.391188
384.361774
381.270222
378.126163
374.941358
371.729655
368.506871
365.290607
362.100075
358.955781
355.889112
352.93169
350.114198
347.464968
345.008401
342.763326
340.741481
338.946341
337.3725
336.005586
334.823254
333.797077
332.895022
332.084126
331.332464
330.611499
329.89683
329.1673
328.405236
327.633912
472.52098
471.552511
470.558991
469.540087
468.49547
467.424812
466.327797
465.204117
464.053483
462.875627
461.670311
460.437329
459.176515
457.887743
456.570933
455.22605
453.853108
452.452165
451.023323
449.566727
448.082551
446.570998
445.032282
443.466621
441.874214
440.255226
438.60976
436.937837
435.239357
433.514077
431.761568
429.981183
428.17202
426.332888
424.462273
422.558317
420.618801
418.64114
416.622389
414.559251
412.448124
410.285419
408.067745
405.784475
403.430805
401.003221
398.513165
395.958936
393.340907
390.656731
387.905231
385.083375
382.196278
379.250942
376.256392
373.223872
370.166757
367.100436
364.042098
361.010409
358.024907
355.109998
352.295979
349.611772
347.083666
344.733957
342.579605
340.631066
338.891465
337.356279
336.013646
334.845298
333.828009
332.935205
332.138326
331.409667
330.723027
330.040597
329.341711
328.667209
472.491635
471.463843
470.409482
469.328213
468.21971
467.083656
465.91975
464.727714
463.507296
462.258284
460.980505
459.673842
458.338234
456.973688
455.580283
454.158174
452.707599
451.228881
449.722426
448.188727
446.628357
445.041966
443.430269
441.79404
440.134091
438.451256
436.746367
435.020223
433.273564
431.507027
429.72111
427.91613
426.092172
424.249044
422.386234
420.502862
418.597645
416.66887
414.714364
412.731501
410.717202
408.66798
406.579988
404.449092
402.27145
400.043993
397.751682
395.392483
392.964212
390.484843
387.953893
385.369558
382.730984
380.037823
377.28952
374.494682
371.66373
368.808941
365.944611
363.08682
360.253183
357.46262
354.734143
352.089922
349.556825
347.159136
344.917471
342.84772
340.960189
339.259046
337.742168
336.401441
335.223426
334.190112
333.279441
332.468639
331.734985
331.034365
330.342437
329.717975
472.457681
471.361241
470.23645
469.08295
467.900397
466.688466
465.446856
464.175296
462.873555
461.541454
460.17887
458.785751
457.362128
455.908118
454.423941
452.909928
451.366521
449.794292
448.193935
446.56628
444.912286
443.233042
441.529761
439.803774
438.056512
436.289491
434.504289
432.702517
430.885787
429.05567
427.213653
425.361087
423.499138
421.628723
419.750452
417.864575
415.970919
414.068842
412.157187
410.234259
408.297805
406.345025
404.3726
402.376749
400.353321
398.297883
396.20576
394.072959
391.896591
389.658086
387.357372
384.993022
382.593158
380.158638
377.687063
375.179078
372.636466
370.05855
367.457194
364.845608
362.23821
359.650886
357.100626
354.605368
352.183214
349.850293
347.625817
345.528836
343.574265
341.772439
340.128795
338.64376
337.312855
336.126823
335.071279
334.129111
333.282375
332.495696
331.721966
331.040976
472.419753
471.246618
470.043119
468.808854
467.543442
466.246528
464.917787
463.556936
462.163741
460.738031
459.279709
457.788766
456.265293
454.709497
453.12171
451.502405
449.852208
448.171904
446.46245
444.724982
442.960817
441.171459
439.358591
437.524078
435.669949
433.798387
431.911704
430.012313
428.102697
426.185364
424.262799
422.337412
420.411475
418.487055
416.565943
414.649589
412.739021
410.834784
408.93687
407.044679
405.15697
403.271848
401.386765
399.498547
397.603453
395.697265
393.775407
391.833114
389.865602
387.868186
385.837704
383.773331
381.650876
379.473469
377.242643
374.985932
372.718853
370.438919
368.146822
365.848024
363.537297
361.228688
358.936747
356.676372
354.46283
352.311503
350.237781
348.256302
346.379943
344.619021
342.980587
341.46944
340.088498
338.836127
337.705742
336.686374
335.764516
334.921851
334.100813
333.363231
472.379001
471.123453
469.83535
468.514229
467.15965
465.771206
464.348526
462.891289
461.399237
459.872181
458.310025
456.712774
455.080554
453.413628
451.712413
449.977492
448.209634
446.40981
444.579199
442.719207
440.83147
438.917866
436.980513
435.021766
433.044217
431.050672
429.044139
427.027798
425.004964
422.979048
420.953505
418.931771
416.9172
414.912991
412.922098
410.947161
408.990413
407.053594
405.137881
403.243811
401.37123
399.519248
397.686223
395.869769
394.066783
392.273514
390.485661
388.698507
386.907094
385.106438
383.291756
381.458681
379.603302
377.724261
375.822913
373.880455
371.893554
369.870669
367.816181
365.781046
363.765265
361.766604
359.787387
357.829702
355.897614
354.006222
352.169631
350.40084
348.711639
347.112376
345.611743
344.216697
342.932318
341.761468
340.704329
339.758255
338.918336
338.176057
337.505946
336.911932
472.337144
470.996937
469.621902
468.211494
466.765197
465.28253
463.763058
462.206402
460.612254
458.98039
457.310689
455.603148
453.857903
452.075246
450.25565
448.399783
446.508528
444.583007
442.624593
440.634926
438.61593
436.569818
434.499103
432.406596
430.295404
428.168916
426.03079
423.884923
421.735416
419.586528
417.442622
415.308102
413.187333
411.08457
409.003855
406.94893
404.923141
402.929336
400.969775
399.046047
397.158993
395.308657
393.49425
391.714142
389.965893
388.246302
386.5515
384.877066
383.218167
381.569758
379.926807
378.284519