/*--------------------------------*- C++ -*----------------------------------*\
  =========                 |
  \\      /  F ield         | OpenFOAM: The Open Source CFD Toolbox
   \\    /   O peration     | Website:  https://openfoam.org
    \\  /    A nd           | Version:  8
     \\/     M anipulation  |
\*---------------------------------------------------------------------------*/
FoamFile
{
    version     2.0;
    format      ascii;
    class       volVectorField;
    location    "0.05";
    object      U;
}
// * * * * * * * * * * * * * * * * * * * * * * * * * * * * * * * * * * * * * //

dimensions      [0 1 -1 0 0 0 0];

internalField   nonuniform List<vector> 
42400
(
(-0.0181598933 0.0173671477 -9.74283319e-27)
(-0.0532104893 0.0498388868 3.20130134e-26)
(-0.0879615863 0.080778533 3.1933391e-26)
(-0.122747764 0.110467689 0)
(-0.15773578 0.139094664 0)
(-0.193014538 0.166742185 -1.36912707e-27)
(-0.228618838 0.193428001 0)
(-0.264544637 0.219130403 1.51980187e-27)
(-0.300763264 0.243803945 0)
(-0.337231697 0.267390313 1.68786189e-27)
(-0.373898867 0.289826007 1.77903664e-27)
(-0.410709242 0.311047498 -1.87533803e-27)
(-0.447604808 0.330994637 -6.78097939e-27)
(-0.484526137 0.349612958 -3.09609541e-27)
(-0.521412957 0.366855273 -2.19801271e-27)
(-0.558204453 0.382682819 0)
(-0.594839431 0.397066104 0)
(-0.631256402 0.409985556 0)
(-0.667393616 0.421432036 0)
(-0.70318903 0.431407238 0)
(-0.738580173 0.439923971 0)
(-0.773503853 0.447006316 -6.38902413e-27)
(-0.807895658 0.452689655 3.16906067e-26)
(-0.841689184 0.45702051 8.02362388e-26)
(-0.874814944 0.460056196 4.89879696e-26)
(-0.907198906 0.461864235 -7.93040916e-27)
(-0.938760611 0.462521521 -8.37376485e-27)
(-0.969410765 0.462113259 1.76869611e-26)
(-0.999048173 0.46073168 0)
(-1.02755588 0.458474614 0)
(-1.05479677 0.455443879 -8.2615649e-26)
(-1.08060951 0.451742723 -8.86605732e-26)
(-1.10480262 0.447470575 2.33299721e-26)
(-1.12714483 0.442716782 1.0079247e-25)
(-1.14735936 0.437545976 7.94823013e-26)
(-1.16521388 0.432045754 0)
(-1.18051972 0.426361433 0)
(-1.19252785 0.421197836 0)
(-1.20103678 0.415251193 0)
(-1.20504109 0.409698805 2.35545386e-25)
(-1.20520299 0.402918405 1.30437211e-25)
(-1.19911398 0.398062816 5.74346198e-26)
(-1.18643784 0.393597325 1.93794536e-25)
(-1.16566544 0.389158869 -9.06178595e-26)
(-1.13384731 0.385515166 -1.44292241e-25)
(-1.09051243 0.38054455 -4.37997887e-25)
(-1.03288788 0.375631437 1.08976738e-25)
(-0.958871638 0.370861472 3.08831383e-25)
(-0.866098955 0.36619021 1.19386958e-25)
(-0.752111234 0.361670192 5.02647634e-25)
(-0.614672121 0.357094066 6.89518071e-33)
(-0.448437022 0.352843943 -1.38943742e-24)
(-0.253878435 0.348796581 -1.3348683e-24)
(-0.0193844507 0.346512915 3.15803125e-25)
(0.248037337 0.34600786 0)
(0.57138889 0.343694035 0)
(0.951252864 0.339233124 0)
(1.39015582 0.334207736 -4.06306619e-25)
(1.8960114 0.329691159 -4.27128454e-25)
(2.47570152 0.325393551 0)
(3.13373841 0.32101194 6.44675194e-24)
(3.87463363 0.316670981 8.05728208e-24)
(4.70274467 0.312267555 -8.73360155e-24)
(5.62150534 0.308312881 -9.93836362e-24)
(6.63152508 0.307058616 0)
(7.73290651 0.303820476 0)
(8.9347712 0.296348906 -1.01064957e-23)
(10.1629256 0.344489545 -8.78784893e-24)
(11.4608434 0.341095441 -4.971418e-25)
(13.0861383 0.0745008258 0)
(14.2318207 0.381499623 0)
(15.0645018 1.21128954 -1.16078019e-25)
(17.3472506 -0.0536582896 -4.16967436e-25)
(19.1903751 -1.26226225 0)
(19.6255769 0.667802917 -1.70985701e-25)
(19.5817912 2.52155914 -4.66116449e-24)
(21.5382144 0.977723801 5.45587435e-24)
(23.059433 -0.692267723 -8.55697126e-25)
(23.4882773 -0.788613798 -3.5236635e-23)
(23.4784308 0.281379823 -1.3247718e-23)
(-0.0226388644 0.020045438 0)
(-0.0660308163 0.0576648078 2.5611326e-26)
(-0.108647394 0.0936443377 2.46175229e-26)
(-0.150854553 0.128280891 0)
(-0.19287044 0.161788466 0)
(-0.234819951 0.194277723 1.87209667e-26)
(-0.276763178 0.225791073 1.86464608e-26)
(-0.318709933 0.256325048 1.81237024e-27)
(-0.360634298 0.285845042 0)
(-0.402485952 0.314296303 2.00939447e-27)
(-0.444197989 0.341612352 2.11588475e-27)
(-0.485692214 0.367721249 -6.69178842e-27)
(-0.52688279 0.392550289 -4.96098155e-27)
(-0.567678798 0.416029546 -4.11012959e-28)
(-0.607986027 0.438094588 -5.6290476e-27)
(-0.647708182 0.458688528 -1.16737166e-27)
(-0.686747636 0.477763567 0)
(-0.725005814 0.495282129 6.08372357e-27)
(-0.762383263 0.511217687 0)
(-0.798779442 0.52555534 0)
(-0.834092233 0.538292174 0)
(-0.868217158 0.549437448 2.37802286e-26)
(-0.901046284 0.55901261 6.33484597e-26)
(-0.932466767 0.567051173 3.99960548e-26)
(-0.962358952 0.573598461 0)
(-0.990593949 0.578711195 -1.83539805e-26)
(-1.01703066 0.582456824 -9.64182362e-27)
(-1.04151199 0.58491208 2.02932829e-26)
(-1.06386004 0.586160617 6.13097006e-26)
(-1.08386816 0.586289751 6.54744312e-26)
(-1.10129036 0.58538806 -2.37170108e-26)
(-1.11586981 0.583555683 -2.48767945e-26)
(-1.12735459 0.580889538 1.23952947e-25)
(-1.13549889 0.577450213 9.17427075e-26)
(-1.13972685 0.573925251 -1.65505596e-25)
(-1.1401156 0.569631284 -2.05758458e-25)
(-1.13549262 0.565137166 0)
(-1.12604193 0.559709407 3.36140267e-26)
(-1.11014722 0.555058548 0)
(-1.08667203 0.550208768 7.59017519e-26)
(-1.05351642 0.545433136 1.86365913e-25)
(-1.00999807 0.539602608 1.63654104e-25)
(-0.954342547 0.533538289 8.69022672e-26)
(-0.884902126 0.527455763 -9.04723161e-26)
(-0.799638393 0.521417598 1.8920625e-25)
(-0.696330031 0.515260733 -9.84011195e-26)
(-0.572281238 0.508598341 1.0193877e-25)
(-0.424202394 0.501702956 3.09758394e-25)
(-0.253399606 0.49490174 6.88842893e-25)
(-0.0507922116 0.489864942 0)
(0.178808288 0.486875436 -1.22928992e-25)
(0.456197753 0.482005952 2.59341399e-25)
(0.782260941 0.474983111 5.20830557e-25)
(1.16022279 0.467473806 1.35743591e-24)
(1.5957867 0.460761756 3.04377108e-25)
(2.09623226 0.454799834 3.20424725e-24)
(2.6663346 0.449252663 3.71266747e-24)
(3.31111203 0.44433881 -3.17213693e-25)
(4.03541131 0.44027498 -3.22013795e-25)
(4.84358494 0.437109507 5.78694806e-24)
(5.73872567 0.436068329 6.73739842e-24)
(6.72219486 0.438727158 2.91118725e-25)
(7.79237587 0.445180464 -2.81519549e-25)
(8.94777523 0.452942115 0)
(10.1771902 0.465589809 -8.25095174e-24)
(11.4608402 0.48666799 -1.58937529e-23)
(12.8267186 0.474848201 -8.51889364e-24)
(14.1788978 0.517263376 0)
(15.3843145 0.718551909 3.6271725e-26)
(16.9493644 0.503380091 -1.0230306e-25)
(18.520957 0.10311319 7.29207328e-24)
(19.0404259 1.08076992 3.88279061e-24)
(19.9527698 1.7201331 -8.11578291e-24)
(21.9181905 0.0996896281 -5.0039669e-24)
(23.0822597 -0.587407483 2.53690131e-26)
(23.1217569 0.803647066 1.62263244e-23)
(23.0906796 1.78480894 2.33957621e-23)
(23.3260461 1.47993816 -2.08249279e-24)
(23.6097195 0.681196117 -8.46573522e-24)
(23.6953548 0.291288177 -1.16481227e-23)
(-0.0264210092 0.0216300961 2.91892854e-27)
(-0.0768527748 0.0623289288 7.43651047e-28)
(-0.126101132 0.101362512 -7.8639366e-28)
(-0.174569593 0.139041343 8.25795283e-28)
(-0.222499407 0.175586024 0)
(-0.270053627 0.21112933 -1.45873199e-26)
(-0.317308772 0.245733059 1.80293496e-33)
(-0.364281388 0.279407391 1.11375638e-26)
(-0.410942233 0.312125721 9.07637177e-27)
(-0.457227851 0.343835859 1.35720569e-26)
(-0.5030497 0.374468846 6.64721681e-27)
(-0.54830097 0.40394595 2.50934335e-27)
(-0.592861725 0.432184232 2.64157052e-27)
(-0.636602793 0.459101 -4.6855899e-27)
(-0.679388653 0.484617337 -8.12163679e-27)
(-0.72107946 0.508660834 9.23934312e-27)
(-0.761532301 0.531167643 9.13608049e-27)
(-0.800601818 0.552083974 3.93077126e-26)
(-0.838140234 0.571367147 2.38643114e-26)
(-0.873996879 0.5889863 7.54704885e-27)
(-0.908017245 0.604922843 -7.93321849e-27)
(-0.940041558 0.619170725 -8.33651395e-27)
(-0.96990281 0.631736544 0)
(-0.997423764 0.642639255 1.83663269e-26)
(-1.02241336 0.651909785 -5.15286713e-26)
(-1.0446619 0.659590445 3.45496897e-29)
(-1.06393854 0.665733058 6.07829311e-26)
(-1.07999229 0.670395307 6.42846813e-26)
(-1.09255814 0.673631203 6.71437815e-26)
(-1.10135934 0.675483724 -5.2497741e-26)
(-1.10597276 0.676205057 -2.51189893e-26)
(-1.10637672 0.675688095 1.81098749e-25)
(-1.10192975 0.674202748 1.90212598e-25)
(-1.09212471 0.672017112 0)
(-1.07690089 0.668846268 0)
(-1.05463604 0.66553686 -3.22795617e-26)
(-1.02402798 0.661375524 0)
(-0.983457934 0.65647591 7.14234942e-26)
(-0.93203817 0.650619919 1.39154568e-25)
(-0.868679297 0.64417296 1.53019018e-25)
(-0.791731893 0.637492352 -9.07815706e-26)
(-0.699175416 0.6305174 0)
(-0.588775011 0.623155682 0)
(-0.45872056 0.614985696 2.00193449e-25)
(-0.305467868 0.606205791 4.02324042e-25)
(-0.129038543 0.597700951 9.78595437e-26)
(0.0785148147 0.591617289 0)
(0.306513976 0.587581447 0)
(0.58850726 0.581031573 3.05845271e-25)
(0.915170386 0.571689377 5.90069784e-25)
(1.29120392 0.563036375 -1.17076128e-25)
(1.72355183 0.555706288 0)
(2.21694565 0.54935344 -6.8389953e-25)
(2.77659668 0.544073415 -1.10619351e-24)
(3.40785083 0.540122743 -2.43591319e-24)
(4.11583301 0.537670379 -2.80290913e-24)
(4.9051531 0.53741568 -3.72512135e-24)
(5.77872253 0.540605662 -2.82247596e-32)
(6.73779428 0.548178339 3.26482982e-32)
(7.78104072 0.560797411 -1.21721434e-23)
(8.9054438 0.578180874 -6.53524827e-24)
(10.1036345 0.601006708 6.61269146e-24)
(11.3616692 0.630129813 6.62468044e-24)
(12.6691122 0.66346753 0)
(14.0099178 0.696083304 6.9561909e-24)
(15.3393811 0.75893329 1.38516086e-23)
(16.6711252 0.802954599 7.5402289e-24)
(18.0414633 0.768301866 0)
(19.116245 0.952134628 -3.25966612e-26)
(20.1456608 1.22794373 7.61730794e-24)
(21.5258686 0.783786363 5.64090249e-24)
(22.552983 0.568185458 0)
(22.9371538 1.37156749 0)
(23.3318991 1.62731142 7.88356323e-25)
(23.7540574 0.990578901 -1.04188811e-24)
(23.8095109 0.89782304 1.49100528e-23)
(23.8543661 0.983225107 9.05009768e-24)
(23.7991307 1.31390718 0)
(23.686281 1.47527145 -1.66235139e-24)
(23.6731766 1.24731626 9.47806305e-24)
(-0.0295957702 0.0223618393 5.16342914e-28)
(-0.085937759 0.0644850104 8.12239251e-28)
(-0.140756625 0.104933626 7.19653917e-27)
(-0.194479402 0.144023238 -4.66524479e-27)
(-0.247388774 0.181987453 -5.84981518e-27)
(-0.299645991 0.218960829 0)
(-0.351333303 0.255015445 -8.20884575e-27)
(-0.402484609 0.2901768 -8.22613205e-27)
(-0.453056047 0.324427908 -3.69091194e-27)
(-0.50296356 0.35771898 -1.13288422e-27)
(-0.552090141 0.389980002 6.93349589e-27)
(-0.600293502 0.421128395 6.65084184e-34)
(-0.647412546 0.451075011 2.89188984e-27)
(-0.693272409 0.479729129 3.90147658e-33)
(-0.737688221 0.507002545 -3.2031715e-27)
(-0.780467724 0.532812767 2.71814181e-26)
(-0.821412849 0.557085429 -3.21665814e-26)
(-0.860320314 0.579756009 -7.43019766e-27)
(-0.896981209 0.600771022 3.52799496e-26)
(-0.931179555 0.620088831 8.19489668e-27)
(-0.962690356 0.637680412 -1.72310827e-26)
(-0.991277199 0.653529417 -5.25052564e-26)
(-1.0166872 0.667626398 -5.8390567e-26)
(-1.03864928 0.679964457 9.93205365e-27)
(-1.05687557 0.69054122 0)
(-1.07105178 0.69936515 1.08382457e-26)
(-1.08090375 0.706488299 0)
(-1.08612091 0.712004204 1.09976564e-25)
(-1.08637268 0.716053613 2.23429658e-25)
(-1.08126364 0.718869773 1.42764679e-25)
(-1.07050917 0.72042789 -1.04981381e-25)
(-1.0531182 0.721020342 -1.20233167e-25)
(-1.02782851 0.720306638 5.93437101e-26)
(-0.993682518 0.718190881 3.11054675e-26)
(-0.949206531 0.714827355 -1.31121644e-25)
(-0.893564078 0.710296061 -1.94275413e-25)
(-0.825804967 0.704895766 0)
(-0.744349075 0.698855557 2.18855825e-25)
(-0.647311328 0.692190448 1.87346915e-25)
(-0.532570783 0.684880981 7.70189726e-26)
(-0.398363137 0.676503462 8.03627272e-26)
(-0.241174712 0.667179689 0)
(-0.0592457105 0.659106188 0)
(0.143250635 0.653661288 0)
(0.38205451 0.647419357 9.1759867e-26)
(0.66472329 0.638832035 4.19878428e-25)
(0.989821126 0.629963528 4.82060317e-25)
(1.36300301 0.622457486 0)
(1.79055679 0.61632849 0)
(2.27638249 0.611317627 6.57829774e-25)
(2.8257137 0.607812927 6.83735494e-25)
(3.44403961 0.606224021 9.73807044e-25)
(4.13644801 0.607207086 1.18470517e-24)
(4.90736279 0.611578582 -2.18491879e-25)
(5.75955326 0.62030065 -1.86125081e-24)
(6.69396077 0.634107798 -1.75101867e-24)
(7.70961539 0.653570918 -4.56312187e-24)
(8.80316466 0.679327785 -5.19959178e-24)
(9.97022891 0.711182902 0)
(11.2010179 0.749099828 7.21209038e-26)
(12.4822334 0.793817656 -6.1569419e-24)
(13.7936844 0.847179828 -1.2633259e-23)
(15.1127953 0.908264509 3.95868639e-26)
(16.4181717 0.977500523 6.99920977e-26)
(17.7067164 1.03033163 -7.41976335e-24)
(18.9362069 1.09633567 7.32737321e-24)
(20.0306761 1.20861441 7.48346917e-24)
(21.1344943 1.2362946 -4.46206097e-25)
(22.0790941 1.19302341 -4.95281456e-24)
(22.854327 1.38311269 -1.15377583e-23)
(23.388366 1.47349173 8.56879693e-26)
(23.8070853 1.30379438 -1.61055507e-23)
(23.8720346 1.28219942 -6.49384684e-24)
(23.9155101 1.36666612 0)
(23.8807005 1.52416152 -7.65437201e-24)
(23.8115747 1.37027032 -3.92139702e-23)
(23.8190684 1.32063511 8.94692692e-25)
(23.8109236 1.22717924 1.83309295e-23)
(23.8157424 1.32076967 9.28932886e-24)
(23.7677943 1.36823433 1.38710185e-23)
(-0.032469297 0.0225926146 2.53128606e-27)
(-0.0941360971 0.0651178441 0)
(-0.153951457 0.105914479 0)
(-0.21236302 0.14529715 1.57405146e-30)
(-0.269671738 0.183506798 0)
(-0.326066856 0.220696678 0)
(-0.381643859 0.256945971 0)
(-0.436379592 0.292275301 -4.8416316e-27)
(-0.490234925 0.326671123 0)
(-0.543100097 0.360093978 2.69094037e-27)
(-0.594820186 0.39247814 1.33305043e-26)
(-0.645210216 0.423741543 3.73407323e-33)
(-0.69405981 0.453794258 -1.2777499e-26)
(-0.741138942 0.482543867 0)
(-0.786202431 0.509899716 -3.47382411e-27)
(-0.828992903 0.535776489 7.3132684e-27)
(-0.869242664 0.560097039 0)
(-0.906674401 0.582794317 4.39243811e-26)
(-0.940996579 0.603808244 8.50324914e-27)
(-0.971900388 0.623085128 -1.06508498e-25)
(-0.999061188 0.640579798 -7.30278705e-26)
(-1.02215944 0.656224811 9.74342869e-27)
(-1.04087002 0.670122824 0)
(-1.05489576 0.682281935 -9.80014519e-26)
(-1.0638888 0.692782353 -1.10111947e-25)
(-1.0674909 0.701731443 -1.08535465e-25)
(-1.0651092 0.70909588 -1.28118635e-25)
(-1.05589137 0.714794889 1.3481251e-25)
(-1.03912149 0.718822704 1.28404376e-25)
(-1.01393531 0.721184907 0)
(-0.979225872 0.721924441 -1.5573813e-25)
(-0.934084951 0.721218013 -1.75487298e-25)
(-0.877756205 0.719303016 3.14220873e-26)
(-0.808878031 0.716321296 -1.64387531e-25)
(-0.725969941 0.712336304 -2.07219935e-25)
(-0.627208605 0.707407614 -7.07106007e-26)
(-0.510562161 0.701585746 3.65490086e-26)
(-0.374236078 0.694561543 -2.33178564e-25)
(-0.215041188 0.686465441 -3.386557e-25)
(-0.0308862885 0.679538506 3.90996644e-25)
(0.172224339 0.674786368 5.50601664e-25)
(0.415675511 0.668905916 3.16819024e-25)
(0.697147872 0.66137602 0)
(1.02097918 0.654350529 -9.5896929e-26)
(1.39158709 0.648741853 -4.49941425e-25)
(1.81351576 0.644628238 -9.96152633e-26)
(2.29142582 0.642186259 1.97294139e-32)
(2.83057726 0.641971481 -5.44485494e-25)
(3.43633831 0.644596563 0)
(4.11340788 0.650767262 -1.08293507e-25)
(4.8657868 0.661128545 -1.26452681e-24)
(5.69601005 0.676447838 -1.23671419e-24)
(6.60513672 0.697393058 -3.86718548e-25)
(7.59247427 0.72458801 -2.11859989e-24)
(8.65550826 0.758695924 -2.09455662e-24)
(9.78919645 0.800388144 -2.48018361e-24)
(10.9870857 0.849378486 -7.95536158e-24)
(12.2371203 0.905602475 -5.57477384e-24)
(13.5232033 0.969654334 -5.85797025e-24)
(14.8246857 1.04003033 -6.17281732e-24)
(16.1239925 1.11585918 0)
(17.3892716 1.19800082 8.99463598e-26)
(18.6030954 1.28333472 -6.74946307e-24)
(19.726193 1.3703765 -7.42688671e-24)
(20.7892318 1.44208695 -3.80425953e-26)
(21.7551328 1.48764634 0)
(22.5810175 1.55481215 1.06011289e-23)
(23.1974768 1.61174573 1.37116789e-23)
(23.7025097 1.60362772 6.53968744e-25)
(23.8332809 1.61484877 -6.7184458e-25)
(23.8900195 1.62194763 -1.66870722e-26)
(23.8850617 1.62495408 -8.67449881e-25)
(23.8706112 1.63609064 -8.74147737e-24)
(23.8576177 1.5689574 -1.09285568e-23)
(23.8644187 1.56819733 -3.49725326e-25)
(23.8211433 1.53562373 0)
(23.7965469 1.58758687 -9.43626109e-24)
(23.7826075 1.49450974 -1.2059676e-23)
(23.7982368 1.39646202 0)
(23.799222 1.35820788 -1.09885829e-23)
(-0.0353158521 0.0225694061 -3.88009428e-27)
(-0.102208881 0.0649443384 -5.12498593e-27)
(-0.166877167 0.105477236 -6.68339536e-27)
(-0.22978423 0.144477701 -1.06498319e-27)
(-0.291242491 0.182189128 3.41638275e-27)
(-0.35144325 0.218771216 -2.36909382e-27)
(-0.410471301 0.254316343 1.55497842e-27)
(-0.468323646 0.288855941 -2.28698526e-27)
(-0.524883281 0.322373036 2.78041133e-27)
(-0.579991116 0.354827325 5.86447096e-27)
(-0.633476023 0.386157233 -3.89781711e-27)
(-0.685088066 0.416294072 -2.85084064e-26)
(-0.734553042 0.445151815 -2.45037125e-26)
(-0.781571584 0.472641748 -2.69758002e-26)
(-0.825822117 0.498677476 3.79701743e-27)
(-0.86696277 0.523179857 5.25485334e-26)
(-0.904632508 0.546078598 0)
(-0.938476652 0.567272392 0)
(-0.968111469 0.58679815 6.29115419e-26)
(-0.993195996 0.60461381 1.58378199e-25)
(-1.01332526 0.620744216 8.90255488e-26)
(-1.0279077 0.635092403 1.03282829e-25)
(-1.0364701 0.647631248 3.37971933e-33)
(-1.0383911 0.658386594 -1.37030256e-25)
(-1.03298871 0.667355817 1.24146809e-25)
(-1.01947474 0.674526922 2.9675367e-25)
(-0.997119617 0.680046477 1.48368982e-25)
(-0.965192785 0.684053584 -1.39420643e-26)
(-0.922665211 0.686607426 1.45435736e-26)
(-0.868386719 0.687773775 -3.03110252e-26)
(-0.80107031 0.687629139 0)
(-0.719244861 0.686262922 2.5898465e-25)
(-0.621124204 0.683780569 -3.43470507e-26)
(-0.504746997 0.680286605 -2.35076699e-25)
(-0.368312423 0.675584838 0)
(-0.208927797 0.669840326 -3.85494265e-25)
(-0.0243656927 0.665046783 -3.17147007e-25)
(0.179980957 0.66196621 0)
(0.423730618 0.658007235 0)
(0.704391651 0.652816146 -3.25359168e-25)
(1.02588792 0.64855272 -4.20487027e-25)
(1.39258266 0.645995197 1.90379199e-25)
(1.80865435 0.645264767 0)
(2.27877887 0.646815464 4.09742369e-25)
(2.807949 0.651240571 1.0414116e-24)
(3.40096088 0.659205969 5.40876275e-25)
(4.06214591 0.671407973 1.09126877e-25)
(4.79525338 0.68847551 -2.07224536e-27)
(5.60275588 0.711147277 0)
(6.48588025 0.740155026 -1.26536546e-24)
(7.44425446 0.776187657 -1.96643237e-25)
(8.47559548 0.819815464 1.65936228e-24)
(9.57552377 0.871461294 -1.56481201e-25)
(10.7372277 0.931360448 -2.47618904e-24)
(11.9524759 0.998754597 -5.06951642e-24)
(13.2084 1.07312564 -7.06130787e-33)
(14.4868839 1.15448448 2.83956893e-24)
(15.7668036 1.24196936 0)
(17.0257076 1.33458129 0)
(18.2388378 1.42871319 8.56911113e-26)
(19.3894787 1.5201886 1.18213109e-25)
(20.4435808 1.61230212 0)
(21.3912313 1.69979244 6.86327308e-24)
(22.1975739 1.76876222 7.13768012e-24)
(22.9531343 1.81057065 -1.10252972e-23)
(23.5033028 1.83859493 -2.70107317e-23)
(23.7778598 1.83943853 -1.16526867e-23)
(23.8692621 1.90160832 -6.52810866e-24)
(23.8538367 1.91650187 -7.51402217e-24)
(23.8545629 1.91301115 -2.72480361e-25)
(23.8451841 1.89432469 7.58842409e-24)
(23.8630723 1.79863164 6.47745022e-24)
(23.8608792 1.74300825 -1.36283684e-23)
(23.8534075 1.73482116 -9.08008598e-24)
(23.8479861 1.6667923 -1.20703113e-23)
(23.8279071 1.68357749 -9.59937098e-24)
(23.7990146 1.66429537 -1.05973092e-23)
(23.7690526 1.64513512 5.9106241e-32)
(23.7621696 1.65751447 1.68731342e-23)
(23.7669276 1.5851368 2.0639234e-23)
(-0.0383572642 0.0224407322 2.01399584e-27)
(-0.110746806 0.0644055914 1.05341353e-27)
(-0.180418824 0.104358271 4.50606347e-27)
(-0.247843127 0.142599852 -1.83950267e-33)
(-0.313331516 0.179373246 -2.75382789e-27)
(-0.377065256 0.214840236 -3.78281444e-27)
(-0.439107237 0.249096916 1.28653455e-27)
(-0.499415049 0.28218727 -2.88102703e-28)
(-0.557862037 0.314111407 4.52736465e-27)
(-0.614243898 0.344826699 6.70108562e-27)
(-0.668249051 0.374279327 9.75283386e-27)
(-0.719591463 0.402392772 9.78517014e-27)
(-0.767926642 0.429098036 1.70026294e-26)
(-0.8128674 0.454326802 2.4720836e-26)
(-0.854002028 0.478007561 4.15939287e-27)
(-0.890891877 0.500074058 4.37089088e-27)
(-0.923070521 0.520468627 6.97179492e-26)
(-0.950019073 0.539184912 8.3209269e-26)
(-0.971252443 0.556137541 -1.00728684e-26)
(-0.986150716 0.571331813 -1.06265142e-26)
(-0.994075039 0.584729305 1.04963515e-25)
(-0.994405661 0.596443091 1.1630886e-25)
(-0.986421835 0.6064565 0)
(-0.969279452 0.614819709 1.28600614e-26)
(-0.942061903 0.62157017 0)
(-0.903749111 0.626768693 0)
(-0.853201286 0.63049294 1.47240124e-26)
(-0.789127829 0.632847865 -2.48207031e-25)
(-0.710054497 0.633956268 -2.18869993e-25)
(-0.614257308 0.633949815 2.16174664e-25)
(-0.499853699 0.632962762 2.53699703e-25)
(-0.365041796 0.630891656 3.59910981e-26)
(-0.207183391 0.62793154 -3.76172737e-26)
(-0.0239910046 0.625767718 0)
(0.180104352 0.62495073 4.02340588e-26)
(0.422383127 0.623612683 0)
(0.700653145 0.621556369 0)
(1.01839592 0.620800673 4.64243644e-26)
(1.37994782 0.62205704 0)
(1.78920852 0.625515606 0)
(2.25055209 0.631709095 4.9926159e-25)
(2.76859052 0.641257838 6.4700836e-25)
(3.34771109 0.654858881 0)
(3.99194587 0.673226474 0)
(4.70487173 0.697046724 0)
(5.48898029 0.727152725 1.11768188e-25)
(6.3456227 0.76435769 1.08026591e-25)
(7.27466704 0.809386295 1.03515946e-24)
(8.27416531 0.862817508 1.34217607e-24)
(9.34009394 0.925032042 1.59282017e-24)
(10.4661342 0.996155267 1.902584e-24)
(11.6437017 1.07597704 2.17606648e-24)
(12.8624677 1.16343146 2.47175994e-24)
(14.1090284 1.25683585 0)
(15.3649307 1.35490921 0)
(16.6093929 1.45620686 -3.08238756e-24)
(17.8189097 1.55871631 -6.53856117e-24)
(18.9699135 1.6612069 -3.51172749e-24)
(20.0377205 1.75965076 -3.7512256e-24)
(21.0043522 1.85305346 -3.64712143e-24)
(21.8486099 1.92700241 8.78348522e-24)
(22.5685919 1.9975265 1.79657777e-23)
(23.1241734 2.03671206 2.39262323e-25)
(23.5970201 2.06109944 -1.10701355e-23)
(23.7874018 2.10573126 2.41110001e-25)
(23.8253259 2.08722088 -4.87636784e-25)
(23.8541264 2.09788473 6.22836069e-24)
(23.849677 2.07241353 -4.75381103e-32)
(23.8564635 2.06274552 -7.28883262e-24)
(23.8509872 2.04298192 -3.5790973e-25)
(23.8135596 2.03891256 1.10595185e-23)
(23.7920049 2.05342418 7.43608407e-24)
(23.7899121 1.97800722 0)
(23.8186538 1.89498122 2.84281144e-25)
(23.8110765 1.82556229 0)
(23.8129535 1.75085512 1.19348814e-23)
(23.8038214 1.72118059 2.42857975e-23)
(23.7857682 1.69227132 1.23421495e-23)
(23.7758124 1.67677617 1.02484458e-23)
(23.7661492 1.64676976 3.04351207e-23)
(-0.0415814355 0.0221836929 1.93299312e-27)
(-0.119656347 0.063462552 5.86667113e-27)
(-0.194339783 0.102538639 -1.2411606e-27)
(-0.266097315 0.139702327 -3.18530036e-27)
(-0.335226891 0.175191983 -1.3400853e-27)
(-0.401883925 0.209168085 -7.86233623e-28)
(-0.466092299 0.241727212 -3.07123029e-27)
(-0.527757925 0.272915138 -8.78755317e-27)
(-0.586688201 0.302740049 -1.18522555e-26)
(-0.642611143 0.331183841 -1.50270248e-26)
(-0.695198474 0.358199882 0)
(-0.744019793 0.383753407 -7.96469215e-27)
(-0.788611621 0.407751244 4.19676156e-27)
(-0.828466715 0.430149355 0)
(-0.86304292 0.450898969 0)
(-0.891757277 0.469959928 0)
(-0.913985137 0.487304143 0)
(-0.929056155 0.502920311 -5.3821075e-27)
(-0.936246038 0.516811476 0)
(-0.934761449 0.52899899 -7.60554263e-26)
(-0.923765059 0.539502444 -8.38323471e-26)
(-0.902292727 0.548394904 1.4579863e-25)
(-0.869316935 0.555732825 1.75416824e-25)
(-0.823681532 0.561615884 -1.78310046e-25)
(-0.76410021 0.566156079 -2.25216782e-25)
(-0.689129301 0.569483348 -2.28844828e-25)
(-0.597112099 0.571747009 -2.29707733e-25)
(-0.486232 0.573110473 -2.89233958e-25)
(-0.354690147 0.573550959 -5.58538387e-25)
(-0.200049228 0.573280188 -3.41412949e-25)
(-0.0199308456 0.573693174 0)
(0.181987474 0.575238779 -3.99084004e-26)
(0.420822274 0.576652893 -4.22441745e-26)
(0.69478528 0.577875309 0)
(1.00699714 0.580703562 4.55843577e-26)
(1.36166835 0.58577423 0)
(1.76240885 0.593339164 0)
(2.21327695 0.603987408 5.54992438e-25)
(2.71852788 0.61837952 -5.308659e-26)
(3.2822339 0.63724538 -5.89727785e-25)
(3.90819337 0.661358436 7.03439933e-25)
(4.59980607 0.69148338 7.11851816e-25)
(5.3595613 0.728472375 5.75463989e-26)
(6.18892258 0.773153704 0)
(7.08803582 0.826270382 8.97601039e-25)
(8.05541877 0.888436636 1.27128118e-24)
(9.08766925 0.960093574 0)
(10.1791932 1.04144112 0)
(11.321995 1.13236416 -1.95304041e-24)
(12.5057673 1.23235258 -2.26887454e-24)
(13.7179457 1.34038861 2.49557794e-24)
(14.9444423 1.45407022 2.59857058e-24)
(16.1661939 1.57177279 -2.82325088e-24)
(17.3619623 1.69104535 -4.15174662e-33)
(18.5095938 1.80818923 3.20231985e-24)
(19.5875533 1.91953337 1.71790105e-26)
(20.5758831 2.02346259 0)
(21.4514171 2.11792102 2.11048282e-26)
(22.204012 2.20292817 -4.26283774e-24)
(22.8184907 2.2731885 1.36804034e-25)
(23.2845552 2.32341002 4.46814088e-24)
(23.6307677 2.34064408 0)
(23.8514254 2.350699 2.452791e-25)
(23.8602993 2.35638764 0)
(23.8132504 2.34125654 1.97763089e-25)
(23.8084974 2.3248878 -1.13883012e-25)
(23.8304126 2.23895107 -4.55477442e-25)
(23.8489174 2.17682379 -8.87151618e-24)
(23.8511563 2.13141776 -1.16014731e-23)
(23.8591397 2.10584373 -2.56051943e-25)
(23.8223937 2.12409723 -1.04164479e-23)
(23.7758753 2.09785832 -1.01452606e-23)
(23.7344737 2.10268915 -1.14640324e-23)
(23.7052993 2.0963612 -1.13319474e-23)
(23.7241455 2.05405826 -8.40829004e-24)
(23.7372168 1.98036701 -1.02591392e-23)
(23.7452904 1.93693747 1.00561238e-23)
(23.7478471 1.90089213 1.01586931e-23)
(23.7735503 1.82308511 -7.9712893e-25)
(23.7834201 1.77299482 7.46682009e-25)
(-0.0447206598 0.0216519108 1.55009728e-27)
(-0.128125857 0.0617219948 -5.83309859e-27)
(-0.207263254 0.099424577 -1.39897153e-27)
(-0.282579797 0.135039604 -1.43934695e-33)
(-0.354343105 0.168798252 1.10922998e-27)
(-0.42266447 0.200858623 -1.63759859e-27)
(-0.487509664 0.231318767 6.5274765e-27)
(-0.548709256 0.260237902 2.75413214e-33)
(-0.605982701 0.287618188 -2.39019228e-26)
(-0.658941349 0.31345521 -1.79373244e-26)
(-0.707114183 0.337721786 4.24905139e-27)
(-0.749964044 0.360364065 -3.06321374e-26)
(-0.786865956 0.381368297 -2.62475832e-26)
(-0.817169737 0.400689152 -3.6474971e-26)
(-0.840160638 0.418308602 -4.24659803e-26)
(-0.85506809 0.434221673 4.88839466e-26)
(-0.861063521 0.448438859 5.58921278e-26)
(-0.8572459 0.460997427 -5.98344692e-27)
(-0.842679339 0.471930792 0)
(-0.816254927 0.481337294 -7.22274378e-26)
(-0.776830103 0.489284014 -8.76403383e-26)
(-0.723121875 0.495897639 -1.45865258e-26)
(-0.653714502 0.501319379 1.06244691e-25)
(-0.567009744 0.505714402 1.31536755e-25)
(-0.461254815 0.509270627 -3.32882388e-26)
(-0.334671407 0.512038593 0)
(-0.184997937 0.514248976 1.83515593e-26)
(-0.00981122388 0.517047545 2.07250494e-28)
(0.187969164 0.520819158 -3.28332031e-25)
(0.42133083 0.524808501 -3.32435826e-25)
(0.688855706 0.529069471 3.97952979e-25)
(0.993646953 0.535127933 3.62890418e-25)
(1.33950146 0.543600908 -9.41044868e-26)
(1.72981932 0.554817046 -4.23982305e-25)
(2.16837801 0.569406421 -3.62306352e-32)
(2.65911314 0.588069593 5.46114547e-25)
(3.2058118 0.611561927 -6.45476717e-25)
(3.81203945 0.640679866 -6.42823386e-25)
(4.48101546 0.676219247 -1.15319996e-25)
(5.21521903 0.719026538 5.89455209e-26)
(6.01623192 0.769929973 5.83444584e-26)
(6.88449424 0.829681409 -9.54257808e-25)
(7.81901482 0.898914077 -2.10210976e-24)
(8.8170833 0.978098713 -1.23305327e-24)
(9.87399251 1.06748226 -1.52470575e-24)
(10.9828022 1.16702094 -1.63998645e-24)
(12.1341944 1.27632102 0)
(13.3164451 1.39459274 2.11792437e-24)
(14.5155125 1.52070691 2.4653201e-24)
(15.7162737 1.65232565 2.62676292e-24)
(16.8998982 1.78733621 5.50975867e-24)
(18.0455568 1.9230979 5.7167615e-24)
(19.1316003 2.0568572 5.90740992e-24)
(20.1370275 2.18570916 6.07568459e-24)
(21.0440395 2.30589852 2.99636491e-24)
(21.8384038 2.40824407 -1.44018887e-25)
(22.5213509 2.49694812 0)
(23.0879678 2.57016027 -3.65572059e-24)
(23.5105342 2.63221825 -4.69212686e-24)
(23.7477552 2.67645625 0)
(23.8790194 2.70740783 -5.16678231e-24)
(23.9037404 2.72037425 -4.83767613e-24)
(23.8961125 2.71414904 0)
(23.8536534 2.69148419 -1.23477249e-25)
(23.7933407 2.6861661 0)
(23.7527281 2.67641003 -9.03254883e-24)
(23.7697782 2.58176128 -3.79517658e-25)
(23.7850898 2.48668934 8.69690102e-24)
(23.8078179 2.38864087 -4.56192502e-25)
(23.8182934 2.28468059 -6.14777358e-25)
(23.8091498 2.24449354 -9.9780623e-24)
(23.7520145 2.24790109 -1.11325198e-23)
(23.7321823 2.18494016 -4.18425593e-25)
(23.7176083 2.1402239 -6.78998305e-25)
(23.7085485 2.13960132 -4.54783849e-26)
(23.7283099 2.08361674 -5.06113417e-25)
(23.7524963 2.03480598 1.3595389e-23)
(23.7534639 2.01826148 2.04493004e-23)
(23.7669017 2.02486016 8.3598156e-24)
(23.7652785 1.9627229 -8.95223342e-25)
(-0.0474086029 0.0207051795 0)
(-0.135036413 0.0587902928 -1.50002205e-27)
(-0.217277605 0.0943949426 1.58094579e-27)
(-0.294536676 0.127792089 -4.34288075e-27)
(-0.367025459 0.159201768 1.75715837e-27)
(-0.434778579 0.188782129 1.8514513e-27)
(-0.497665339 0.216635237 -1.21437783e-26)
(-0.555406786 0.242811104 0)
(-0.607577537 0.26734425 4.31606574e-27)
(-0.653656557 0.290233863 -2.45317834e-26)
(-0.693022503 0.311475247 -2.48563327e-26)
(-0.72496786 0.331060122 3.51536436e-26)
(-0.7487084 0.348983837 5.30155197e-27)
(-0.763387677 0.365253386 -8.97398059e-26)
(-0.768078829 0.379887323 -1.0958268e-25)
(-0.761766948 0.392945555 -5.5917025e-26)
(-0.743423601 0.404459741 -6.44646373e-27)
(-0.711789068 0.414558944 -7.80133388e-26)
(-0.665617475 0.423320484 -8.00112048e-26)
(-0.603503548 0.430901457 7.39763878e-27)
(-0.523899334 0.437475612 -7.81611182e-27)
(-0.425115827 0.443246024 -3.25633219e-26)
(-0.305406973 0.448322718 -1.25032269e-25)
(-0.162661287 0.452952233 -2.9546331e-25)
(0.00554481414 0.45807258 -1.56932424e-25)
(0.197036291 0.464025177 -1.94120206e-26)
(0.422779035 0.470467481 -1.21868949e-25)
(0.681762308 0.477546476 2.13054469e-26)
(0.977039381 0.486549699 -2.22468131e-26)
(1.31204925 0.498080563 -1.92931659e-25)
(1.68999156 0.512541074 0)
(2.11437202 0.530588304 -5.22112328e-25)
(2.58881993 0.552941197 -5.23528667e-26)
(3.11685811 0.58036859 6.32791304e-25)
(3.70183233 0.613677658 6.85480479e-25)
(4.34679418 0.653680887 7.42210916e-25)
(5.05420119 0.701217526 -5.92028579e-26)
(5.82573151 0.757111616 0)