/*--------------------------------*- C++ -*----------------------------------*\
  =========                 |
  \\      /  F ield         | OpenFOAM: The Open Source CFD Toolbox
   \\    /   O peration     | Website:  https://openfoam.org
    \\  /    A nd           | Version:  8
     \\/     M anipulation  |
\*---------------------------------------------------------------------------*/
FoamFile
{
    version     2.0;
    format      ascii;
    class       surfaceScalarField;
    location    "0.042";
    object      phi;
}
// * * * * * * * * * * * * * * * * * * * * * * * * * * * * * * * * * * * * * //

dimensions      [1 0 -1 0 0 0 0];

internalField   nonuniform List<scalar> 
84340
(
-7.21541367e-08
3.46909804e-07
-2.74766256e-07
-2.89133733e-07
1.07256441e-06
-8.55601813e-07
-6.55887925e-07
1.84771471e-06
-1.48098124e-06
-1.17729254e-06
2.66694544e-06
-2.14556476e-06
-1.85839285e-06
3.52727852e-06
-2.84620501e-06
-2.70447005e-06
4.4274164e-06
-3.58136875e-06
-3.72109678e-06
5.36747767e-06
-4.35088328e-06
-4.91413783e-06
6.34863099e-06
-5.15562524e-06
-6.28971912e-06
7.3727178e-06
-5.997175e-06
-7.85417437e-06
8.44193033e-06
-6.87751708e-06
-9.61397384e-06
9.5585759e-06
-7.79882224e-06
-1.15756377e-05
1.07249112e-05
-8.76329736e-06
-1.37456372e-05
1.19430373e-05
-9.77309222e-06
-1.61302864e-05
1.32148428e-05
-1.08302529e-05
-1.87356138e-05
1.45419734e-05
-1.19367102e-05
-2.15672375e-05
1.59258383e-05
-1.30942842e-05
-2.46302096e-05
1.7367616e-05
-1.43047186e-05
-2.7928864e-05
1.88682721e-05
-1.55696978e-05
-3.14666367e-05
2.04285809e-05
-1.68908933e-05
-3.52458736e-05
2.20491358e-05
-1.8269989e-05
-3.92676151e-05
2.3730359e-05
-1.97087116e-05
-4.35313574e-05
2.54724998e-05
-2.12088552e-05
-4.80347787e-05
2.72756174e-05
-2.27722959e-05
-5.27734461e-05
2.91395591e-05
-2.44009926e-05
-5.77404648e-05
3.10639069e-05
-2.60969877e-05
-6.29260945e-05
3.30479172e-05
-2.7862384e-05
-6.8317314e-05
3.50904257e-05
-2.96992964e-05
-7.38973233e-05
3.71897349e-05
-3.16098068e-05
-7.96449805e-05
3.93434576e-05
-3.35958681e-05
-8.55341455e-05
4.15483094e-05
-3.56591949e-05
-9.1532951e-05
4.3799897e-05
-3.78011191e-05
-9.7603147e-05
4.60926002e-05
-4.00224041e-05
-0.000103699601
4.84195288e-05
-4.23230398e-05
-0.000109770324
5.07727396e-05
-4.47019421e-05
-0.000115756508
5.31429584e-05
-4.71566512e-05
-0.00012158947
5.55167363e-05
-4.96835961e-05
-0.000127176481
5.78664131e-05
-5.22791587e-05
-0.000132414234
6.01780418e-05
-5.49399774e-05
-0.000137202186
6.24465654e-05
-5.76582217e-05
-0.000141464781
6.46532398e-05
-6.03901614e-05
-0.000145051244
6.67241849e-05
-6.3137159e-05
-0.000147710647
6.8567576e-05
-6.59075199e-05
-0.000149164685
7.01198936e-05
-6.86650804e-05
-0.000149106641
7.12978751e-05
-7.13550152e-05
-0.000147220561
7.20152087e-05
-7.39002473e-05
-0.000143215465
7.21574601e-05
-7.61613716e-05
-0.000136678324
7.15911706e-05
-7.81269867e-05
-0.000127164164
7.01636879e-05
-7.96763626e-05
-0.000114175196
6.77229551e-05
-8.07102704e-05
-9.72085702e-05
6.40951782e-05
-8.10599613e-05
-7.56495542e-05
5.89801141e-05
-8.05370898e-05
-4.89735663e-05
5.23050535e-05
-7.89787642e-05
-1.6980203e-05
4.41886304e-05
-7.61794667e-05
2.1021798e-05
3.37831136e-05
-7.17822531e-05
6.61532168e-05
2.06774336e-05
-6.58056772e-05
0.000119594129
4.44075702e-06
-5.78780845e-05
0.000182684541
-1.50329667e-05
-4.80532783e-05
0.000256875635
-3.91236766e-05
-3.50624662e-05
0.000343620094
-6.79204771e-05
-1.88182237e-05
0.000444819504
-0.000102455662
1.26307955e-06
0.000562493394
-0.000143128626
2.546269e-05
0.000698848798
-0.000190954097
5.46081644e-05
0.000855394504
-0.000246988536
9.04538613e-05
0.00103428832
-0.000312206087
0.000133325291
0.0012382111
-0.000387659615
0.000183751601
0.00146887183
-0.000473578562
0.000242933572
0.0017292782
-0.000574094671
0.000313703146
0.00202714913
-0.000695770949
0.00039791414
0.00235586946
-0.000818922486
0.000490214813
0.00271397685
-0.000974090182
0.000615994183
0.00314595055
-0.00118354449
0.000751580575
0.00362713911
-0.00129233731
0.000811157405
0.00401175514
-0.00142836939
0.0010437603
0.0044154999
-0.00181955476
0.00141581548
0.0051140585
-0.00208591147
0.00138735571
0.00588577118
-0.00208252448
0.0013108111
0.00634173195
-0.00223073087
0.00177476327
0.00658136737
-0.00259680568
0.00235715696
0.00686861258
-0.00285093679
0.00256363118
-0.00298011426
0.00254319979
0.00730544819
-5.85238155e-08
4.05368952e-07
-2.34565295e-07
1.24851354e-06
-5.32048227e-07
2.14509077e-06
-9.54759807e-07
3.08953688e-06
-1.50640597e-06
4.07879228e-06
-2.19089919e-06
5.1117655e-06
-3.01231669e-06
6.18873956e-06
-3.97489218e-06
7.31103932e-06
-5.08296824e-06
8.48061496e-06
-6.34092474e-06
9.69969585e-06
-7.75308635e-06
1.09705342e-05
-9.323615e-06
1.22952236e-05
-1.10563861e-05
1.36755791e-05
-1.29548492e-05
1.5113063e-05
-1.50218824e-05
1.66087499e-05
-1.72596168e-05
1.81633018e-05
-1.96692566e-05
1.97769706e-05
-2.22508761e-05
2.14495916e-05
-2.50031889e-05
2.3180579e-05
-2.79233006e-05
2.49689178e-05
-3.10064287e-05
2.68131424e-05
-3.42455849e-05
2.87112963e-05
-3.76312317e-05
3.06608895e-05
-4.11508868e-05
3.26588244e-05
-4.47886815e-05
3.4701297e-05
-4.85248695e-05
3.67836857e-05
-5.23352581e-05
3.89003807e-05
-5.61905875e-05
4.10446161e-05
-6.00559119e-05
4.32083202e-05
-6.389009e-05
4.53820117e-05
-6.76450556e-05
4.75543742e-05
-7.12650792e-05
4.97121225e-05
-7.46843667e-05
5.18383031e-05
-7.78237369e-05
5.39115823e-05
-8.05977108e-05
5.59163956e-05
-8.29212902e-05
5.78397746e-05
-8.47132144e-05
5.96577936e-05
-8.58311671e-05
6.12954423e-05
-8.60698689e-05
6.26847059e-05
-8.5179144e-05
6.37619485e-05
-8.28977816e-05
6.44422561e-05
-7.8970653e-05
6.46398784e-05
-7.31020441e-05
6.42507204e-05
-6.49713457e-05
6.31666247e-05
-5.42109325e-05
6.12542649e-05
-4.04241329e-05
5.83701627e-05
-2.31200038e-05
5.42865877e-05
-1.91451981e-06
4.89578155e-05
2.37037839e-05
4.21043395e-05
5.38616629e-05
3.39371004e-05
8.95146916e-05
2.33270273e-05
0.000131535141
1.028474e-05
0.000181014287
-5.29015376e-06
0.000239211676
-2.44135795e-05
0.000307656456
-4.77662648e-05
0.000387707138
-7.56082992e-05
0.000481114764
-0.000108438352
0.000589046455
-0.000147052282
0.000713396819
-0.000192266835
0.000855918536
-0.000244972112
0.00101887392
-0.000306077458
0.00120466491
-0.000376736898
0.00141557699
-0.000457891172
0.00165368958
-0.000550308282
0.00192126785
-0.000655227661
0.00221828343
-0.000770583875
0.00254298496
-0.000898786542
0.00290400131
-0.00105677788
0.00330596666
-0.00122087931
0.00371932799
-0.00138744335
0.00415156361
-0.00161577296
0.00469086306
-0.00183163007
0.00522114821
-0.00195864913
0.00558266845
-0.0021810704
0.00596924019
-0.00247248094
0.00651616606
-0.00262945103
0.0069946071
-0.00270917772
0.00722342279
-0.00282563466
0.00733593071
-0.00296346327
-0.00310450563
0.00746028661
-4.66068858e-08
4.5199068e-07
-1.86534181e-07
1.3884638e-06
-4.22378179e-07
2.38096256e-06
-7.56531506e-07
3.42372197e-06
-1.19124559e-06
4.51354133e-06
-1.72861747e-06
5.64917481e-06
-2.3708259e-06
6.83098732e-06
-3.12011863e-06
8.06037267e-06
-3.97867688e-06
9.33921457e-06
-4.94852237e-06
1.06695828e-05
-6.03140184e-06
1.20534547e-05
-7.22865338e-06
1.34925151e-05
-8.54105742e-06
1.49880214e-05
-9.96867093e-06
1.65407123e-05
-1.15106429e-05
1.81507548e-05
-1.31650174e-05
1.98177055e-05
-1.49285047e-05
2.1540483e-05
-1.67962416e-05
2.33173488e-05
-1.8761516e-05
2.51458688e-05
-2.0815467e-05
2.70228789e-05
-2.29467481e-05
2.89444284e-05
-2.51411432e-05
3.0905691e-05
-2.73811321e-05
3.29008734e-05
-2.96453747e-05
3.4923058e-05
-3.1908141e-05
3.69640516e-05
-3.41386789e-05
3.90142102e-05
-3.63006022e-05
4.10622912e-05
-3.83511699e-05
4.30951732e-05
-4.02403632e-05
4.50975087e-05
-4.1912159e-05
4.70538106e-05
-4.33033734e-05
4.89456042e-05
-4.43453568e-05
5.07541366e-05
-4.49688735e-05
5.24618713e-05
-4.50728516e-05
5.40156363e-05
-4.45282484e-05
5.53718989e-05
-4.3164776e-05
5.64764443e-05
-4.0771057e-05
5.72642603e-05
-3.71345233e-05
5.76591427e-05
-3.20249764e-05
5.75754521e-05
-2.51736925e-05
5.6911023e-05
-1.63139501e-05
5.55829447e-05
-5.13870328e-06
5.34651401e-05
8.69096895e-06
5.04216413e-05
2.56071303e-05
4.62511465e-05
4.59916558e-05
4.08705201e-05
6.99564954e-05
3.44062137e-05
9.82393815e-05
2.60047107e-05
0.00013157456
1.56237552e-05
0.000170765468
2.91466168e-06
0.00021675693
-1.20529428e-05
0.000270645865
-3.05602747e-05
0.000333706924
-5.27744241e-05
0.000407549107
-7.91301445e-05
0.000493317645
-0.000110179531
0.000592153741
-0.00014659933
0.000705607
-0.000189057922
0.000835458955
-0.000238285991
0.0009835819
-0.000295170052
0.00115186722
-0.000360546112
0.00134243458
-0.000435532292
0.00155760081
-0.000521235791
0.00179958109
-0.000618708929
0.00207044346
-0.000728745452
0.00237083961
-0.000850696268
0.00270139082
-0.000985771019
0.00306156079
-0.00113074594
0.00344481023
-0.00128202851
0.00384552747
-0.00145748761
0.00427717682
-0.00165252158
0.00473401966
-0.00184427897
0.00516136777
-0.00204311431
0.00558720713
-0.00225746277
0.00604333854
-0.0024147744
0.00639851366
-0.00253623929
0.00659681128
-0.0026707731
0.00675889078
-0.00279152577
0.00695567045
-0.00290595551
0.00714539545
-0.00301536303
0.00729574784
-0.00311382447
-0.00321044389
0.00740167218
-3.93206159e-08
4.91223654e-07
-1.56399162e-07
1.50541608e-06
-3.52302001e-07
2.57671877e-06
-6.27705064e-07
3.69896021e-06
-9.83158256e-07
4.86881321e-06
-1.41898852e-06
6.08480837e-06
-1.93525843e-06
7.34704576e-06
-2.53179426e-06
8.65668247e-06
-3.20832057e-06
1.00155003e-05
-3.96417314e-06
1.14251802e-05
-4.79815148e-06
1.2887163e-05
-5.70836077e-06
1.44024393e-05
-6.6920262e-06
1.59713865e-05
-7.74529947e-06
1.75936697e-05
-8.86304162e-06
1.92681654e-05
-1.00385769e-05
2.09928933e-05
-1.12634306e-05
2.27649733e-05
-1.2527027e-05
2.45805654e-05
-1.38163642e-05
2.643481e-05
-1.51156257e-05
2.83217277e-05
-1.6405707e-05
3.02340803e-05
-1.76636847e-05
3.21632221e-05
-1.88622775e-05
3.40990025e-05
-1.99694011e-05
3.60297e-05
-2.09484894e-05
3.79426401e-05
-2.17582961e-05
3.98234972e-05
-2.23528279e-05
4.16562857e-05
-2.26815325e-05
4.34233211e-05
-2.26791698e-05
4.50945698e-05
-2.22654778e-05
4.66395209e-05
-2.13452358e-05
4.80247415e-05
-1.98028782e-05
4.92111319e-05
-1.74897592e-05
5.01480799e-05
-1.42513376e-05
5.07765151e-05
-9.90907335e-06
5.10289082e-05
-4.25608256e-06
5.08226923e-05
2.94635459e-06
5.00610278e-05
1.19350756e-05
4.86695927e-05
2.29785778e-05
4.65310898e-05
3.63718739e-05
4.35168348e-05
5.25052919e-05
3.94486079e-05
7.17497938e-05
3.42196896e-05
9.42388296e-05
2.79316332e-05
0.000120679558
1.9809449e-05
0.000151713954
9.83516727e-06
0.000188128046
-2.0088409e-06
0.000230778226
-1.66464162e-05
0.000280688584
-3.42874996e-05
0.00033892037
-5.53179433e-05
0.000407004971
-8.01382345e-05
0.000485762558
-0.000109318381
0.000576427473
-0.000143439606
0.00068041782
-0.000183120446
0.000799281762
-0.000229042992
0.000934580847
-0.000281897433
0.00108797776
-0.000342453199
0.00126117679
-0.000411482704
0.00145594251
-0.000489932568
0.00167408383
-0.000578683567
0.00191721199
-0.000678656085
0.00218663948
-0.000790658684
0.0024832918
-0.000915356327
0.00280775822
-0.00105320689
0.00315797351
-0.00120090634
0.00353043629
-0.00135822864
0.00392141835
-0.00152172259
0.00432737442
-0.00168797926
0.00473361797
-0.00186372551
0.00513006478
-0.00204896306
0.00550357947
-0.00221778835
0.00582382319
-0.00236335283
0.00606037745
-0.00249401076
0.0062573071
-0.00261169582
0.00644313976
-0.00272206382
0.00660684921
-0.00283447735
0.00674308418
-0.00292775479
0.00685421895
-0.00301708694
0.00694961941
-0.00311076305
0.00704325366
-0.00320746282
-0.0033068457
0.0071396461
-3.72181728e-08
5.28468378e-07
-1.46544513e-07
1.61477769e-06
-3.27261356e-07
2.75747438e-06
-5.78173167e-07
3.9499137e-06
-8.97714911e-07
5.18839894e-06
-1.28415744e-06
6.47129652e-06
-1.7353842e-06
7.7983191e-06
-2.2486795e-06
9.17002453e-06
-2.82082097e-06
1.0587688e-05
-3.44798481e-06
1.20523887e-05
-4.12548055e-06
1.3564701e-05
-4.84754911e-06
1.51245468e-05
-5.60714353e-06
1.67310155e-05
-6.39568609e-06
1.83822415e-05
-7.20280059e-06
2.00753028e-05
-8.01601325e-06
2.18061215e-05
-8.82037855e-06
2.3569346e-05
-9.59806606e-06
2.5358251e-05
-1.03279373e-05
2.71646696e-05
-1.09852332e-05
2.89790012e-05
-1.15416481e-05
3.07904622e-05
-1.19651413e-05
3.25866707e-05
-1.2219734e-05
3.43535398e-05
-1.22601786e-05
3.60700782e-05
-1.20331478e-05
3.77155331e-05
-1.14762827e-05
3.92665463e-05
-1.05157314e-05
4.0695641e-05
-9.06235034e-06
4.19698401e-05
-7.01832394e-06
4.30504398e-05
-4.26947433e-06
4.38905657e-05
-6.79997958e-07
4.44351622e-05
3.91208368e-06
4.46189519e-05
9.69515625e-06
4.43649189e-05
1.68614142e-05
4.36101821e-05
2.56316648e-05
4.22586032e-05
3.62509384e-05
4.02033885e-05
4.89878701e-05
3.73240976e-05
6.41959543e-05
3.34615461e-05
8.22317522e-05
2.84953763e-05
0.000103260143
2.24885787e-05
0.000127942494
1.47664475e-05
0.000156865278
5.29715905e-06
0.000190716805
-5.91955941e-06
0.000230268057
-1.97413737e-05
0.000276437703
-3.63339365e-05
0.000330482627
-5.60530909e-05
0.000393148338
-7.93112989e-05
0.000465461933
-0.000106600079
0.000548588431
-0.000138443203
0.000643856677
-0.000175404966
0.00075262853
-0.000218088399
0.000876331521
-0.000267140384
0.00101644301
-0.00032322931
0.00117445694
-0.00038705382
0.00135188266
-0.000459319517
0.00155020349
-0.000540769773
0.00177065559
-0.00063193024
0.00201410795
-0.000733380305
0.00228084783
-0.000845418934
0.00257062425
-0.000968427992
0.00288230524
-0.00110233534
0.00321419649
-0.00124724326
0.00356404704
-0.00140305334
0.0039259759
-0.00156283109
0.00429607005
-0.00172831886
0.00466378472
-0.00188943326
0.00502033477
-0.0020445257
0.0053389831
-0.00218237041
0.00559978837
-0.00230976501
0.00579657382
-0.00241456937
0.0059521519
-0.00251892487
0.00608762325
-0.00262947552
0.00621155028
-0.00273561779
0.00632199548
-0.00283250315
0.00641459377
-0.00292706991
0.0065075655
-0.00302072143
0.00659835611
-0.00310787424
0.006687028
-0.00319943356
0.00677651437
-0.00329695226
-0.0033992601
0.00686892148
-3.89502364e-08
5.67292414e-07
-1.51449388e-07
1.7270965e-06
-3.34812412e-07
2.94062925e-06
-5.85712073e-07
4.20058043e-06
-9.0026867e-07
5.50270034e-06
-1.27406817e-06
6.84482011e-06
-1.70226562e-06
8.22622059e-06
-2.17937052e-06
9.64681368e-06
-2.69857443e-06
1.11065565e-05
-3.25221802e-06
1.26056772e-05
-3.83129941e-06
1.41434074e-05
-4.42521889e-06
1.57180709e-05
-5.02149069e-06
1.73268714e-05
-5.60542771e-06
1.89657417e-05
-6.15979704e-06
2.06292143e-05
-6.66453955e-06
2.23103847e-05
-7.09637184e-06
2.40006771e-05
-7.42864244e-06
2.56899977e-05
-7.63010429e-06
2.73655861e-05
-7.66392333e-06
2.90122533e-05
-7.48705462e-06
3.06130036e-05
-7.04946893e-06
3.21484694e-05
-6.29244196e-06
3.35958728e-05
-5.15175494e-06
3.49287271e-05
-3.55145661e-06
3.61145453e-05
-1.40058684e-06
3.71149599e-05
1.40857852e-06
3.7885729e-05
5.00290786e-06
3.83747306e-05
9.5212265e-06
3.85313086e-05
1.51187329e-05
3.82922117e-05
2.19720315e-05
3.75809797e-05
3.02802303e-05
3.63098294e-05
4.02642636e-05
3.43799215e-05
5.21937217e-05
3.16797156e-05
6.63857793e-05
2.80654941e-05
8.31788933e-05
2.34091723e-05
0.000102758605
1.77432316e-05
0.000125727553
1.04914113e-05
0.00015261817
1.60354662e-06
0.000184034756
-8.92928056e-06
0.000220666481
-2.18666089e-05
0.000263315834
-3.73535665e-05
0.000313107905
-5.57130307e-05
0.000370710708
-7.73455898e-05
0.000437069625
-0.000102694256
0.000513249303
-0.000132234135
0.000600419471
-0.000166482761
0.000699810685
-0.000205992468
0.000812709318
-0.000251342832
0.000940438327
-0.000303134724
0.00108432551
-0.000361976025
0.0012456626
-0.000428477543
0.00142565215
-0.000503218499
0.00162543063
-0.000586831451
0.00184587103
-0.000679758651
0.00208745183
-0.000782348941
0.00234983311
-0.000894309664
0.00263175529
-0.00101530043
0.00293084353
-0.00114450507
0.00324429389
-0.00128187618
0.00356837394
-0.0014264133
0.00389884718
-0.00157771439
0.0042309495
-0.0017351537
0.00455627321
-0.00188815288
0.00485494238
-0.00202698643
0.00511562478
-0.00215011399
0.00533225344
-0.0022611525
0.00550576657
-0.00235588152
0.00564259654
-0.00244659297
0.00576276939
-0.00253473941
0.00586578548
-0.00262193807
0.00595172401
-0.00271541099
0.00602795435
-0.00281184585
0.00610246602
-0.00290701211
0.0061716174
-0.00299621864
0.0062401834
-0.00308928425
0.00632250259
-0.00319019054
0.00641263409
-0.00328956371
0.00650645096
-0.00339077036
-0.00349204965
0.0065992369
-4.21349866e-08
6.09425388e-07
-1.61840769e-07
1.84679569e-06
-3.54011358e-07
3.13278945e-06
-6.12740215e-07
4.45929527e-06
-9.31324653e-07
5.82126704e-06
-1.30223532e-06
7.21570893e-06
-1.71701604e-06
8.64097474e-06
-2.16625556e-06
1.0096021e-05
-2.63916564e-06
1.15794279e-05
-3.12287483e-06
1.308934e-05
-3.60279924e-06
1.46232767e-05
-4.06206414e-06
1.61772707e-05
-4.48113967e-06
1.77458707e-05
-4.83747661e-06
1.93219898e-05
-5.10478754e-06
2.08964229e-05
-5.25253643e-06
2.24580166e-05
-5.24548097e-06
2.39934886e-05
-5.04297691e-06
2.54873432e-05
-4.59863611e-06
2.69210772e-05
-3.85947406e-06
2.82729047e-05
-2.76359561e-06
2.95169199e-05
-1.23789933e-06
3.06225478e-05
8.03933834e-07
3.15537946e-05
3.45842246e-06
3.22739741e-05
6.83524542e-06
3.27374396e-05
1.10590111e-05
3.28908934e-05
1.62711862e-05
3.26732372e-05
2.26315219e-05
3.20140635e-05
3.03287684e-05
3.08337191e-05
3.95775994e-05
2.90430279e-05
5.06226458e-05
2.6535575e-05
6.3749903e-05
2.31822114e-05
7.92768652e-05
1.88526017e-05
9.7398571e-05
1.35576575e-05
0.000118654879
6.80885197e-06
0.000143523347
-1.45960658e-06
0.00017254131
-1.12750148e-05
0.000206324287
-2.32918169e-05
0.000245573793
-3.764616e-05
0.000291274764
-5.46303901e-05
0.000344031854
-7.46237568e-05
0.000404704656
-9.80263318e-05
0.000474263919
-0.000125272137
0.00055375154
-0.000156832911
0.000644269311
-0.000193211554
0.000746971034
-0.000234935184
0.000863029974
-0.000282540794
0.000993604165
-0.000336565484
0.00113979721
-0.000397534404
0.00130261357
-0.000465949273
0.00148289864
-0.000542258904
0.00168134697
-0.00062692326
0.00189833154
-0.000720200232
0.00213378848
-0.000822285485
0.00238700525
-0.000932972575
0.00265674752
-0.00105208841
0.00294058169
-0.0011781412
0.00323497163
-0.00130968786
0.00353464944
-0.00144418062
0.00383421092
-0.00158143557
0.00413025677
-0.00172245739
0.00441125459
-0.00185871075
0.0046589014
-0.00198279952
0.00486781594
-0.00209706665
0.00503624129
-0.00219541116
0.00517681608
-0.00229068797
0.00529922483
-0.00238356066
0.00541280716
-0.0024694632
0.00551040511
-0.00254419031
0.00559392577
-0.00261825925
0.00567339467
-0.00270140624
0.00574442966
-0.00278644523
0.005805662
-0.00287307766
0.00586252779
-0.00296387676
0.00592461136
-0.00305830095
0.00599155344
-0.00315622471
0.00607412129
-0.0032727571
0.00617145307
-0.00338689449
0.00627270349
-0.00349202173
-0.00358700772
0.0063676588
-4.38827754e-08
6.53151272e-07
-1.65844914e-07
1.968536e-06
-3.5780167e-07
3.3244919e-06
-6.10601166e-07
4.71181135e-06
-9.13954765e-07
6.12431083e-06
-1.25632728e-06
7.55774697e-06
-1.62475193e-06
9.00904117e-06
-2.0045916e-06
1.04754788e-05
-2.37953011e-06
1.19539603e-05
-2.730701e-06
1.34400803e-05
-3.03623994e-06
1.49283604e-05
-3.27096149e-06
1.64115125e-05
-3.40578156e-06
1.78801853e-05
-3.40723062e-06
1.93229064e-05
-3.23703157e-06
2.07256656e-05
-2.85116868e-06
2.20715692e-05
-2.19900364e-06
2.33407109e-05
-1.22132529e-06
2.4509023e-05
1.49868036e-07
2.5549213e-05
1.9919088e-06
2.64301638e-05
4.39350052e-06
2.71145978e-05
7.45521549e-06
2.75600708e-05
1.12908836e-05
2.77173321e-05
1.6034034e-05
2.75299958e-05
2.18374868e-05
2.69331245e-05
2.88749032e-05
2.58525787e-05
3.73439153e-05
2.42032897e-05
4.74742409e-05
2.18827638e-05
5.95331379e-05
1.87738099e-05
7.37300017e-05
1.48451072e-05
9.03417739e-05
9.92269729e-06
0.000109846476
3.67636992e-06
0.000132663153
-3.96524631e-06
0.00015926708
-1.30474994e-05
0.000190202406
-2.4127766e-05
0.000226081041
-3.73395872e-05
0.000267761091
-5.29564599e-05
0.000315792354
-7.13245239e-05
0.000370949356
-9.28046468e-05
0.00043410824
-0.000117790794
0.000506194202
-0.000146711262
0.000588187595
-0.000180021275
0.000681110685
-0.000218196753
0.00078599983
-0.00026172353
0.000903872981
-0.000311086091
0.00103569003
-0.000366753499
0.00118230989
-0.000429161748
0.00134443745
-0.000498693924
0.00152256566
-0.000575663257
0.00171693594
-0.000660319921
0.00192744342
-0.000752766446
0.00215349062
-0.000852970212
0.00239378069
-0.000960489839
0.00264635323
-0.00107485737
0.00290825688
-0.00119487549
0.00317660205
-0.00132043278
0.00344682018
-0.00144835861
0.00371595291
-0.00157881994
0.00397609435
-0.00170432161
0.00421784941
-0.00182319036
0.00442840518
-0.00193301316
0.00460252803
-0.00203283383
0.00474064758
-0.00212091975
0.00485171783
-0.00220813803
0.00495235163
-0.00229604637
0.00504366447
-0.00238200202
0.00512560104
-0.00246549854
0.00519992542
-0.00254378899
0.00526993986
-0.00261420656
0.005340083
-0.00268840431
0.00540810567
-0.00276943105
0.00547720598
-0.00285554776
0.00554701473
-0.00294288823
0.00561910446
-0.00303596739
0.00569118515
-0.00313038236
0.00576133346
-0.00322637303
0.00584419081
-0.00335561445
0.00595288411
-0.00349558758
0.006075316
-0.0036144544
-0.00370665522
0.00619496201
-4.11612948e-08
6.9427202e-07
-1.51790795e-07
2.07910527e-06
-3.20116572e-07
3.49274638e-06
-5.33003466e-07
4.92461667e-06
-7.75750069e-07
6.36696602e-06
-1.03186862e-06
7.8137642e-06
-1.28277486e-06
9.25983578e-06
-1.50735234e-06
1.06999335e-05
-1.68153642e-06
1.21280095e-05
-1.77812369e-06
1.35365192e-05
-1.76556436e-06
1.49156383e-05
-1.60769308e-06
1.6253463e-05
-1.26313535e-06
1.75354326e-05
-6.84323184e-07
1.87438811e-05
1.83366832e-07
1.98577433e-05
1.40243453e-06
2.08522488e-05
3.04443246e-06
2.16984389e-05
5.19076241e-06
2.23623969e-05
7.93462969e-06
2.2805027e-05
1.13829938e-05
2.29814574e-05
1.56579121e-05
2.28393135e-05
2.08984884e-05
2.23191047e-05
2.72627167e-05
2.13526907e-05
3.49299497e-05
1.98623268e-05
4.41063939e-05
1.7756223e-05
5.50182713e-05
1.49402231e-05
6.78614426e-05
1.13596193e-05
8.2984145e-05
6.75954783e-06
0.00010072147
1.03596838e-06
0.000121448683
-5.88262944e-06
0.000145603261
-1.42324179e-05
0.000173667778
-2.43886894e-05
0.0002061765
-3.64745053e-05
0.000243875757
-5.07472825e-05
0.000287264063
-6.75165767e-05
0.000337034115
-8.71101147e-05
0.000393961982
-0.00010988476
0.000458864044
-0.000136226965
0.000532606207
-0.000166547118
0.000616090233
-0.00020127504
0.000710229738
-0.00024085088
0.00081592378
-0.000285715304
0.000934023749
-0.000336296561
0.00106529405
-0.000392993501
0.00121036411
-0.000456155623
0.00136967271
-0.00052606136
0.00154340931
-0.000602897368
0.00173145245
-0.000686735804
0.00193332886
-0.000777538178
0.00214805801
-0.000875047438
0.00237406533
-0.000978772101
0.00260906737
-0.00108797055
0.00285004358
-0.00120146441
0.00309351051
-0.00131832272
0.00333494094
-0.00143630448
0.00357130772
-0.00155679827
0.00379737296
-0.00167442286
0.00400183573
-0.00178328207
0.00417958055
-0.00188206616
0.00432817347
-0.00197178328
0.00444735977
-0.00205219982
0.00454493081
-0.00213040563
0.00463390977
-0.00220990005
0.00471210435
-0.00228633423
0.00477819828
-0.00236214268
0.00483643718
-0.00244024349
0.00488985865
-0.0025189223
0.00494261226
-0.0025965451
0.00500109239
-0.00267269091
0.0050671698
-0.00275448601
0.00513696746
-0.00283923225
0.00520990755
-0.00292849165
0.00529180955
-0.00302479388
0.00538325697
-0.00312741787
0.0054765767
-0.00322370473
0.00556866208
-0.00331846023
0.00565782018
-0.00344477395
0.00575927094
-0.00359703935
0.00587372094
-0.0037289058
-0.00383461027
0.00600167461
-3.2801864e-08
7.26907635e-07
-1.14541332e-07
2.16061133e-06
-2.28778914e-07
3.60671762e-06
-3.57184172e-07
5.05272593e-06
-4.79245995e-07
6.48870461e-06
-5.71926181e-07
7.90609546e-06
-6.09180994e-07
9.29671687e-06
-5.61406421e-07
1.06517606e-05
-3.94800958e-07
1.19609804e-05
-7.07005366e-08
1.32119694e-05
4.54806258e-07
1.43896562e-05
1.23183834e-06
1.54759289e-05
2.31766078e-06
1.64490807e-05
3.77762861e-06
1.72833558e-05
5.68609034e-06
1.79486958e-05
8.1282246e-06
1.84094999e-05
1.12010387e-05
1.86249803e-05
1.50150487e-05
1.85477118e-05
1.96960265e-05
1.8123343e-05
2.5387074e-05
1.72896719e-05
3.22498487e-05
1.59757686e-05
4.04691543e-05
1.40989961e-05
5.02511685e-05
1.15698391e-05
6.17792002e-05
8.33342098e-06
7.535925e-05
4.17526997e-06
9.12945048e-05
-9.95963545e-07
0.000109920268
-7.26711661e-06
0.000131614085
-1.49352845e-05
0.000156787457
-2.41384573e-05
0.000185991903
-3.50881712e-05
0.000219786823
-4.80284759e-05
0.000258627381
-6.32304284e-05
0.000303136118
-8.0984463e-05
0.00035399703
-0.000101609457
0.000411930544
-0.000125451393
0.000477697599
-0.000152878508
0.000552089075
-0.000184277599
0.000635907081
-0.00022004635
0.000729943745
-0.000260585166
0.000834953706
-0.000306286378
0.000951621238
-0.000357519769
0.00108051975
-0.000414615136
0.00122206346
-0.000477841521
0.00137645273
-0.000547383955
0.00154361539
-0.000623319366
0.00172315129
-0.00070559822
0.00191429324
-0.000794040162
0.0021158267
-0.000888269919
0.00232598693
-0.000987698898
0.00254235531
-0.00109141614
0.00276196738
-0.00119838441
0.00298124657
-0.00130724991
0.0031964688
-0.00141668682
0.00340354431
-0.00152539845
0.00359889024
-0.00163165073
0.00377149685
-0.00172940532
0.00391716125
-0.00182008792
0.00403563998
-0.00190176186
0.00413553732
-0.00198196526
0.00422421006
-0.00206045786
0.00430716081
-0.00213515273
0.00438110637
-0.00220435402
0.00444551952
-0.00227431643
0.00450466908
-0.00234548717
0.00455788117
-0.00241535851
0.00460551028
-0.0024878775
0.00465068664
-0.00256410448
0.00469653797
-0.0026424017
0.0047489429
-0.00272510143
0.00480779978
-0.0028133491
0.0048750074
-0.00290644627
0.00494778525
-0.00300127572
0.00502946988
-0.00310648455
0.00512490245
-0.00322285595
0.00523638331
-0.00333519064
0.00535535592
-0.00343743693
0.00545909383
-0.00354851535
0.00554088591
-0.00367883509
0.00562610748
-0.00381413101
-0.00393851943
0.00573001464
-1.81473093e-08
7.44980377e-07
-5.12447711e-08
2.19360066e-06
-7.66766479e-08
3.63202344e-06
-6.93018097e-08
5.04520868e-06
-9.84542856e-10
6.42022958e-06
1.59914612e-07
7.74502357e-06
4.49136716e-07
9.00730696e-06
9.07115314e-07
1.01935785e-05
1.57970579e-06
1.128817e-05
2.51895557e-06
1.22724823e-05
3.78401173e-06
1.31243443e-05
5.44224045e-06
1.38174249e-05
7.57005544e-06
1.432097e-05
1.02548959e-05
1.45981983e-05
1.35960817e-05
1.46071704e-05
1.77065176e-05
1.42987009e-05
2.27142819e-05
1.36168288e-05
2.87641813e-05
1.24974006e-05
3.60208955e-05
1.08661923e-05
4.46705393e-05
8.63956636e-06
5.48861162e-05
5.75970401e-06
6.69327798e-05
2.0518232e-06
8.10762375e-05
-2.57414822e-06
9.76133866e-05
-8.20428245e-06
0.000116878819
-1.50907411e-05
0.000139248845
-2.33665871e-05
0.000165198092
-3.32169801e-05
0.00019512264
-4.48604633e-05
0.000229518013
-5.85344719e-05
0.000268929457
-7.45002636e-05
0.000313943953
-9.30436227e-05
0.000365185956
-0.00011447308
0.000423318004
-0.000139117149
0.000489029899
-0.000167321971
0.000563023199
-0.000199445282
0.000645993564
-0.000235849422
0.000738608082
-0.000276892617
0.000841478205
-0.000322916912
0.000955126272
-0.000374233601
0.00107994529
-0.000431105675
0.00121615294
-0.000493727612
0.00136374062
-0.000562202888
0.00152241928
-0.000636520142
0.00169156618
-0.000716530677
0.00187018096
-0.000801933831
0.00205687624
-0.000892293054
0.00224979226
-0.000986955654
0.00244654062
-0.00108501769
0.00264419674
-0.00118535442
0.00283944202
-0.00128666083
0.00302882638
-0.00138776823
0.00320841517
-0.00148683823
0.00337579587
-0.00158406722
0.00352469057
-0.00167429303
0.00365127321
-0.00175823351
0.00375330126
-0.00183143382
0.0038351172
-0.00190190475
0.0039085242
-0.00197517008
0.00397506981
-0.00204851249
0.0040361823
-0.00212157214
0.00409264797
-0.00219162072
0.0041449215
-0.00225663068
0.00419487633
-0.0023242754
0.00424523006
-0.00239584615
0.00429691071
-0.00246704565
0.0043499171
-0.00254089188
0.00440400433
-0.0026181994
0.00446121199
-0.00269961583
0.00452023064
-0.00278412747
0.00458308868
-0.00287621545
0.00465216375
-0.00297552996
0.0047279659
-0.00307708647
0.00480400386
-0.00318253102
0.00488151385
-0.003300374
0.00496807887
-0.0034217631
0.00506492477
-0.00353428958
0.00515708646
-0.00364068319
0.0052320114
-0.00375376449
0.00530010568
-0.00388223011
-0.0040066073
0.00536818906
3.6106505e-09
7.41204462e-07
4.15202366e-08
2.1554581e-06
1.44015686e-07
3.5292614e-06
3.44722484e-07
4.84420498e-06
6.81209765e-07
6.08341767e-06
1.19562152e-06
7.230261e-06
1.93538957e-06
8.26716257e-06
2.95411507e-06
9.17445118e-06
4.31249279e-06
9.92936458e-06
6.07933295e-06
1.0505188e-05
8.33238791e-06
1.08708082e-05
1.11603638e-05
1.09889404e-05
1.46636314e-05
1.08171649e-05
1.89558477e-05
1.03054146e-05
2.41658695e-05
9.39655088e-06
3.04392893e-05
8.02465261e-06
3.79408834e-05
6.11457414e-06
4.68318625e-05
3.6057275e-06
5.73401715e-05
3.57159673e-07
6.96979978e-05
-3.71901256e-06
8.41660325e-05
-8.70911963e-06
0.000101036899
-1.48198699e-05
0.000120636423
-2.21745334e-05
0.000143373209
-3.09419658e-05
0.000169597009
-4.13154745e-05
0.00019973547
-5.3506018e-05
0.000234262847
-6.77453631e-05
0.000273688264
-8.42869232e-05
0.000318557165
-0.000103404453
0.000369445986
-0.000125390201
0.00042695433
-0.000150553114
0.00049169418
-0.000179214105
0.000564276064
-0.000211700233
0.000645290694
-0.000248337822
0.000735286883
-0.000289442709
0.000834744464
-0.000335308251
0.000944041424
-0.000386190831
0.00106341622
-0.000442292956
0.00119292534
-0.000503743964
0.00133239787
-0.000570579434
0.00148138843
-0.000642719378
0.00163913193
-0.000719947556
0.00180450444
-0.000801893794
0.00197599988
-0.000888027226
0.00215175525
-0.000977690264
0.00232953064
-0.00107006942
0.0025066348
-0.00116406073
0.00268006241
-0.00125844617
0.00284658298
-0.0013518759
0.00300309348
-0.00144317227
0.00314699535
-0.00153167116
0.00327576555
-0.00161560957
0.00338601561
-0.00169431849
0.00347745482
-0.00176573354
0.00355165031
-0.00183243092
0.00361689429
-0.00189668026