/*--------------------------------*- C++ -*----------------------------------*\
  =========                 |
  \\      /  F ield         | OpenFOAM: The Open Source CFD Toolbox
   \\    /   O peration     | Website:  https://openfoam.org
    \\  /    A nd           | Version:  8
     \\/     M anipulation  |
\*---------------------------------------------------------------------------*/
FoamFile
{
    version     2.0;
    format      ascii;
    class       volScalarField;
    location    "0.042";
    object      T;
}
// * * * * * * * * * * * * * * * * * * * * * * * * * * * * * * * * * * * * * //

dimensions      [0 0 0 1 0 0 0];

internalField   nonuniform List<scalar> 
42400
(
472.182533
470.529446
468.832791
467.091507
465.304591
463.471124
461.590279
459.661355
457.683791
455.657198
453.58139
451.456416
449.282594
447.060554
444.791278
442.47614
440.116957
437.716029
435.276185
432.80083
430.293979
427.760299
425.205133
422.634525
420.055223
417.47468
414.901033
412.343062
409.810139
407.312143
404.859361
402.46237
400.131888
397.878623
395.713096
393.645471
391.685386
389.841764
388.122674
386.535237
385.085557
383.778662
382.618432
381.607574
380.747637
380.039058
379.481177
379.07239
378.810177
378.69448
378.712485
378.864429
379.143448
379.54254
380.052285
380.660829
381.352943
382.110481
382.899418
383.690236
384.466832
385.250632
385.718778
385.79827
385.513081
384.794946
383.778696
382.364599
380.451678
377.773121
374.339736
370.538357
365.360187
358.94393
353.486705
347.975455
340.066508
332.095849
324.033581
319.487123
472.221728
470.647902
469.032617
467.374883
465.673775
463.928452
462.13817
460.302309
458.420392
456.492112
454.517363
452.496268
450.429219
448.31691
446.160379
443.961049
441.720771
439.441865
437.127169
434.780076
432.404575
430.005283
427.58748
425.157122
422.72086
420.286033
417.860653
415.453377
413.073455
410.730662
408.435209
406.197637
404.028691
401.939178
399.939807
398.041042
396.252967
394.585146
393.046446
391.644866
390.387384
389.279755
388.326344
387.530041
386.892182
386.41248
386.088945
385.917565
385.892485
386.004663
386.246663
386.604991
387.063499
387.603509
388.196417
388.814553
389.439337
390.081756
390.483086
390.588981
390.403295
389.69539
388.74853
387.478894
385.812641
383.597831
380.715414
377.061866
372.693982
367.493992
361.455991
355.310715
348.687978
341.003801
333.811517
327.322885
321.253347
314.873103
309.629116
304.80949
472.27061
470.795639
469.281853
467.728364
466.134354
464.499094
462.82196
461.102452
459.340218
457.535076
455.687047
453.796379
451.863586
449.889479
447.875208
445.822294
443.732678
441.608758
439.453426
437.270115
435.062828
432.836174
430.595396
428.346388
426.095707
423.850571
421.618849
419.409026
417.230161
415.091824
413.004015
410.977071
409.021561
407.148176
405.367564
403.690162
402.126014
400.684559
399.374346
398.202778
397.17586
396.297979
395.571666
394.997349
394.572965
394.293896
394.153648
394.141717
394.23801
394.430729
394.695379
395.007463
395.346269
395.708774
395.900704
395.868092
395.571437
394.83736
393.898135
392.68011
391.113
389.08635
386.486727
383.267318
379.386097
374.852406
369.660527
363.753705
357.317303
350.489824
343.269221
336.138363
329.450604
322.928094
316.80311
311.492657
307.143014
303.58871
300.846897
300.124779
472.325719
470.962202
469.562859
468.12692
466.6537
465.142605
463.593157
462.005007
460.37796
458.711998
457.007308
455.264308
453.483679
451.666402
449.813789
447.927519
446.009681
444.062805
442.0899
440.094493
438.080655
436.053033
434.01687
431.978016
429.942939
427.918715
425.91301
423.934053
421.990595
420.091833
418.247329
416.466893
414.760456
413.137905
411.608855
410.182424
408.866954
407.669702
406.596552
405.65168
404.837182
404.15266
403.594918
403.158239
402.832469
402.60337
402.455192
402.369057
402.326948
402.275332
402.118068
401.801947
401.262815
400.417621
399.393895
398.131022
396.568594
394.628637
392.197166
389.226797
385.675945
381.511967
376.724696
371.356822
365.468642
359.167847
352.549725
345.652635
338.639105
331.801709
325.254569
319.160394
313.78706
309.249455
305.619918
302.78431
300.63266
300.068098
299.932721
299.884497
472.38317
471.135847
469.855821
468.542459
467.195215
465.813649
464.397441
462.946412
461.460545
459.940003
458.385162
456.79663
455.175283
453.522291
451.839151
450.127722
448.390255
446.629424
444.848358
443.050668
441.24047
439.4224
437.601632
435.783874
433.975368
432.18286
430.413567
428.675124
426.975506
425.322919
423.72567
422.192001
420.729884
419.346774
418.049352
416.843221
415.732556
414.719728
413.804903
412.985661
412.257022
411.610467
411.03446
410.516201
410.029644
409.522205
408.952342
408.272243
407.427669
406.404134
405.222609
403.834512
402.188246
400.219137
397.837428
395.002759
391.680405
387.843764
383.479696
378.580326
373.152834
367.239817
360.917528
354.315937
347.565268
340.812042
334.19074
327.833721
321.841552
316.40408
311.63104
307.673389
304.550746
302.278866
300.61722
300.040217
299.909545
299.877896
299.870303
299.870595
472.438603
471.303396
470.138518
468.943469
467.717849
466.461369
465.173869
463.855334
462.505914
461.125945
459.715972
458.276775
456.809392
455.315145
453.795669
452.252935
450.689276
449.10741
447.510456
445.901952
444.285861
442.66657
441.048881
439.43799
437.839445
436.259094
434.703006
433.177365
431.688338
430.241913
428.843703
427.498719
426.2111
424.983802
423.818298
422.714195
421.668867
420.677384
419.731862
418.821508
417.92532
417.016179
416.062941
415.03125
413.895759
412.65201
411.266374
409.701514
407.913948
405.845512
403.438733
400.656629
397.466436
393.842335
389.769077
385.242299
380.270187
374.868602
369.065527
362.912976
356.485018
349.873064
343.200243
336.626699
330.310275
324.369764
318.915106
314.073928
309.928001
306.535124
303.893849
302.013152
300.713112
300.072454
299.929676
299.893103
299.87963
299.87496
299.867977
299.861301
472.487153
471.450149
470.386144
469.294766
468.175741
467.028909
465.854239
464.65184
463.421982
462.165113
460.881878
459.573134
458.239976
456.883751
455.506075
454.108853
452.694282
451.264867
449.823417
448.373037
446.917117
445.459298
444.003435
442.553529
441.113655
439.687853
438.280003
436.893666
435.531898
434.197043
432.890483
431.612363
430.361279
429.133944
427.924986
426.726449
425.526978
424.310351
423.058045
421.750115
420.367159
418.887324
417.284708
415.52832
413.579042
411.392983
408.935963
406.174227
403.077318
399.619728
395.782794
391.555854
386.937768
381.937359
376.573387
370.874598
364.879563
358.656008
352.286563
345.853659
339.455787
333.210738
327.249803
321.692955
316.664434
312.260969
308.560996
305.606221
303.375835
301.787302
300.778166
300.160779
299.958726
299.907173
299.893633
299.882573
299.871984
299.862216
299.851789
299.839364
472.523766
471.56083
470.572923
469.559767
468.521176
467.457066
466.367467
465.252536
464.112565
462.947998
461.759439
460.547669
459.313647
458.058526
456.783651
455.490564
454.180994
452.856844
451.520172
450.173155
448.818045
447.457106
446.092535
444.726365
443.360349
441.99581
440.633477
439.273294
437.914197
436.553885
435.188623
433.813014
432.419886
430.999573
429.540194
428.02721
426.4439
424.77275
422.991984
421.074651
418.994712
416.724727
414.236497
411.501848
408.493504
405.187563
401.564279
397.60921
393.314398
388.67941
383.712313
378.429955
372.858534
367.032618
360.987294
354.783232
348.508379
342.258831
336.137212
330.239375
324.664533
319.51541
314.896934
310.885907
307.548509
304.907579
302.94413
301.589414
300.72425
300.237883
299.996248
299.928655
299.908516
299.894913
299.879792
299.857822
299.839941
299.832434
299.827519
299.823972
472.543861
471.621584
470.675459
469.70525
468.71079
467.691987
466.648836
465.581418
464.489911
463.374588
462.235826
461.074098
459.889988
458.684171
457.45741
456.210539
454.944436
453.66
452.3581
451.03953
449.704935
448.354729
446.988987
445.607323
444.20873
442.791435
441.352681
439.888433
438.392973
436.858302
435.275928
433.635863
431.926097
430.132959
428.240577
426.231146
424.08517
421.781734
419.298874
416.614122
413.705158
410.550384
407.13075
403.430317
399.437158
395.144345
390.550891
385.662617
380.492868
375.063185
369.403674
363.552078
357.552036
351.453991
345.334799
339.276041
333.383633
327.766763
322.520593
317.734093
313.490769
309.849371
306.850745
304.494709
302.742015
301.522251
300.741008
300.29173
300.062271
299.958976
299.921984
299.895903
299.870308
299.851466
299.83546
299.826727
299.819038
299.817707
299.819578
299.823036
472.544302
471.622922
470.677705
469.70838
468.714723
467.696557
466.653753
465.586232
464.493959
463.37694
462.235218
461.068852
459.877898
458.662396
457.422349
456.1577
454.868283
453.553768
452.213597
450.846892
449.452353
448.028124
446.571625
445.079176
443.544335
441.960842
440.322607
438.622399
436.852118
435.003103
433.064082
431.021948
428.862232
426.569219
424.126113
421.515323
418.718825
415.718593
412.497028
409.038293
405.328814
401.357926
397.118704
392.608796
387.831255
382.79533
377.517228
372.020888
366.338545
360.511295
354.588021
348.62045
342.677825
336.841887
331.203977
325.858128
320.894101
316.399374
312.450249
309.101768
306.379498
304.256714
302.679659
301.574058
300.847985
300.404746
300.154236
300.019227
299.945002
299.900983
299.865673
299.842408
299.831616
299.828345
299.828264
299.825275
299.81889
299.809844
299.80267
299.803554
472.526088
471.567906
470.58496
469.57695
468.543581
467.48457
466.399637
465.288496
464.150856
462.986411
461.794833
460.575762
459.32793
458.049502
456.738916
455.394744
454.015229
452.598225
451.141128
449.640805
448.09353
446.494917
444.839923
443.123006
441.339549
439.48291
437.544261
435.513712
433.380364
431.132307
428.756654
426.23966
423.566906
420.723541
417.694579
414.465212
411.021722
407.351977
403.445886
399.296084
394.898659
390.253933
385.367269
380.249901
374.91973
369.40209
363.730546
357.947562
352.10471
346.262144
340.482154
334.843117
329.430062
324.335005
319.639717
315.42295
311.735135
308.615429
306.07751
304.103059
302.639661
301.603808
300.908453
300.467456
300.201304
300.045397
299.954884
299.896042
299.862125
299.843604
299.835984
299.833024
299.828601
299.823502
299.817206
299.811305
299.803968
299.797503
299.7945
299.793939
472.488192
471.453391
470.391796
469.30299
468.186516
467.041864
465.868462
464.66526
463.430757
462.163705
460.862629
459.525785
458.151962
456.740077
455.288246
453.793831
452.253792
450.664632
449.022335
447.322331
445.559423
443.727701
441.820556
439.830619
437.749666
435.568628
433.277576
430.865766
428.321712
425.633307
422.787983
419.772916
416.575261
413.182731
409.584116
405.76959
401.731282
397.463905
392.965462
388.238019
383.288531
378.129704
372.780867
367.26877
361.62826
355.902895
350.145429
344.417411
338.788115
333.329523
328.118455
323.238099
318.763649
314.766453
311.292616
308.3702
305.990312
304.118345
302.704251
301.683407
300.981297
300.518862
300.226796
300.04955
299.944908
299.885281
299.851746
299.841897
299.8363
299.829871
299.825551
299.819709
299.811775
299.804113
299.802021
299.801168
299.799541
299.796923
299.79451
299.794121
472.432274
471.284385
470.106629
468.898386
467.658925
466.38739
465.082124
463.742073
462.366291
460.95317
459.500862
458.007244
456.469895
454.886044
453.252523
451.565719
449.821531
448.015323
446.141859
444.195301
442.169161
440.056234
437.84862
435.537715
433.114229
430.568221
427.889174
425.066095
422.08766
418.942382
415.618956
412.106774
408.396136
404.478717
400.348109
396.000442
391.435095
386.655473
381.66985
376.492258
371.143357
365.651246
360.052102
354.39052
348.719506
343.100399
337.602261
332.298656
327.264824
322.570554
318.282866
314.458893
311.138029
308.33965
306.057314
304.255585
302.878965
301.862548
301.139286
300.644521
300.319396
300.114001
299.988719
299.915646
299.876199
299.856995
299.847316
299.839762
299.83403
299.826574
299.818547
299.811546
299.806733
299.803274
299.801578
299.800003
299.798429
299.795472
299.792184
299.792642
472.36297
471.07493
469.753273
468.397185
467.005681
465.577398
464.11121
462.605543
461.058574
459.468194
457.831979
456.147149
454.410538
452.618555
450.767133
448.851707
446.867174
444.807859
442.667469
440.439094
438.115195
435.687607
433.147559
430.485722
427.692268
424.756979
421.669372
418.418877
414.995336
411.389144
407.591627
403.5955
399.395405
394.988537
390.375347
385.560327
380.552855
375.368063
370.02768
364.560794
359.004424
353.403778
347.812062
342.289567
336.902253
331.720187
326.816226
322.258175
318.105697
314.404383
311.185445
308.459933
306.220055
304.434177
303.053971
302.021483
301.27437
300.752155
300.400509
300.172398
300.030263
299.945076
299.896
299.868476
299.852834
299.842566
299.834083
299.826094
299.818943
299.813841
299.810434
299.807465
299.803569
299.798193
299.793858
299.791254
299.788865
299.785471
299.782611
299.784931
472.28341
470.834488
469.347679
467.821977
466.256153
464.648738
462.998175
461.302511
459.559475
457.766451
455.920441
454.018026
452.055338
450.02802
447.931195
445.759433
443.506735
441.166516
438.731599
436.19422
433.546057
430.77827
427.881573
424.846331
421.662688
418.320877
414.811448
411.125534
407.255224
403.194021
398.937375
394.483302
389.833079
384.99202
379.970288
374.783729
369.45467
364.012594
358.494623
352.945672
347.418188
341.971282
336.669161
331.578457
326.765095
322.2914
318.212588
314.570764
311.393909
308.691565
306.454464
304.653914
303.245933
302.177622
301.392886
300.835438
300.452936
300.200178
300.039948
299.94335
299.887516
299.856416
299.83964
299.829644
299.82255
299.817211
299.813275
299.809657
299.806114
299.803037
299.800731
299.798748
299.79598
299.793125
299.7878
299.784091
299.781706
299.781578
299.778612
299.779508
472.195565
470.569011
468.899866
467.186931
465.428719
463.623579
461.769588
459.864401
457.905297
455.889149
453.812386
451.670959
449.460314
447.175361
444.810457
442.359388
439.81537
437.171054
434.418553
431.54949
428.555067
425.426162
422.153499
418.727915
415.140539
411.383101
407.448302
403.330262
399.025042
394.531255
389.850735
384.989285
379.957449
374.771296
369.453147
364.032189
358.544863
353.034948
347.553187
342.156371
336.905898
331.865506
327.098519
322.663697
318.612171
314.983284
311.799458
309.072339
306.798797
304.955152
303.500888
302.384672
301.554226
300.956636
300.54134
300.263636
300.085116
299.974953
299.909105
299.871454
299.849412
299.837012
299.828834
299.823159
299.818307
299.813528
299.809093
299.805527
299.801782
299.79794
299.794587
299.792733
299.792893
299.792729
299.79039
299.784589
299.782302
299.782998
299.780071
299.778756
472.100652
470.282173
468.416022
466.500823
464.534912
462.516351
460.442795
458.311494
456.119261
453.862446
451.536902
449.13796
446.660405
444.098467
441.445811
438.695552
435.84028
432.872102
429.782723
426.563535
423.205822
419.700942
416.040544
412.216872
408.223128
404.053908
399.705707
395.177507
390.471426
385.593419
380.554019
375.369062
370.060365
364.65627
359.19199
353.709641
348.25787
342.890981
337.667423
332.647676
327.89177
323.456049
319.390402
315.733398
312.511544
309.735386
307.395087
305.467596
303.923174
302.723066
301.819847
301.160334
300.693658
300.375047
300.165242
300.031865
299.949517
299.90004
299.870372
299.851642
299.839604
299.829973
299.822094
299.816771
299.812746
299.809405
299.805595
299.801596
299.797817
299.794614
299.792717
299.791603
299.790509
299.789924
299.791863
299.79359
299.794154
299.794519
299.797677
299.794747
471.999665
469.976969
467.901217
465.770847
463.583949
461.338224
459.030955
456.658969
454.218611
451.705712
449.115572
446.442939
443.682007
440.826428
437.869329
434.803364
431.62078
428.313518
424.873407
421.292315
417.56238
413.6763
409.627684
405.411471
401.024415
396.465646
391.737283
386.845107
381.799255
376.614909
371.312924
365.920349
360.470732
355.004156
349.566876
344.210503
338.990658
333.965101
329.191184
324.722907
320.608113
316.884627
313.579001
310.703984
308.258572
306.226053
304.576006
303.266429
302.251919
301.489897
300.937176
300.548937
300.284613
300.110054
299.998414
299.928888
299.885748
299.85885
299.842134
299.830795
299.82298
299.818218
299.81519
299.811762
299.8094
299.80765
299.805151
299.802261
299.798465
299.794031
299.790812
299.788759
299.78777
299.787446
299.788904
299.794315
299.799379
299.803264
299.808041
299.81516
471.893538
469.656226
467.360159
465.003554
462.584228
460.09956
457.546461
454.921343
452.220098
449.438078
446.570088
443.610392
440.552736
437.390384
434.116187
430.72268
427.202244
423.547263
419.750337
415.804562
411.703857
407.443363
403.019902
398.4325
393.682972
388.776553
383.722554
378.535011
373.233295
367.842601
362.394274
356.925864
351.480838
346.107853
340.859532
335.790725
330.956358
326.408987
322.195761
318.355672
314.917164
311.894882
309.293627
307.104007
305.303547
303.858515
302.727963
301.865649
301.223753
300.757517
300.427983
300.203739
300.056186
299.962124
299.90359
299.868068
299.847158
299.8353
299.828725
299.824821
299.821714
299.81833
299.814891
299.81129
299.808006
299.805061
299.803407
299.80177
299.799499
299.797428
299.792784
299.790627
299.789209
299.787962
299.787939
299.791683
299.796052
299.79936
299.800475
299.808176
471.783232
469.32284
466.797755
464.205963
461.545002
458.811932
456.003311
453.11517
450.143003
447.081766
443.925895
440.669335
437.3056
433.827853
430.229059
426.502116
422.640066
418.636344
414.485084
410.181493
405.722271
401.106108
396.334227
391.410981
386.344468
381.147161
375.836488
370.435334
364.972383
359.482251
354.005314
348.587153
343.277552
338.129002
333.194723
328.526297
324.171213
320.1707
316.556666
313.350108
310.560117
308.181222
306.194711
304.572756
303.280687
302.278446
301.52269
300.969154
300.575633
300.303851
300.121277
300.001803
299.92627
299.880794
299.855163
299.841101
299.83483
299.831151
299.827413
299.823443
299.819269
299.815161
299.810343
299.805875
299.802473
299.800061
299.798958
299.798981
299.799302
299.799765
299.800305
299.801308
299.801689
299.801879
299.793668
299.790642
299.792398
299.795678
299.795386
299.802837
472.592612
471.768871
470.923628
470.056464
469.166961
468.254693
467.319229
466.360125
465.376927
464.369165
463.336351
462.277976
461.193507
460.082384
458.944011
457.777757
456.582944
455.358843
454.104662
452.819536
451.502514
450.152547
448.768462
447.348951
445.892538
444.397555
442.862108
441.284034
439.660859
437.989811
436.267748
434.491112
432.655884
430.757561
428.790844
426.74981
424.627845
422.417642
420.111337
417.694979
415.156608
412.486108
409.673411
406.705147
403.567887
400.248337
396.734107
393.014706
389.082878
384.936311
380.579771
376.02762
371.30664
366.458912
361.544335
356.642156
351.850588
347.2833
343.061891
339.304014
336.107243
333.53358
331.597844
330.260726
329.434053
328.99785
328.825972
328.796687
328.787884
328.776876
328.729065
328.618626
328.455114
328.240103
327.977417
327.686085
327.398947
327.152156
326.962657
326.825334
472.586144
471.74936
470.890801
470.010094
469.10687
468.180756
467.231377
466.258352
465.261295
464.239809
463.193486
462.121907
461.024637
459.901225
458.751201
457.57407
456.369311
455.136369
453.874651
452.583515
451.262263
449.910129
448.526266
447.109729
445.659457
444.174251
442.652749
441.093394
439.494398
437.853706
436.168941
434.437351
432.65574
430.820388
428.927185
426.971479
424.948033
422.850869
420.672976
418.406598
416.043453
413.571164
410.974795
408.239884
405.359403
402.318837
399.103944
395.701158
392.098433
388.286567
384.260923
380.023619
375.58618
370.972564
366.222319
361.393425
356.564139
351.832875
347.315018
343.13563
339.417201
336.263154
333.7397
331.859729
330.581
329.810158
329.41903
329.332124
329.334246
329.340675
329.334668
329.291951
329.181631
329.009039
328.779462
328.506443
328.220974
327.954914
327.713339
327.471919
472.576986
471.721717
470.844261
469.94429
469.02148
468.075512
467.106067
466.112828
465.095474
464.053685
462.987135
461.895497
460.778438
459.635619
458.466698
457.271321
456.049126
454.799736
453.522754
452.217762
450.88431
449.52191
448.130026
446.70806
445.255341
443.771104
442.254474
440.70444
439.119827
437.499263
435.84114
434.143569
432.404327
430.620796
428.789893
426.907984
424.970783
422.973298
420.910148
418.775226
416.56174
414.261348
411.864996
409.36315
406.736672
403.970655
401.055581
397.978215
394.723855
391.279098
387.632647
383.777038
379.710856
375.441511
370.988267
366.38551
361.686034
356.963349
352.312069
347.845223
343.687455
339.963615
336.783598
334.224724
332.314935
331.021713
330.253316
329.883218
329.82245
329.868325
329.913693
329.929622
329.912024
329.830478
329.688419
329.487284
329.24732
328.999671
328.755277
328.507627
472.56506
471.68571
470.783613
469.85848
468.91003
467.937993
466.942103
465.922103
464.877738
463.808762
462.714931
461.59601
460.451771
459.281991
458.086458
456.864963
455.617309
454.343299
453.042742
451.715444
450.361207
448.97982
447.571054
446.13465
444.67031
443.177683
441.656346
440.105789
438.525389
436.914381
435.271834
433.596607
431.887309
430.142251
428.359386
426.536242
424.669846
422.756639
420.792372
418.771985
416.689458
414.538408
412.311678
410.001362
407.597816
405.091129
402.463835
399.699532
396.781185
393.701344
390.444494
386.996998
383.348636
379.494193
375.435929
371.186774
366.773877
362.242052
357.656707
353.10511
348.694854
344.548273
340.79255
337.544795
334.894856
332.888705
331.515481
330.704175
330.332942
330.285559
330.373346
330.470618
330.527007
330.538448
330.501078
330.385168
330.204229
329.995112
329.778147
329.559314
472.550325
471.641212
470.708644
469.752367
468.772143
467.767746
466.738964
465.685597
464.607456
463.504369
462.376175
461.222732
460.043914
458.839616
457.609753
456.354264
455.073109
453.766272
452.433758
451.075592
449.691815
448.282483
446.847657
445.387399
443.901762
442.39078
440.854451
439.292728
437.705493
436.092537
434.453535
432.788014
431.095315
429.374554
427.624576
425.843892
424.030624
422.18243
420.29642
418.36907
416.396113
414.372431
412.291916
410.147297
407.930856
405.634039
403.247345
400.759572
398.159354
395.42476
392.540235
389.489276
386.264301
382.85195
379.242982
375.434596
371.432921
367.256506
362.940058
358.537812
354.125885
349.8023
345.68375
341.896662
338.563763
335.788342
333.634364
332.114345
331.180889
330.72972
330.66724
330.779308
330.933083
331.066048
331.143302
331.149005
331.064532
330.924822
330.758655
330.585314
472.532622
471.587745
470.618547
469.624806
468.606322
467.562913
466.494416
465.400686
464.2816
463.137057
461.966977
460.771309
459.550031
458.303153
457.030719
455.732808
454.40954
453.061074
451.687606
450.289376
448.866656
447.419758
445.949022
444.454814
442.937517
441.397527
439.835235
438.251018
436.645222
435.018142
433.37
431.70092
430.010892
428.299742
426.567087
424.812288
423.034393
421.232083
419.403597
417.546661
415.6584
413.735244
411.772835
409.765917
407.708221
405.592313
403.40941
401.15013
398.804235
396.360359
393.805771
391.12712
388.302907
385.318574
382.161044
378.82277
375.296506
371.582334
367.690501
363.644727
359.485822
355.274982
351.095668
347.052483
343.264999
339.85831
336.944656
334.607122
332.883211
331.754628
331.14775
330.999995
331.071101
331.247707
331.433698
331.587952
331.685652
331.684281
331.590556
331.467982
472.511649
471.524395
470.511774
469.473592
468.409679
467.319891
466.204106
465.062233
463.894205
462.699988
461.47958
460.233019
458.960381
457.661788
456.337411
454.98747
453.612242
452.212059
450.787312
449.338448
447.865976
446.370458
444.852512
443.312803
441.75204
440.170969
438.570361
436.951
435.313673
433.659146
431.988152
430.301358
428.599346
426.882575
425.151346
423.405763
421.645678
419.870644
418.07985
416.272061
414.445541
412.597974
410.726379
408.827021
406.895316
404.925735
402.911709
400.845555
398.718359
396.519844
394.238929
391.863841
389.381626
386.778497
384.039858
381.149244
378.096058
374.871901
371.47346
367.905036
364.181427
360.331083
356.398972
352.449339
348.566188
344.852205
341.422418
338.392575
335.863891
333.902907
332.523252
331.685673
331.313738
331.287774
331.444623
331.67481
331.882535
332.032655
332.11484
332.113126
472.48703
471.450018
470.386392
469.295971
468.178605
467.034174
465.862592
464.663804
463.437794
462.184585
460.904244
459.596887
458.262683
456.90186
455.514709
454.10159
452.662931
451.199239
449.711096
448.199165
446.66419
445.106991
443.52847
441.929599
440.311423
438.675046
437.021628
435.352369
433.6685
431.971263
430.261894
428.541597
426.811523
425.072734
423.32617
421.572615
419.812642
418.046576
416.274427
414.495837
412.710018
410.915665
409.1109
407.293178
405.459215
403.604899
401.725211
399.814151
397.864683
395.868703
393.817044
391.699497
389.504829
387.22104
384.835795
382.335979
379.708046
376.940455
374.023945
370.953051
367.728172
364.357702
360.860458
357.268427
353.6287
350.004485
346.475872
343.135483
340.083857
337.419772
335.223144
333.545582
332.395049
331.729389
331.537595
331.593182
331.778783
332.032742
332.260402
332.422659
472.458422
471.36358
470.240647
469.089441
467.909814
466.701656
465.464896
464.199503
462.905493
461.582931
460.231938
458.852696
457.445453
456.010532
454.548335
453.059349
451.544155
450.003426
448.43794
446.848574
445.236315
443.602254
441.947589
440.273621
438.58175
436.873468
435.150354
433.414058
431.666292
429.90881
428.143387
426.3718
424.595796
422.817062
421.037186
419.257619
417.479625
415.704237
413.932195
412.163896
410.399331
408.638019
406.878946
405.120495
403.360373
401.595552
399.822197
398.035592
396.230077
394.399
392.534666
390.628315
388.670171
386.649577
384.555288
382.377883
380.107171
377.732317
375.24246
372.627432
369.882299
367.005923
364.003024
360.88615
357.677137
354.408569
351.125663
347.886079
344.760132
341.827514
339.169086
336.860139
334.961429
333.509692
332.510453
331.959118
331.837139
331.915523
332.106935
332.364794
472.425649
471.264543
470.073625
468.852689
467.60157
466.320144
465.008332
463.666107
462.293493
460.890579
459.457516
457.994535
456.501944
454.980147
453.429641
451.851034
450.245045
448.612515
446.954414
445.271841
443.566036
441.838377
440.09038
438.323705
436.540145
434.741623
432.930188
431.107996
429.277299
427.440428
425.599767
423.757728
421.916717
420.0791
418.24716
416.423049
414.60874
412.805966
411.016168
409.240429
407.479418
405.733319
404.001779
402.283841
400.577874
398.881535
397.191717
395.50451
393.815166
392.118083
390.406852
388.674202
386.912096
385.111762
383.263757
381.355823
379.376425
377.314924
375.161899
372.921431
370.586705
368.150967
365.60996
362.966791
360.231413
357.419862
354.555712
351.671343
348.807615
346.012271
343.339466
340.847291
338.594977
336.638276
335.018003
333.753484
332.839767
332.337282
332.231907
332.39648
472.388863
471.153368
469.886098
468.5868
467.255264
465.891327
464.494878
463.065864
461.604296
460.110257
458.583911
457.025509
455.435404
453.814059
452.162055
450.480106
448.769064
447.029935
445.263883
443.472238
441.656507
439.818374
437.959708
436.082558
434.189158
432.281916
430.363407
428.436365
426.503661
424.568282
422.633309
420.701878
418.777145
416.862241
414.96022
413.074005
411.206327
409.359656
407.536138
405.73752
403.96508
402.219545
400.50104
398.809018
397.142212
395.498584
393.875313
392.268837
390.67475
389.087819
387.502125
385.911009
384.307192
382.682849
381.02972
379.339249
377.602955
375.81279
373.961435
372.028831
370.009742
367.899679
365.717971
363.470526
361.156953
358.780776
356.348642
353.884953
351.413859
348.963647
346.567896
344.263213
342.087329
340.075966
338.262568
336.67713
335.347205
334.302156
333.550561
333.128198
472.348695
471.03196
469.681276
468.296317
466.8768
465.422497
463.933237
462.408915
460.849501
459.255047
457.625702
455.96172
454.263474
452.53147
450.766357
448.968945
447.140215
445.281334
443.393668
441.47879
439.538495
437.574803
435.589969
433.586484
431.567074
429.534698
427.492536
425.443979
423.392608
421.342168
419.296535
417.259677
415.235601
413.228299
411.241691
409.279548
407.345416
405.442525
403.573713
401.741337
399.947189
398.192424
396.477477
394.802065
393.165048
391.564399
389.997186
388.459722
386.947435
385.454946
383.976203
382.504529
381.032747
379.553315
378.058476
376.540431
374.991535
373.404515
371.772705
370.090343
368.354329
366.564838
364.698754
362.758288
360.74978
358.682043
356.596072
354.502172
352.405217
350.31307
348.262606
346.279954
344.389037
342.611255
340.966454
339.470606
338.13647
336.973494
335.993866
335.220801
472.306356
470.903975
469.465326
467.98998
466.47756
464.927744
463.340276
461.714972
460.051736
458.350568
456.611579
454.835004
453.02122
451.170762
449.284338
447.362849
445.407403
443.419337
441.40023
439.35192
437.276518
435.17642
433.054315
430.91319
428.756334
426.587331
424.410051
422.228635
420.047469
417.871155
415.704466
413.552295
411.419588
409.311271
407.232172
405.186936
403.179924
401.215125
399.296036
397.425571
395.605956
393.838632
392.124157
390.462258
388.851645
387.290027
385.774106
384.299702
382.861733
381.454328
380.070944
378.704503
377.347556
375.992452
374.631529
373.257306
371.862694
370.441201
368.987159
367.495952
365.964229
364.389947
362.772187
361.113698
359.421281
357.705789
355.940704
354.152916
352.366062
350.601608
348.898173
347.274733
345.751527
344.347316
343.076201
341.94116
340.931123
340.019384
339.175813
338.376328
472.263732
470.775116
469.247868
467.68144
466.075337
464.429122
462.742434
461.014992
459.246613
457.437225
455.586886
453.695799
451.764334
449.793046
447.782697
445.73428
443.649038
441.52849
439.374447
437.189037
434.974721
432.73431
430.470973
428.18825
425.890049
423.580643
421.264657
418.947044
416.633057
414.328206
412.038208
409.768926
407.526285
405.316187
403.144409
401.016491
398.937616
396.912494
394.945225
393.03917
391.196837
389.419772
387.70848
386.062437
384.479986
382.958362
381.493722
380.081219
378.715111
377.388891
376.095457
374.8273
373.576703
372.335962
371.097605
369.854612