/*--------------------------------*- C++ -*----------------------------------*\
  =========                 |
  \\      /  F ield         | OpenFOAM: The Open Source CFD Toolbox
   \\    /   O peration     | Website:  https://openfoam.org
    \\  /    A nd           | Version:  8
     \\/     M anipulation  |
\*---------------------------------------------------------------------------*/
FoamFile
{
    version     2.0;
    format      ascii;
    class       volVectorField;
    location    "0.042";
    object      U;
}
// * * * * * * * * * * * * * * * * * * * * * * * * * * * * * * * * * * * * * //

dimensions      [0 1 -1 0 0 0 0];

internalField   nonuniform List<vector> 
42400
(
(-0.0191265361 0.0182935824 -1.05443709e-26)
(-0.0579320264 0.0542907449 3.41704594e-26)
(-0.097609785 0.089771943 3.52299101e-26)
(-0.137749312 0.124286711 0)
(-0.1780642 0.157581939 0)
(-0.21839773 0.18950222 1.71926757e-28)
(-0.258683815 0.219970032 0)
(-0.298913428 0.248963504 -1.9888902e-28)
(-0.339108705 0.276492262 0)
(-0.379304169 0.302579057 -2.28725472e-28)
(-0.419534213 0.327248245 -2.4481088e-28)
(-0.459825662 0.350519459 2.61726862e-28)
(-0.500194085 0.372404934 -1.50586975e-26)
(-0.540642707 0.392909338 -1.2077296e-26)
(-0.581162944 0.41203117 3.17920514e-28)
(-0.621735822 0.429765024 0)
(-0.662333762 0.446104174 0)
(-0.702922346 0.461043146 0)
(-0.743461898 0.474580072 0)
(-0.783908728 0.486718725 0)
(-0.824216006 0.49747018 0)
(-0.864334235 0.50685412 9.77074218e-28)
(-0.904211315 0.514899758 1.84502167e-26)
(-0.943792192 0.521646427 4.15914289e-26)
(-0.983018089 0.527143833 2.28072041e-26)
(-1.02182529 0.531452003 1.23809363e-27)
(-1.06014347 0.534640958 1.3128642e-27)
(-1.09789353 0.536790131 -2.78387427e-27)
(-1.13498494 0.537987573 0)
(-1.17131252 0.538329012 0)
(-1.20675244 0.537916824 -2.9737617e-26)
(-1.24115802 0.536858753 -2.91238441e-26)
(-1.27435614 0.535265998 -3.71837487e-27)
(-1.30614335 0.533248971 2.5749117e-26)
(-1.33627922 0.530909741 2.67293788e-26)
(-1.36448135 0.528332719 0)
(-1.39052822 0.52565848 0)
(-1.41427502 0.523137934 0)
(-1.43487717 0.521867485 0)
(-1.45204895 0.519866661 1.83306495e-25)
(-1.46460473 0.518267803 1.59826767e-25)
(-1.47276311 0.516203092 2.00857672e-26)
(-1.47559817 0.515999056 -2.9134622e-25)
(-1.47103639 0.517509809 1.02424072e-26)
(-1.45799337 0.519629785 1.68213921e-25)
(-1.43240883 0.523230075 4.28637804e-26)
(-1.39469384 0.525433849 -1.11203618e-26)
(-1.34169874 0.528403871 8.26569538e-26)
(-1.27165387 0.532306267 -1.54793538e-26)
(-1.18240162 0.537216679 9.39950161e-26)
(-1.07115679 0.543179615 -1.11042711e-33)
(-0.93564474 0.550164301 -1.69202027e-25)
(-0.77471651 0.557423649 -1.10785441e-25)
(-0.582465934 0.566343844 -4.87836281e-26)
(-0.365831733 0.577604783 0)
(-0.110929659 0.595162221 0)
(0.172783584 0.616092885 0)
(0.51981092 0.637729567 6.18103462e-26)
(0.915078246 0.657666248 6.36334319e-26)
(1.3789845 0.679399949 0)
(1.90753347 0.703829865 2.33735076e-24)
(2.51135925 0.732634195 2.31607428e-24)
(3.19636108 0.764520292 -2.44279942e-24)
(3.96512518 0.799063622 -2.86823173e-24)
(4.82253042 0.83701612 0)
(5.77106007 0.877527158 0)
(6.83006814 0.904500983 -5.3440101e-24)
(8.02181264 0.928251632 -5.27416872e-24)
(9.23985978 1.00003687 3.74637653e-25)
(10.7317315 0.905026741 0)
(12.3379635 0.789240908 0)
(13.2136375 1.55105747 9.27700405e-25)
(14.9328223 1.52334866 7.33049938e-25)
(17.6039307 -0.26337766 0)
(18.5892242 0.178852998 1.16955778e-24)
(18.6881901 2.79738293 -3.10793633e-24)
(20.1988244 2.98132416 5.5738126e-24)
(22.3586818 0.804277081 -2.90574653e-24)
(23.1807396 0.00179509315 -1.78351565e-23)
(23.1846472 0.409341548 -2.61637034e-23)
(-0.0239330578 0.0211924291 0)
(-0.0718796416 0.0627708208 2.77961554e-26)
(-0.120327413 0.103733251 2.85173431e-26)
(-0.168829593 0.143641671 0)
(-0.217100055 0.18225882 0)
(-0.264981582 0.219444947 2.4200607e-26)
(-0.312412387 0.255136801 2.2778547e-26)
(-0.359388679 0.289323704 4.59273107e-29)
(-0.405936234 0.322023082 0)
(-0.452090078 0.353262311 3.96258615e-29)
(-0.497881176 0.383067466 3.58684184e-29)
(-0.543328636 0.411457294 -1.19217158e-26)
(-0.588435966 0.438440821 -1.82117483e-26)
(-0.633190104 0.464017461 -6.13226162e-27)
(-0.677562166 0.488178664 2.96203931e-27)
(-0.721509116 0.510910419 -3.08725408e-28)
(-0.764975773 0.532196068 0)
(-0.80789679 0.552019114 -1.12291983e-29)
(-0.850198343 0.570365797 0)
(-0.891799428 0.58722735 0)
(-0.932612673 0.602601867 0)
(-0.972544649 0.61649578 2.17430209e-26)
(-1.01149567 0.628924962 5.02838743e-26)
(-1.04935905 0.639915452 2.83701833e-26)
(-1.0860199 0.649503844 0)
(-1.12135329 0.65773736 5.29039503e-28)
(-1.15522183 0.664673666 3.30616882e-28)
(-1.18747272 0.670380441 -7.88053291e-28)
(-1.21793432 0.674934455 4.07367679e-26)
(-1.24641243 0.678419378 4.20011945e-26)
(-1.27268626 0.680924941 1.2143987e-27)
(-1.29650752 0.682550019 1.40914625e-27)
(-1.31759295 0.683401133 3.81023642e-26)
(-1.33567729 0.683596847 3.97643159e-26)
(-1.35053353 0.683286602 -5.87906375e-26)
(-1.36148189 0.683164961 -1.08989744e-25)
(-1.36840714 0.682213091 0)
(-1.37022985 0.681182134 -3.30571008e-27)
(-1.36693505 0.679699741 0)
(-1.35827487 0.679153758 -6.18606478e-27)
(-1.34114163 0.67943473 -1.40784757e-25)
(-1.31419733 0.679472138 -7.63294456e-26)
(-1.2749554 0.679483695 -8.24911691e-27)
(-1.22333093 0.678721606 1.11914428e-26)
(-1.15706029 0.678464965 -2.84324921e-26)
(-1.07458288 0.678961241 1.62472592e-26)
(-0.973605635 0.680126512 -1.82250935e-26)
(-0.851737763 0.681897014 9.34590488e-26)
(-0.706854106 0.684173262 2.05410964e-27)
(-0.537928207 0.686291691 0)
(-0.339617514 0.689189179 2.83126241e-26)
(-0.112507463 0.696778096 -6.10377655e-26)
(0.136417801 0.710660317 2.41937058e-25)
(0.431099943 0.72550459 -1.58467465e-25)
(0.783345427 0.738310364 -7.74969309e-26)
(1.19090271 0.751093841 1.02695983e-24)
(1.65761059 0.767292844 1.38785898e-24)
(2.19003383 0.787872285 9.42293815e-26)
(2.7930729 0.812381504 1.07816086e-25)
(3.47196317 0.840850226 1.85640588e-24)
(4.23114651 0.873668716 2.23523603e-24)
(5.0762498 0.911443131 -1.43674144e-25)
(6.0125219 0.954879548 1.57153415e-25)
(7.04252708 1.00478598 0)
(8.16807577 1.06236328 -2.87641775e-24)
(9.3684572 1.13528796 -6.66084974e-24)
(10.6587464 1.18541663 -4.43576726e-24)
(12.105146 1.16658738 0)
(13.4731899 1.26685973 2.93981402e-26)
(14.934165 1.35929745 3.97320099e-25)
(16.7588587 0.977433552 1.03076443e-23)
(17.9873604 1.14718945 6.75046584e-24)
(18.8027603 2.18191918 -7.29362919e-24)
(20.4973621 1.66299491 -1.15463492e-23)
(22.1899082 0.352264701 6.56133992e-26)
(22.9522705 0.763359632 1.50658918e-23)
(23.1794964 1.75646394 1.64805757e-23)
(23.2777396 1.98070421 -2.68671394e-24)
(23.2761304 1.60275492 -1.13251886e-23)
(23.2763157 1.23379547 -1.0878915e-23)
(-0.0281077472 0.0230094557 3.38621487e-27)
(-0.0840044274 0.0680908251 9.29389576e-29)
(-0.140082124 0.112507942 -9.98628741e-29)
(-0.195868781 0.15584244 1.00238907e-28)
(-0.251046547 0.197857884 0)
(-0.305467946 0.238433605 -1.8006292e-26)
(-0.359069282 0.277521045 2.11591884e-34)
(-0.411847275 0.315119526 1.44914849e-26)
(-0.463826541 0.351253001 1.23418839e-26)
(-0.515037192 0.385952388 1.98643646e-26)
(-0.565500732 0.419244631 7.52013076e-27)
(-0.615221979 0.451146969 2.66410262e-28)
(-0.664185285 0.481664852 2.73017517e-28)
(-0.712353693 0.510792303 -2.29044493e-27)
(-0.759669886 0.538513792 -5.97344526e-27)
(-0.806058073 0.564806905 8.70661275e-28)
(-0.851426191 0.589645322 1.34300207e-26)
(-0.895668018 0.613001759 3.67059285e-26)
(-0.938664936 0.634850673 2.28702837e-26)
(-0.980287211 0.655170626 6.06869991e-28)
(-1.02039471 0.673946257 -6.0345987e-28)
(-1.05883702 0.691169891 -5.94943595e-28)
(-1.09545296 0.70684285 0)
(-1.13006952 0.720976515 1.08864586e-27)
(-1.16250007 0.733593155 -5.21003483e-26)
(-1.19254179 0.744726195 3.50242799e-29)
(-1.219972 0.754420066 6.20671891e-26)
(-1.24454329 0.762729644 6.68898323e-26)
(-1.26598445 0.769720381 7.0991868e-26)
(-1.28400102 0.775478159 -7.31072605e-26)
(-1.2983077 0.780039063 -2.92015304e-29)
(-1.30855576 0.783504344 1.79802361e-25)
(-1.31422181 0.786168057 1.17589647e-25)
(-1.31507591 0.787723793 0)
(-1.31047582 0.788740772 0)
(-1.30024545 0.789207729 1.25292135e-27)
(-1.2837621 0.789925716 0)
(-1.25824353 0.790426623 -2.98969157e-27)
(-1.22258727 0.789856877 9.40415154e-27)
(-1.17396966 0.788971278 -1.09508253e-26)
(-1.11312349 0.787113026 -1.42275688e-25)
(-1.03789119 0.785431266 0)
(-0.946705079 0.784031145 0)
(-0.837282336 0.782822291 1.2606883e-25)
(-0.707271318 0.781702733 6.66360439e-26)
(-0.555494367 0.780057123 -2.18475753e-26)
(-0.37765758 0.77848859 0)
(-0.17650705 0.778453688 0)
(0.0576459197 0.783988078 4.23618301e-25)
(0.310065344 0.794065027 9.67122487e-26)
(0.618196017 0.803674711 3.52152106e-26)
(0.975267101 0.811695941 0)
(1.3867326 0.821730191 -5.4499183e-25)
(1.8569408 0.835520171 -4.72453204e-25)
(2.39074171 0.853368804 -1.01828662e-24)
(2.99163014 0.875427505 -1.25777914e-24)
(3.66422862 0.902127071 -1.40625886e-24)
(4.41392069 0.933678262 1.52958011e-32)
(5.24597049 0.970869834 -2.05305083e-32)
(6.16504649 1.01420306 -4.8157401e-24)
(7.17414543 1.06364486 -2.76870306e-24)
(8.27542506 1.11956275 3.04295325e-24)
(9.46587404 1.18323172 3.50370574e-24)
(10.7323635 1.25610224 0)
(12.0689796 1.3342147 4.04657212e-24)
(13.4252408 1.44083145 6.3415304e-24)
(14.7739728 1.56796506 3.89037503e-24)
(16.2612457 1.57648405 0)
(17.6914287 1.53432342 -2.70763276e-26)
(18.9547155 1.7555033 6.22137047e-24)
(20.2616014 1.74143764 6.64461309e-24)
(21.6837725 1.39059645 0)
(22.5710342 1.57623158 0)
(23.0275609 2.02080542 7.75986408e-25)
(23.3079424 1.93130486 -6.18480801e-25)
(23.3083606 1.64971323 8.14793693e-24)
(23.3096742 1.6651726 7.58930183e-24)
(23.299856 1.65387605 0)
(23.2840376 1.77524195 -6.38838492e-25)
(23.2211977 1.68649447 1.51812886e-23)
(-0.0317827114 0.0240104323 9.84021021e-29)
(-0.0946776499 0.0709742876 1.55908607e-28)
(-0.157468702 0.117207296 9.02856841e-27)
(-0.219647597 0.162309951 -7.86808415e-27)
(-0.280896437 0.206064461 -7.45658176e-27)
(-0.341027155 0.248350566 0)
(-0.399985694 0.289134919 -1.07442643e-26)
(-0.457773781 0.328433504 -8.6482962e-27)
(-0.514408584 0.36627925 -5.52024945e-27)
(-0.569910432 0.402707263 -2.4700305e-27)
(-0.624285728 0.437746314 1.85652577e-27)
(-0.67751848 0.471413546 1.16360869e-34)
(-0.729566639 0.503712619 4.99464969e-28)
(-0.780361443 0.534634312 6.60994265e-34)
(-0.829808576 0.564158611 -5.34851986e-28)
(-0.87779024 0.592257541 2.44582143e-26)
(-0.9241675 0.618898269 -3.00687813e-26)
(-0.968782495 0.644046183 -1.1401585e-27)
(-1.01146027 0.667667768 4.1203442e-26)
(-1.05201001 0.689733164 1.17587815e-27)
(-1.09022521 0.710218368 -2.40484354e-27)
(-1.12588285 0.729106986 -6.21303409e-26)
(-1.15874182 0.746391827 -6.97878554e-26)
(-1.18854103 0.762075453 1.17556796e-27)
(-1.21499411 0.776165117 0)
(-1.23779201 0.788667916 1.128119e-27)
(-1.25661136 0.79959295 0)
(-1.27109465 0.808978643 1.1126279e-25)
(-1.28088668 0.816843983 2.50033958e-25)
(-1.28563925 0.823361214 1.44645579e-25)
(-1.28492351 0.828745193 -1.62462315e-25)
(-1.27831763 0.833348498 -1.6328615e-25)
(-1.26574934 0.837077059 1.99583764e-27)
(-1.24480567 0.840088042 7.91596528e-28)
(-1.21462673 0.841922467 -1.08370166e-25)
(-1.1737864 0.842409018 -1.33013372e-25)
(-1.120028 0.841964829 0)
(-1.05377321 0.840658447 2.10440165e-25)
(-0.97312319 0.83910568 2.14274138e-25)
(-0.876467225 0.837383421 -7.27885613e-27)
(-0.761643478 0.835491865 -8.66740242e-27)
(-0.626311707 0.833419896 0)
(-0.469120301 0.830611685 0)
(-0.286222209 0.827604981 0)
(-0.0770637902 0.828496558 -1.67630667e-26)
(0.148375063 0.834062297 1.66181987e-25)
(0.420909848 0.839771787 8.22462092e-26)
(0.736746764 0.844010317 0)
(1.10054906 0.849581935 0)
(1.51566643 0.858770157 4.5169322e-25)
(1.98804974 0.872318969 4.41225816e-25)
(2.52130592 0.890116454 4.03484291e-25)
(3.11968562 0.91255997 4.51892279e-25)
(3.78806884 0.940200516 9.16716387e-26)
(4.53126785 0.973879591 -5.35260139e-25)
(5.35323571 1.01450106 -8.41931143e-25)
(6.25638313 1.06257465 -1.67820484e-24)
(7.24233016 1.1182691 -2.10323685e-24)
(8.31035899 1.18097215 0)
(9.46118292 1.24964411 -1.55841147e-25)
(10.6903762 1.32259962 -3.36738377e-24)
(11.9878493 1.39800976 -7.63472333e-24)
(13.3418364 1.47975823 2.01932701e-25)
(14.7126099 1.57524491 2.23096546e-25)
(16.0921314 1.67870858 -5.05941176e-24)
(17.4275447 1.78882047 4.11492291e-24)
(18.655784 1.93964122 4.41996376e-24)
(19.8732876 2.07228334 -6.3514333e-25)
(21.0530939 2.01052829 -2.70853742e-24)
(22.1845077 1.96605347 -1.17879241e-23)
(22.9221463 2.01000485 7.79970107e-26)
(23.2719074 1.99788407 -1.23761961e-23)
(23.3570383 1.96063159 -5.31422754e-24)
(23.3931974 1.96022491 0)
(23.4059479 1.97206287 -6.81014114e-24)
(23.3111464 2.03391046 -2.2731637e-23)
(23.250576 1.95991767 1.3959112e-24)
(23.2457971 1.92577747 6.85319008e-24)
(23.2412544 1.85527905 1.252422e-23)
(23.2364039 1.82327931 9.30612033e-24)
(-0.0352686744 0.0245347059 2.72655051e-27)
(-0.104758335 0.072374024 0)
(-0.173833765 0.119343473 0)
(-0.241953127 0.165064874 2.09793714e-30)
(-0.308779043 0.209342695 0)
(-0.374138834 0.252081031 0)
(-0.437944207 0.293250248 0)
(-0.500177845 0.332871317 -1.20890904e-27)
(-0.560873466 0.370992914 0)
(-0.620031885 0.407661515 6.63559664e-28)
(-0.677637785 0.442910164 1.08057811e-26)
(-0.733647074 0.476758717 9.03805422e-34)
(-0.787982948 0.509212708 -1.92433623e-26)
(-0.84053553 0.540264036 0)
(-0.891163245 0.569893159 -8.0598859e-28)
(-0.939694921 0.598072036 1.67868983e-27)
(-0.985931918 0.62476738 0)
(-1.02964998 0.649944069 5.58939657e-26)
(-1.07060104 0.673568227 1.85177915e-27)
(-1.10851434 0.695610317 -1.46608214e-25)
(-1.14309105 0.716040426 -8.61163544e-26)
(-1.17400196 0.73482972 1.9367359e-27)
(-1.20089689 0.751949323 0)
(-1.22343028 0.767342226 -1.12946626e-25)
(-1.24121021 0.781147772 -1.25213574e-25)
(-1.25392661 0.79342206 -1.40014854e-25)
(-1.26119928 0.80432557 -1.58460997e-25)
(-1.2626563 0.814000919 1.69269082e-25)
(-1.25726865 0.82229836 1.7526179e-25)
(-1.24406936 0.829155143 0)
(-1.22214322 0.834534576 -1.90616489e-25)
(-1.1903151 0.838392505 -2.08922631e-25)
(-1.1469221 0.840855682 2.77822599e-27)
(-1.09187979 0.842330534 -2.58530593e-25)
(-1.02366751 0.843094528 -2.70310818e-25)
(-0.940766212 0.843217057 -2.49697555e-27)
(-0.841497689 0.842782992 9.63422307e-28)
(-0.723741425 0.841878803 -2.95314366e-25)
(-0.585206478 0.840601629 -2.74695441e-25)
(-0.424320407 0.838540912 3.10265292e-25)
(-0.237554583 0.836108903 9.48049709e-25)
(-0.0233203537 0.837077426 4.80511759e-25)
(0.208118535 0.842026873 0)
(0.487193145 0.847030193 1.05013854e-26)
(0.808469255 0.851018132 -3.81345389e-25)
(1.17697904 0.857191663 1.20822422e-26)
(1.59606315 0.867089977 -3.3221963e-33)
(2.06980819 0.881072899 -4.50500015e-25)
(2.60244599 0.899578227 0)
(3.19859321 0.923457749 2.57088807e-26)
(3.86311341 0.953532186 -4.69046042e-25)
(4.60007223 0.990631063 -5.66193393e-25)
(5.41253245 1.03553741 1.55338115e-25)
(6.30220912 1.08889597 -5.00816178e-25)
(7.26926981 1.1511741 -7.79250165e-25)
(8.31266965 1.2228342 -9.15810773e-25)
(9.42864714 1.30374796 -3.39100779e-24)
(10.6143064 1.39288274 -2.60187975e-24)
(11.8599518 1.48782945 -2.84209639e-24)
(13.153291 1.58591473 -3.46782125e-24)
(14.479839 1.68530314 0)
(15.8194784 1.77781889 1.8195588e-25)
(17.162115 1.86910028 -4.74541859e-24)
(18.4354622 1.9629456 -5.74477261e-24)
(19.6387977 2.08166266 -2.85026087e-26)
(20.7188516 2.18434126 0)
(21.6851465 2.26776301 7.71266228e-24)
(22.5373124 2.34111735 1.1350745e-23)
(23.1362054 2.3732302 7.77722325e-25)
(23.2664318 2.38530258 -7.19782965e-25)
(23.3176127 2.3692895 -6.4101688e-27)
(23.3368598 2.291472 -9.629286e-25)
(23.341331 2.2383496 -8.07433153e-24)
(23.3135259 2.20855746 -1.06791386e-23)
(23.3169006 2.10479105 -5.67979651e-25)
(23.3144033 2.03874684 0)
(23.2486384 2.09319011 -9.35754069e-24)
(23.2108301 2.04839964 -1.07674289e-23)
(23.2042839 2.02284022 0)
(23.194284 1.95350288 -1.41048621e-23)
(-0.0388637614 0.0248292277 -5.22006754e-27)
(-0.115058567 0.0730044272 -7.8786452e-27)
(-0.190427948 0.120081698 -7.99078532e-27)
(-0.264399288 0.165707766 -3.49865645e-28)
(-0.336617752 0.209711675 4.6065931e-27)
(-0.406898619 0.252022344 -7.73369235e-28)
(-0.475168881 0.29263385 -4.30151322e-28)
(-0.541388866 0.331578251 1.30412299e-28)
(-0.605557471 0.368907177 9.01270241e-28)
(-0.667669541 0.404677217 1.88772254e-27)
(-0.727677865 0.438932842 -8.49312374e-27)
(-0.785500647 0.471701018 -3.84906179e-26)
(-0.841015475 0.502993857 -3.30428994e-26)
(-0.894058885 0.532810159 -3.99875831e-26)
(-0.94442819 0.561137879 1.17873243e-27)
(-0.991883924 0.587956859 6.18444966e-26)
(-1.03614635 0.613239253 0)
(-1.07689503 0.636953083 0)
(-1.11377703 0.659070414 9.02419376e-26)
(-1.14644564 0.679513819 1.98675131e-25)
(-1.17448264 0.698388645 1.09287629e-25)
(-1.19756219 0.715685633 1.26235824e-25)
(-1.21527631 0.731526739 9.09618613e-34)
(-1.22688583 0.745781365 -1.71388831e-25)
(-1.23175671 0.758389172 1.82116497e-25)
(-1.22911427 0.769380564 3.98774394e-25)
(-1.21808305 0.778754568 2.1225532e-25)
(-1.19760635 0.78649632 -3.2038728e-27)
(-1.16706242 0.79293228 3.20722503e-27)
(-1.12547968 0.798208894 -6.36365593e-27)
(-1.07159133 0.802396077 0)
(-1.00401793 0.805576717 3.09643611e-25)
(-0.921260657 0.807853278 -5.93897598e-27)
(-0.821609393 0.809366777 -3.40034328e-25)
(-0.702939679 0.810283105 0)
(-0.563040146 0.81076983 -3.49162108e-25)
(-0.40019452 0.810556758 -3.74884215e-25)
(-0.211162914 0.810004455 0)
(0.00629218435 0.812377404 0)
(0.242702457 0.81803583 -3.49390707e-25)
(0.526386001 0.823855564 -3.35753453e-25)
(0.851380172 0.829147974 1.02079309e-26)
(1.22190234 0.837145123 0)
(1.64205048 0.849117626 5.13220534e-25)
(2.11554768 0.865361206 1.02741672e-24)
(2.64661762 0.886546343 5.32164562e-25)
(3.23978996 0.913431431 -3.85945135e-27)
(3.89922736 0.946866626 -1.4027204e-27)
(4.62845227 0.987717759 0)
(5.43003502 1.0368065 -6.23469319e-25)
(6.30531157 1.09487404 3.74966639e-26)
(7.25429596 1.16262149 7.80359131e-25)
(8.27523448 1.24053864 6.38400911e-26)
(9.36498249 1.32891231 -9.26489785e-25)
(10.517834 1.42741144 -2.4106789e-24)
(11.7276966 1.53584423 1.3699958e-32)
(12.9798113 1.65317729 1.35871785e-24)
(14.2588769 1.77800184 0)
(15.5434598 1.90585807 0)
(16.8159369 2.02972744 1.48440926e-25)
(18.0554798 2.14938275 1.54369428e-25)
(19.2422237 2.24742983 0)
(20.381439 2.33902282 4.11140943e-24)
(21.3684329 2.39695725 3.8162084e-24)
(22.2863714 2.4742646 -8.62250617e-24)
(22.9067811 2.52490162 -2.68940942e-23)
(23.2854692 2.57527301 -9.17400015e-24)
(23.3182769 2.64080229 -4.59928351e-24)
(23.3281823 2.67377622 -1.56714116e-24)
(23.2741927 2.64524862 -5.11300529e-25)
(23.2450887 2.64436201 7.70540648e-24)
(23.250149 2.53045502 8.80211928e-24)
(23.2752905 2.42170613 -7.59211021e-24)
(23.2861807 2.35021114 -6.77516893e-24)
(23.2308682 2.31508058 -9.67968024e-24)
(23.2030337 2.26531905 -8.43652928e-24)
(23.207555 2.1880973 -9.96103414e-24)
(23.2065103 2.16896643 5.44419314e-32)
(23.2147336 2.14765222 1.43685966e-23)
(23.206438 2.11291241 1.86165674e-23)
(-0.042754524 0.0250049221 2.72988568e-27)
(-0.126063459 0.0732025433 4.37049109e-28)
(-0.207964064 0.119997341 7.1283894e-27)
(-0.287855587 0.165066891 -7.61123756e-34)
(-0.365366022 0.208269822 -3.56517409e-27)
(-0.440299838 0.249560286 -2.44426237e-27)
(-0.512571182 0.288956993 1.95535923e-27)
(-0.582149706 0.326507232 2.48276253e-27)
(-0.648966104 0.362277215 7.04751546e-27)
(-0.713009098 0.396327946 1.07862316e-26)
(-0.774182216 0.428720137 1.47059928e-26)
(-0.832349505 0.459490758 1.75465487e-26)
(-0.887325207 0.488662518 2.3772646e-26)
(-0.938869454 0.51624709 3.05187973e-26)
(-0.98669144 0.54224755 1.64086196e-27)
(-1.03048015 0.566618125 1.70304899e-27)
(-1.06982665 0.589417049 8.80101511e-26)
(-1.10436249 0.610649907 1.05127846e-25)
(-1.13361645 0.630265687 -3.80720374e-27)
(-1.15699316 0.648309771 -4.00835982e-27)
(-1.17393242 0.664688441 1.6010671e-25)
(-1.18369512 0.679446843 1.75506595e-25)
(-1.18549041 0.692519823 0)
(-1.17869064 0.704174694 4.54356554e-27)
(-1.16243373 0.714395694 0)
(-1.13567205 0.723253887 0)
(-1.09730165 0.730808854 4.91649638e-27)
(-1.04609095 0.737146345 -3.05282789e-25)
(-0.980681506 0.742387826 -3.12739899e-25)
(-0.899553229 0.746693001 3.30455902e-25)
(-0.800956951 0.750221613 3.64363854e-25)
(-0.682878604 0.75316804 1.03177907e-26)
(-0.543172108 0.755753838 -1.00664096e-26)
(-0.380024946 0.757826034 0)
(-0.190439679 0.759702094 1.09721435e-26)
(0.0283216616 0.764113955 0)
(0.26769563 0.771308661 0)
(0.553433506 0.778974425 1.04622779e-26)
(0.879715515 0.786709415 0)
(1.25004226 0.79758745 0)
(1.66899709 0.812637409 5.7597069e-25)
(2.14001087 0.832096837 5.99314419e-25)
(2.66708857 0.856701959 0)
(3.2544367 0.887251296 0)
(3.90581727 0.924592453 0)
(4.62443669 0.969603021 1.52332101e-26)
(5.41263326 1.02317282 1.10063963e-26)
(6.27157401 1.08615574 7.4643498e-25)
(7.2010229 1.15928964 8.17539829e-25)
(8.19910257 1.2431255 8.98025693e-25)
(9.26199145 1.33787674 1.00524544e-24)
(10.3843391 1.44348383 1.14138027e-24)
(11.5581746 1.55910741 1.30528343e-24)
(12.7760354 1.68361031 0)
(14.0231902 1.81464288 0)
(15.2839539 1.95144869 -1.47732276e-24)
(16.5316077 2.09321742 -3.1891828e-24)
(17.7442102 2.24007128 -1.75216603e-24)
(18.8922284 2.38655832 -1.77864652e-24)
(19.9640958 2.51611926 -1.47396924e-24)
(20.9501953 2.62806991 4.07961354e-24)
(21.8410728 2.70176929 1.18629629e-23)
(22.6177515 2.739301 3.00108529e-25)
(23.1513964 2.76459538 -1.19901552e-23)
(23.3045841 2.79081444 2.71957249e-25)
(23.3485417 2.8023301 -4.5008533e-25)
(23.3578011 2.81996961 3.48960373e-24)
(23.3456067 2.81434589 -3.32126762e-32)
(23.268516 2.83972595 -8.39555213e-24)
(23.1991101 2.8353663 -6.1421501e-25)
(23.1504974 2.8037878 6.90559678e-24)
(23.1353628 2.76422431 6.91899154e-24)
(23.1441718 2.70252951 0)
(23.1608476 2.6183539 3.34272095e-25)
(23.1660209 2.52895027 0)
(23.179371 2.43794352 5.61005103e-24)
(23.2251639 2.37511025 1.53826556e-23)
(23.2546279 2.34410466 8.84421647e-24)
(23.2893273 2.35232059 9.10873434e-24)
(23.2709019 2.31894504 1.95429584e-23)
(-0.0469593968 0.0250426384 2.71325333e-27)
(-0.137759568 0.0729387838 8.24136367e-27)
(-0.226323312 0.119082771 -6.29503589e-28)
(-0.312022617 0.16318902 -4.45368758e-27)
(-0.394467405 0.205149703 -1.82620924e-27)
(-0.473447917 0.244947089 3.07141427e-28)
(-0.548861422 0.282624701 -1.54967138e-27)
(-0.62065034 0.318257241 -9.12977469e-27)
(-0.688753329 0.351917279 -1.29591691e-26)
(-0.753017474 0.383688296 -1.77743275e-26)
(-0.813342102 0.413624046 0)
(-0.869509366 0.441795838 -3.96181912e-27)
(-0.92126222 0.46820884 2.07926975e-27)
(-0.96823423 0.492976165 0)
(-1.0100591 0.516026566 0)
(-1.04623028 0.537453356 0)
(-1.07626013 0.557207809 0)
(-1.09951053 0.575303494 -2.58464039e-27)
(-1.11531599 0.591811977 0)
(-1.12297278 0.606776362 -9.34251821e-26)
(-1.12164819 0.620229752 -1.03741316e-25)
(-1.11042722 0.632210609 2.10658434e-25)
(-1.08827121 0.642796631 2.38723725e-25)
(-1.05407271 0.652060355 -2.55941277e-25)
(-1.00658439 0.660124971 -2.93257351e-25)
(-0.944424448 0.667129419 -3.11291361e-25)
(-0.866058173 0.673232222 -3.30448262e-25)
(-0.769734962 0.678628405 -3.78655957e-25)
(-0.653529088 0.683599177 -7.58497752e-25)
(-0.515630987 0.688257588 -3.87453527e-25)
(-0.354095077 0.692514009 0)
(-0.165919784 0.696817911 -1.66554737e-26)
(0.0519960863 0.703426908 -1.66970035e-26)
(0.291882102 0.712527964 0)
(0.576864378 0.722504298 1.69656532e-26)
(0.901491157 0.733120133 0)
(1.26910196 0.747103107 0)
(1.68413876 0.765340972 6.31875249e-25)
(2.14980288 0.788109363 -1.88848639e-26)
(2.66986382 0.816194338 -6.52038115e-25)
(3.24824593 0.850432403 6.9542296e-25)
(3.88844559 0.891698815 7.03211644e-25)
(4.59346137 0.940908028 1.92253982e-26)
(5.365467 0.998970346 0)
(6.20553686 1.06675215 7.73653445e-25)
(7.11340742 1.14501006 8.92493429e-25)
(8.08720086 1.23431203 0)
(9.12319877 1.33496784 0)
(10.2156702 1.44690758 -1.14710381e-24)
(11.3569978 1.5696925 -1.27562954e-24)
(12.537157 1.70208532 1.43565011e-24)
(13.7464937 1.84237084 1.55184147e-24)
(14.9688566 1.98760614 -1.66078681e-24)
(16.1876353 2.13582477 7.10586042e-33)
(17.3795842 2.28167037 2.036971e-24)
(18.5312038 2.42339439 1.10142972e-26)
(19.6065265 2.55711616 0)
(20.5890027 2.6909974 1.08984683e-25)
(21.4468404 2.82019826 -2.17388066e-24)
(22.1751516 2.91673817 2.88055146e-25)
(22.8103309 2.97616328 4.79600673e-24)
(23.1855055 3.01630855 0)
(23.2574553 3.04888159 2.39956354e-25)
(23.2848087 3.04273603 0)
(23.3016942 3.00232733 1.30503692e-25)
(23.3131866 2.9682541 -1.30223893e-25)
(23.3169078 2.91964035 -3.63187817e-25)
(23.2838821 2.90922522 -6.69173611e-24)
(23.1767133 2.8972253 -1.01102408e-23)
(23.1016945 2.93627892 -4.29144785e-25)
(23.1038667 2.88831428 -8.50105335e-24)
(23.1056562 2.8481558 -6.17052198e-24)
(23.1058602 2.82388043 -8.24818389e-24)
(23.120948 2.80038725 -5.31623035e-24)
(23.1421147 2.74182555 -8.60996291e-24)
(23.1541393 2.71306847 -9.37140199e-24)
(23.2948179 2.58181249 9.53341294e-24)
(23.4310877 2.51022518 9.96685027e-24)
(23.5008765 2.5778911 -1.4782952e-24)
(23.4235275 2.63111915 1.27572133e-24)
(-0.0512250661 0.0247891191 2.36133059e-27)
(-0.149354406 0.0718052225 -7.7248112e-27)
(-0.244131491 0.116728035 -8.4501912e-28)
(-0.334900704 0.159315457 -8.68029111e-34)
(-0.421249525 0.199494325 1.13008333e-27)
(-0.502943385 0.237274813 -9.84475779e-28)
(-0.579848178 0.272722676 8.61447677e-27)
(-0.651864265 0.305934703 1.64787088e-33)
(-0.718882149 0.337015956 -3.33259726e-26)
(-0.780738662 0.366072831 -2.31779304e-26)
(-0.837169449 0.39317129 2.53120763e-27)
(-0.887859377 0.418383104 -3.85197559e-26)
(-0.932395901 0.441805233 -4.04344803e-26)
(-0.970339442 0.463405599 -5.04193099e-26)
(-1.00109308 0.483322909 -5.81072134e-26)
(-1.02403064 0.50157056 6.68201374e-26)
(-1.03842017 0.518203702 7.61506702e-26)
(-1.04343679 0.533278877 -3.44060257e-27)
(-1.03816172 0.54687359 0)
(-1.02162154 0.559050152 -1.03609148e-25)
(-0.992638729 0.569942478 -1.19162956e-25)
(-0.950002052 0.579646824 -8.25671113e-27)
(-0.892334411 0.588317634 1.44294522e-25)
(-0.818119211 0.596126109 1.66608611e-25)
(-0.725646502 0.603273471 -1.83845371e-26)
(-0.613070216 0.609971011 0)
(-0.478545814 0.616233879 9.94349113e-27)
(-0.319669819 0.622193591 2.80234108e-28)
(-0.133212404 0.629138456 -5.36008637e-25)
(0.0769676625 0.638568716 -4.84857416e-25)
(0.316377281 0.64974169 4.26370717e-25)
(0.598726594 0.661430068 4.53583003e-25)
(0.919268641 0.674496517 -4.87094532e-26)
(1.28162042 0.691271366 -5.9696107e-25)
(1.68984478 0.712461594 -1.82065709e-32)
(2.14716593 0.738341689 6.51502615e-25)
(2.65721428 0.769692836 -7.0908831e-25)
(3.22365599 0.807364424 -7.10905359e-25)
(3.84974452 0.852243365 -5.69204438e-26)
(4.53828611 0.905251222 2.92145103e-26)
(5.29134659 0.967300166 2.82276675e-26)
(6.11000596 1.03925801 -8.50768413e-25)
(6.99413129 1.12189124 -1.7711983e-24)
(7.94210389 1.21580075 -9.58261356e-25)
(8.95056388 1.32135854 -1.08000228e-24)
(10.014184 1.43863274 -1.1198332e-24)
(11.1255172 1.56731143 0)
(12.274938 1.70662729 1.32324501e-24)
(13.4508236 1.85519247 1.49385857e-24)
(14.6406015 2.01095749 1.60750506e-24)
(15.82858 2.17078254 3.39311041e-24)
(16.9966303 2.33226364 3.53424002e-24)
(18.1215636 2.49043399 3.74355385e-24)
(19.1876784 2.64427219 3.85393617e-24)
(20.1649713 2.78274765 2.0437506e-24)
(21.0647265 2.90952159 -1.31458593e-25)
(21.8375235 3.00345479 0)
(22.528794 3.09199062 -3.68880336e-24)
(22.9846261 3.15335064 -5.04546047e-24)
(23.2344919 3.21230003 0)
(23.2549009 3.2588652 -2.59259936e-24)
(23.2503683 3.26529936 -1.17361401e-24)
(23.2448865 3.23910183 0)
(23.2310653 3.22130588 -1.47583898e-25)
(23.2271833 3.18440033 0)
(23.2193468 3.10532959 -7.90850309e-24)
(23.2075896 3.06069327 -6.29087321e-25)
(23.1750499 3.01322677 6.26629902e-24)
(23.1093427 3.00359453 -3.91096806e-25)
(23.0984793 2.96689993 -5.29933298e-25)
(23.0947632 2.98085945 -4.61279243e-24)
(23.1134829 2.94950466 -6.29328983e-24)
(23.1310457 2.94877041 -4.88661607e-25)
(23.1785658 2.95210312 -5.41426157e-25)
(23.1914744 2.9754382 -4.65208835e-26)
(23.220183 3.0036011 -6.78714771e-25)
(23.4082781 2.89962984 8.90260567e-24)
(23.6927464 2.76704913 2.19882911e-23)
(23.8492633 2.78681032 1.34406424e-23)
(23.7916336 2.84468682 -1.01752014e-24)
(-0.0551146846 0.0240570896 0)
(-0.159536836 0.0692889025 -1.04368684e-27)
(-0.259186222 0.112141913 1.09830853e-27)
(-0.353377173 0.152425228 -3.02308794e-27)
(-0.441668865 0.190103157 1.21795412e-27)
(-0.523788159 0.225224728 1.28265036e-27)
(-0.599554141 0.257873352 -1.56029695e-26)
(-0.668788215 0.288170836 0)
(-0.731275938 0.316240446 2.96561609e-27)
(-0.786738788 0.342182608 -3.27173873e-26)
(-0.834796357 0.366131019 -3.60946281e-26)
(-0.874998556 0.388171708 4.69129889e-26)
(-0.906788494 0.408400125 3.62405855e-27)
(-0.929505519 0.426905965 -1.23861167e-25)
(-0.942386625 0.443778635 -1.46697424e-25)
(-0.944559708 0.459121407 -7.91130918e-26)
(-0.935065831 0.473012149 -4.35505461e-27)
(-0.912782435 0.485604192 -1.04873288e-25)
(-0.87651056 0.497003609 -1.12114746e-25)
(-0.824902312 0.50737513 4.89774038e-27)
(-0.756474422 0.516900616 -5.20076325e-27)
(-0.669575682 0.525790077 -2.15070305e-26)
(-0.562420833 0.534272096 -1.6564292e-25)
(-0.433206157 0.542447017 -3.64244835e-25)
(-0.279684762 0.550646331 -2.1290252e-25)
(-0.099821602 0.56014127 -1.26368253e-26)
(0.104035223 0.571095561 -1.89850378e-25)
(0.344205145 0.583195263 1.34871703e-26)
(0.61906313 0.596570469 -1.4099688e-26)
(0.931689845 0.612644306 -2.74166347e-25)
(1.28570036 0.632396459 0)
(1.68437675 0.656310774 -6.31568627e-25)
(2.13071352 0.684892322 -3.24835594e-26)
(2.62808921 0.719027422 7.16368307e-25)
(3.17990234 0.759598543 7.53006804e-25)
(3.78921027 0.807498738 7.91168344e-25)
(4.45867605 0.863638503 -3.67465179e-26)
(5.19030466 0.928916767 0)
(5.98522473 1.00418874 -7.62364439e-26)
(6.84348446 1.09021375 -9.27822301e-25)
(7.76379928 1.18759804 -9.86866098e-25)