/*--------------------------------*- C++ -*----------------------------------*\
  =========                 |
  \\      /  F ield         | OpenFOAM: The Open Source CFD Toolbox
   \\    /   O peration     | Website:  https://openfoam.org
    \\  /    A nd           | Version:  8
     \\/     M anipulation  |
\*---------------------------------------------------------------------------*/
FoamFile
{
    version     2.0;
    format      ascii;
    class       volScalarField;
    location    "0.051";
    object      p;
}
// * * * * * * * * * * * * * * * * * * * * * * * * * * * * * * * * * * * * * //

dimensions      [1 -1 -2 0 0 0 0];

internalField   nonuniform List<scalar> 
42400
(
101454.088
101454.078
101454.066
101454.054
101454.04
101454.025
101454.009
101453.992
101453.973
101453.953
101453.933
101453.91
101453.887
101453.862
101453.836
101453.808
101453.779
101453.748
101453.715
101453.681
101453.645
101453.607
101453.567
101453.525
101453.48
101453.433
101453.384
101453.332
101453.277
101453.219
101453.159
101453.095
101453.029
101452.959
101452.886
101452.81
101452.737
101452.668
101452.591
101452.494
101452.387
101452.282
101452.184
101452.088
101451.99
101451.889
101451.787
101451.683
101451.575
101451.462
101451.36
101451.267
101451.179
101451.065
101450.923
101450.795
101450.681
101450.563
101450.43
101450.287
101450.132
101449.957
101449.767
101449.564
101449.359
101449.14
101448.878
101448.605
101448.238
101447.724
101447.592
101446.981
101445.216
101444.697
101450.447
101454.146
101448.694
101444.812
101446.567
101448.578
101453.718
101453.711
101453.702
101453.692
101453.682
101453.67
101453.657
101453.644
101453.629
101453.613
101453.597
101453.579
101453.56
101453.54
101453.519
101453.496
101453.473
101453.448
101453.422
101453.394
101453.365
101453.334
101453.301
101453.267
101453.231
101453.193
101453.153
101453.11
101453.066
101453.019
101452.97
101452.918
101452.863
101452.809
101452.759
101452.709
101452.645
101452.564
101452.48
101452.404
101452.333
101452.26
101452.185
101452.109
101452.031
101451.951
101451.865
101451.79
101451.731
101451.652
101451.549
101451.454
101451.374
101451.302
101451.224
101451.143
101451.06
101450.974
101450.884
101450.795
101450.717
101450.652
101450.595
101450.54
101450.483
101450.447
101450.425
101450.509
101450.645
101450.63
101450.992
101451.755
101451.781
101452.447
101454.621
101455.671
101459.558
101463.222
101466.455
101467.528
101453.477
101453.472
101453.466
101453.459
101453.451
101453.442
101453.433
101453.422
101453.411
101453.399
101453.386
101453.373
101453.358
101453.343
101453.326
101453.309
101453.291
101453.272
101453.252
101453.231
101453.209
101453.186
101453.161
101453.136
101453.108
101453.08
101453.05
101453.018
101452.984
101452.95
101452.917
101452.883
101452.85
101452.807
101452.753
101452.696
101452.644
101452.596
101452.547
101452.495
101452.442
101452.387
101452.33
101452.268
101452.215
101452.177
101452.12
101452.042
101451.979
101451.929
101451.878
101451.825
101451.774
101451.724
101451.675
101451.632
101451.601
101451.588
101451.59
101451.606
101451.642
101451.702
101451.794
101451.928
101452.107
101452.37
101452.668
101453.146
101453.778
101454.473
101455.247
101456.071
101457.306
101459.868
101463.626
101465.678
101467.347
101470.472
101473.509
101476.197
101453.359
101453.355
101453.35
101453.345
101453.339
101453.333
101453.325
101453.317
101453.309
101453.3
101453.291
101453.281
101453.271
101453.26
101453.248
101453.237
101453.224
101453.211
101453.198
101453.184
101453.17
101453.155
101453.139
101453.122
101453.105
101453.086
101453.067
101453.048
101453.028
101453.007
101452.98
101452.951
101452.92
101452.891
101452.865
101452.836
101452.806
101452.774
101452.742
101452.707
101452.666
101452.634
101452.616
101452.58
101452.526
101452.487
101452.458
101452.428
101452.396
101452.365
101452.337
101452.313
101452.3
101452.302
101452.321
101452.354
101452.405
101452.481
101452.596
101452.752
101452.957
101453.214
101453.546
101453.941
101454.409
101454.993
101455.634
101456.442
101457.068
101458.055
101460.525
101464.385
101466.203
101466.978
101468.476
101470.627
101473.564
101475.428
101477.14
101479.41
101453.344
101453.341
101453.337
101453.332
101453.328
101453.322
101453.317
101453.31
101453.304
101453.297
101453.291
101453.284
101453.277
101453.27
101453.263
101453.256
101453.249
101453.242
101453.235
101453.228
101453.221
101453.213
101453.204
101453.195
101453.187
101453.18
101453.172
101453.163
101453.153
101453.143
101453.133
101453.124
101453.113
101453.101
101453.089
101453.076
101453.06
101453.04
101453.028
101453.028
101453.012
101452.979
101452.96
101452.952
101452.939
101452.925
101452.913
101452.904
101452.903
101452.914
101452.935
101452.97
101453.019
101453.088
101453.187
101453.322
101453.502
101453.731
101454.019
101454.371
101454.816
101455.325
101455.965
101456.663
101457.534
101458.333
101459.137
101460.761
101464.112
101466.754
101467.536
101468.126
101469.793
101472.085
101473.875
101475.789
101478.001
101480.651
101483.371
101485.747
101453.4
101453.396
101453.392
101453.387
101453.383
101453.378
101453.373
101453.369
101453.364
101453.359
101453.355
101453.351
101453.347
101453.344
101453.341
101453.339
101453.337
101453.335
101453.332
101453.33
101453.33
101453.332
101453.335
101453.338
101453.341
101453.344
101453.347
101453.35
101453.353
101453.356
101453.359
101453.362
101453.364
101453.365
101453.363
101453.367
101453.383
101453.384
101453.371
101453.371
101453.38
101453.383
101453.387
101453.393
101453.405
101453.422
101453.448
101453.483
101453.529
101453.592
101453.677
101453.789
101453.936
101454.123
101454.359
101454.65
101455.005
101455.434
101455.949
101456.54
101457.26
101458.032
101458.964
101459.795
101461.048
101463.656
101466.911
101468.222
101468.48
101469.898
101471.724
101473.171
101475.145
101477.07
101479.149
101481.284
101483.45
101485.933
101488.36
101490.582
101453.492
101453.487
101453.482
101453.477
101453.473
101453.468
101453.464
101453.46
101453.457
101453.454
101453.452
101453.451
101453.45
101453.45
101453.451
101453.454
101453.457
101453.462
101453.469
101453.477
101453.485
101453.493
101453.502
101453.512
101453.524
101453.535
101453.548
101453.561
101453.575
101453.589
101453.604
101453.615
101453.632
101453.661
101453.677
101453.681
101453.696
101453.72
101453.739
101453.759
101453.783
101453.809
101453.841
101453.879
101453.926
101453.985
101454.059
101454.154
101454.275
101454.427
101454.617
101454.851
101455.14
101455.492
101455.914
101456.417
101457.014
101457.704
101458.5
101459.366
101460.391
101461.439
101462.855
101465.763
101467.619
101468.23
101469.264
101470.978
101472.841
101474.311
101475.967
101478.102
101479.715
101481.264
101483.699
101485.879
101487.925
101490.351
101493.082
101496.293
101453.574
101453.569
101453.563
101453.559
101453.555
101453.551
101453.548
101453.546
101453.545
101453.545
101453.545
101453.546
101453.549
101453.554
101453.56
101453.567
101453.575
101453.586
101453.597
101453.611
101453.625
101453.641
101453.659
101453.678
101453.698
101453.719
101453.742
101453.765
101453.787
101453.814
101453.851
101453.878
101453.896
101453.924
101453.959
101453.992
101454.025
101454.061
101454.101
101454.144
101454.194
101454.252
101454.32
101454.403
101454.504
101454.627
101454.778
101454.963
101455.19
101455.465
101455.799
101456.198
101456.674
101457.238
101457.9
101458.656
101459.525
101460.49
101461.596
101462.715
101464.215
101466.774
101468.298
101468.749
101469.88
101471.792
101473.239
101474.783
101476.6
101478.445
101480.367
101482.295
101484.024
101486.17
101488.433
101490.773
101493.42
101496.013
101498.135
101499.762
101453.6
101453.596
101453.591
101453.587
101453.584
101453.582
101453.582
101453.582
101453.583
101453.587
101453.592
101453.599
101453.607
101453.616
101453.627
101453.64
101453.655
101453.672
101453.691
101453.711
101453.734
101453.758
101453.785
101453.813
101453.842
101453.871
101453.905
101453.948
101453.984
101454.013
101454.051
101454.096
101454.139
101454.183
101454.23
101454.28
101454.335
101454.395
101454.462
101454.538
101454.627
101454.73
101454.853
101455
101455.177
101455.39
101455.646
101455.954
101456.322
101456.758
101457.272
101457.875
101458.576
101459.375
101460.285
101461.289
101462.41
101463.602
101465.076
101467.023
101468.25
101468.999
101470.346
101472.158
101473.837
101475.495
101477.265
101479.073
101480.908
101482.798
101484.735
101486.688
101488.692
101490.903
101493.11
101495.318
101497.567
101499.649
101501.766
101503.968
101453.531
101453.528
101453.525
101453.524
101453.524
101453.525
101453.528
101453.532
101453.539
101453.547
101453.556
101453.568
101453.582
101453.598
101453.617
101453.637
101453.66
101453.686
101453.713
101453.743
101453.776
101453.81
101453.845
101453.885
101453.934
101453.977
101454.015
101454.062
101454.116
101454.168
101454.223
101454.28
101454.341
101454.405
101454.475
101454.552
101454.636
101454.73
101454.838
101454.961
101455.105
101455.274
101455.473
101455.709
101455.99
101456.323
101456.716
101457.18
101457.722
101458.354
101459.085
101459.92
101460.86
101461.905
101463.047
101464.312
101465.577
101467.039
101468.386
101469.572
101471.17
101472.851
101474.533
101476.201
101477.882
101479.58
101481.316
101483.138
101485.048
101487.035
101489.005
101491
101493.081
101495.161
101496.983
101499.319
101502.268
101504.764
101506.766
101508.138
101453.325
101453.325
101453.326
101453.328
101453.332
101453.338
101453.346
101453.356
101453.368
101453.383
101453.4
101453.419
101453.442
101453.467
101453.494
101453.525
101453.558
101453.595
101453.634
101453.674
101453.72
101453.773
101453.823
101453.871
101453.926
101453.988
101454.05
101454.114
101454.182
101454.254
101454.329
101454.41
101454.497
101454.591
101454.694
101454.808
101454.937
101455.082
101455.248
101455.44
101455.663
101455.923
101456.226
101456.58
101456.993
101457.473
101458.028
101458.665
101459.393
101460.223
101461.158
101462.21
101463.369
101464.618
101465.936
101467.292
101468.772
101470.249
101471.764
101473.336
101474.904
101476.538
101478.263
101479.997
101481.711
101483.345
101484.86
101486.751
101489.244
101491.666
101494.019
101496.355
101498.559
101501.157
101503.936
101505.604
101506.821
101508.552
101510.844
101513.701
101452.928
101452.932
101452.938
101452.946
101452.956
101452.968
101452.983
101453.001
101453.021
101453.045
101453.071
101453.101
101453.135
101453.171
101453.211
101453.254
101453.299
101453.35
101453.408
101453.465
101453.521
101453.585
101453.654
101453.726
101453.8
101453.878
101453.961
101454.048
101454.141
101454.239
101454.345
101454.459
101454.583
101454.721
101454.873
101455.044
101455.237
101455.457
101455.709
101455.999
101456.332
101456.715
101457.155
101457.658
101458.232
101458.883
101459.612
101460.427
101461.313
101462.285
101463.31
101464.418
101465.979
101467.83
101469.353
101470.674
101472.03
101473.685
101475.33
101476.799
101478.278
101479.814
101481.67
101483.788
101486.072
101488.533
101491.231
101493.84
101495.579
101496.907
101498.476
101500.668
101502.653
101504.522
101506.272
101508.336
101511.557
101514.167
101516.366
101518.385
101452.282
101452.292
101452.305
101452.32
101452.338
101452.359
101452.383
101452.41
101452.441
101452.476
101452.515
101452.557
101452.603
101452.652
101452.707
101452.768
101452.831
101452.894
101452.965
101453.041
101453.12
101453.204
101453.291
101453.384
101453.482
101453.585
101453.695
101453.811
101453.937
101454.072
101454.219
101454.38
101454.559
101454.758
101454.981
101455.234
101455.519
101455.844
101456.214
101456.634
101457.11
101457.647
101458.249
101458.92
101459.659
101460.474
101461.355
101462.302
101463.271
101464.4
101466.045
101467.9
101469.289
101470.568
101472.366
101474.165
101475.848
101477.389
101479.026
101480.929
101482.923
101484.98
101486.758
101488.338
101490.027
101491.605
101493.399
101495.234
101497.273
101499.538
101501.225
101502.965
101505.296
101507.561
101509.769
101512.38
101514.316
101516.637
101519.93
101521.548
101451.318
101451.335
101451.357
101451.381
101451.409
101451.44
101451.476
101451.515
101451.559
101451.606
101451.658
101451.715
101451.778
101451.843
101451.912
101451.987
101452.068
101452.152
101452.241
101452.336
101452.435
101452.54
101452.651
101452.769
101452.893
101453.026
101453.169
101453.322
101453.49
101453.673
101453.875
101454.1
101454.352
101454.636
101454.957
101455.321
101455.734
101456.202
101456.733
101457.333
101458.007
101458.761
101459.599
101460.524
101461.546
101462.674
101463.915
101465.228
101466.638
101467.988
101469.214
101470.547
101472.124
101473.734
101475.231
101476.709
101478.298
101480.072
101481.897
101483.671
101485.483
101487.425
101489.344
101491.057
101492.693
101494.685
101496.65
101498.298
101500.3
101502.401
101505.038
101507.223
101509.361
101511.684
101514.082
101516.041
101518.065
101520.473
101522.303
101524.023
101449.969
101449.996
101450.028
101450.064
101450.104
101450.147
101450.196
101450.248
101450.306
101450.369
101450.435
101450.507
101450.584
101450.667
101450.754
101450.847
101450.945
101451.048
101451.157
101451.272
101451.393
101451.521
101451.658
101451.803
101451.958
101452.125
101452.307
101452.505
101452.723
101452.965
101453.234
101453.536
101453.876
101454.259
101454.691
101455.179
101455.729
101456.347
101457.037
101457.803
101458.65
101459.578
101460.587
101461.674
101462.844
101464.085
101465.409
101466.82
101468.316
101469.965
101471.425
101472.807
101474.303
101475.705
101477.165
101478.838
101480.566
101482.334
101484.062
101485.783
101487.65
101489.926
101492.185
101494.139
101496.15
101498.22
101500.01
101501.849
101504.086
101506.378
101508.473
101510.522
101512.316
101514.497
101517.534
101519.604
101521.168
101523.007
101525.422
101527.659
101448.182
101448.221
101448.267
101448.316
101448.369
101448.427
101448.49
101448.557
101448.63
101448.708
101448.791
101448.879
101448.973
101449.072
101449.177
101449.288
101449.404
101449.527
101449.656
101449.793
101449.938
101450.092
101450.257
101450.434
101450.625
101450.834
101451.063
101451.316
101451.597
101451.911
101452.262
101452.657
101453.101
101453.6
101454.16
101454.786
101455.484
101456.256
101457.107
101458.037
101459.047
101460.135
101461.299
101462.537
101463.841
101465.207
101466.61
101468.054
101469.593
101471.183
101472.758
101474.374
101476.034
101477.697
101479.385
101481.133
101482.904
101484.713
101486.57
101488.891
101491.917
101493.657
101494.978
101496.951
101498.884
101500.498
101502.308
101504.577
101506.45
101508.214
101510.654
101513.632
101516.221
101518.578
101520.342
101522.348
101524.71
101526.724
101528.627
101530.53
101445.935
101445.987
101446.049
101446.113
101446.182
101446.256
101446.334
101446.419
101446.508
101446.603
101446.704
101446.81
101446.922
101447.041
101447.165
101447.297
101447.436
101447.583
101447.738
101447.904
101448.082
101448.273
101448.48
101448.705
101448.952
101449.225
101449.527
101449.864
101450.24
101450.661
101451.134
101451.663
101452.255
101452.914
101453.647
101454.456
101455.345
101456.315
101457.368
101458.501
101459.709
101460.994
101462.355
101463.76
101465.204
101466.69
101468.233
101469.832
101471.472
101473.181
101474.958
101476.759
101478.593
101480.46
101482.34
101484.276
101486.222
101488.415
101491.398
101493.396
101494.367
101495.686
101497.671
101499.734
101501.795
101503.682
101505.621
101507.976
101510.49
101513.195
101516.145
101518.158
101519.669
101521.315
101522.905
101525.131
101527.351
101529.577
101531.581
101533.516
101443.231
101443.299
101443.378
101443.46
101443.546
101443.637
101443.734
101443.837
101443.946
101444.061
101444.182
101444.31
101444.445
101444.587
101444.738
101444.898
101445.068
101445.25
101445.445
101445.655
101445.883
101446.132
101446.404
101446.705
101447.038
101447.409
101447.822
101448.282
101448.796
101449.369
101450.007
101450.713
101451.491
101452.345
101453.275
101454.282
101455.364
101456.519
101457.742
101459.025
101460.359
101461.861
101463.634
101465.466
101467.145
101468.749
101470.422
101472.177
101473.939
101475.689
101477.501
101479.358
101481.177
101483.316
101485.81
101488.097
101490.8
101492.663
101493.479
101494.745
101497.048
101499.305
101501.59
101503.938
101506.398
101509.285
101512.005
101513.745
101515.124
101516.2
101517.283
101519.529
101522.147
101524.232
101526.372
101528.182
101530.284
101532.377
101534.811
101536.613
101440.078
101440.162
101440.259
101440.359
101440.462
101440.571
101440.686
101440.807
101440.934
101441.068
101441.21
101441.36
101441.518
101441.687
101441.866
101442.059
101442.266
101442.49
101442.734
101443.001
101443.296
101443.621
101443.983
101444.386
101444.836
101445.339
101445.902
101446.531
101447.231
101448.009
101448.868
101449.813
101450.847
101451.971
101453.183
101454.484
101455.868
101457.328
101458.851
101460.422
101462.028
101463.602
101465.043
101466.527
101468.204
101470.011
101471.872
101473.868
101475.936
101477.844
101480.059
101482.737
101485.566
101487.751
101489.314
101490.997
101492.417
101494.159
101496.734
101499.289
101501.759
101504.291
101506.6
101508.516
101510.155
101511.716
101513.293
101515.174
101517.884
101520.59
101522.281
101523.246
101524.662
101526.996
101529.827
101532.31
101534.753
101537.255
101539.627
101540.73
101436.534
101436.633
101436.749
101436.865
101436.985
101437.111
101437.242
101437.381
101437.526
101437.68
101437.843
101438.015
101438.2
101438.397
101438.61
101438.841
101439.093
101439.37
101439.675
101440.013
101440.388
101440.807
101441.275
101441.798
101442.382
101443.033
101443.757
101444.558
101445.441
101446.408
101447.46
101448.597
101449.818
101451.118
101452.493
101453.937
101455.445
101457.014
101458.641
101460.373
101462.197
101464.033
101465.894
101467.831
101469.824
101471.867
101473.877
101475.937
101478.535
101481.693
101484.059
101485.846
101487.596
101489.372
101491.319
101493.425
101495.713
101497.925
101499.963
101502.339
101505.235
101507.473
101509.249
101511.361
101513.689
101515.461
101517.034
101519.567
101522.072
101523.618
101525.163
101526.51
101528.497
101531.403
101534.267
101537.214
101539.399
101541.919
101543.701
101543.796
101498.756
101498.76
101498.765
101498.772
101498.779
101498.788
101498.799
101498.811
101498.824
101498.839
101498.855
101498.873
101498.893
101498.914
101498.937
101498.961
101498.988
101499.016
101499.046
101499.079
101499.113
101499.15
101499.189
101499.23
101499.274
101499.321
101499.37
101499.422
101499.476
101499.534
101499.595
101499.659
101499.727
101499.798
101499.873
101499.951
101500.032
101500.118
101500.208
101500.303
101500.401
101500.503
101500.609
101500.722
101500.843
101500.972
101501.103
101501.236
101501.374
101501.518
101501.669
101501.824
101501.983
101502.145
101502.31
101502.477
101502.644
101502.808
101502.967
101503.117
101503.253
101503.371
101503.466
101503.53
101503.555
101503.535
101503.46
101503.318
101503.096
101502.774
101502.325
101501.735
101501.025
101500.229
101499.222
101498.154
101497.245
101495.627
101493.703
101492.631
101496.322
101496.325
101496.329
101496.334
101496.341
101496.349
101496.359
101496.369
101496.382
101496.396
101496.411
101496.428
101496.447
101496.467
101496.489
101496.513
101496.538
101496.566
101496.596
101496.627
101496.661
101496.697
101496.736
101496.777
101496.82
101496.866
101496.915
101496.967
101497.022
101497.081
101497.142
101497.207
101497.275
101497.347
101497.423
101497.504
101497.59
101497.678
101497.77
101497.87
101497.975
101498.086
101498.201
101498.322
101498.448
101498.582
101498.722
101498.867
101499.019
101499.176
101499.339
101499.508
101499.683
101499.862
101500.046
101500.233
101500.42
101500.607
101500.789
101500.964
101501.125
101501.268
101501.386
101501.473
101501.52
101501.515
101501.445
101501.293
101501.039
101500.654
101500.102
101499.401
101498.565
101497.485
101496.691
101495.681
101494.14
101493.589
101493.074
101491.31
101493.702
101493.704
101493.707
101493.712
101493.717
101493.724
101493.732
101493.742
101493.753
101493.765
101493.779
101493.795
101493.812
101493.831
101493.851
101493.874
101493.898
101493.924
101493.952
101493.982
101494.014
101494.048
101494.085
101494.124
101494.166
101494.211
101494.258
101494.308
101494.362
101494.418
101494.479
101494.544
101494.612
101494.684
101494.758
101494.838
101494.923
101495.013
101495.108
101495.208
101495.315
101495.427
101495.546
101495.67
101495.801
101495.938
101496.082
101496.232
101496.389
101496.552
101496.722
101496.899
101497.082
101497.272
101497.467
101497.667
101497.868
101498.07
101498.267
101498.456
101498.631
101498.784
101498.908
101498.99
101499.017
101498.971
101498.834
101498.588
101498.212
101497.708
101497.113
101496.415
101495.676
101494.7
101493.339
101492.451
101491.941
101491.017
101489.514
101487.518
101490.908
101490.909
101490.911
101490.915
101490.919
101490.925
101490.931
101490.939
101490.949
101490.959
101490.971
101490.985
101491
101491.016
101491.034
101491.054
101491.075
101491.099
101491.124
101491.151
101491.18
101491.211
101491.244
101491.28
101491.318
101491.359
101491.403
101491.45
101491.5
101491.553
101491.608
101491.667
101491.73
101491.797
101491.869
101491.945
101492.026
101492.113
101492.204
101492.301
101492.403
101492.511
101492.626
101492.746
101492.873
101493.007
101493.147
101493.294
101493.448
101493.609
101493.776
101493.949
101494.129
101494.314
101494.505
101494.699
101494.895
101495.089
101495.276
101495.452
101495.61
101495.741
101495.833
101495.873
101495.84
101495.716
101495.484
101495.131
101494.669
101494.165
101493.652
101492.949
101491.7
101490.619
101489.951
101488.866
101487.298
101485.839
101484.621
101482.813
101487.954
101487.954
101487.955
101487.957
101487.96
101487.964
101487.969
101487.975
101487.983
101487.991
101488
101488.011
101488.023
101488.036
101488.051
101488.067
101488.085
101488.104
101488.125
101488.147
101488.171
101488.198
101488.226
101488.256
101488.288
101488.323
101488.36
101488.399
101488.441
101488.486
101488.535
101488.586
101488.642
101488.701
101488.765
101488.832
101488.903
101488.979
101489.06
101489.146
101489.238
101489.334
101489.437
101489.545
101489.66
101489.78
101489.907
101490.041
101490.181
101490.327
101490.48
101490.637
101490.799
101490.966
101491.135
101491.305
101491.473
101491.635
101491.782
101491.909
101492.01
101492.074
101492.087
101492.035
101491.899
101491.66
101491.319
101490.917
101490.44
101489.767
101488.797
101487.799
101486.915
101485.706
101484.126
101482.515
101481.044
101479.787
101478.507
101476.118
101484.868
101484.868
101484.868
101484.869
101484.87
101484.873
101484.876
101484.879
101484.884
101484.89
101484.896
101484.903
101484.911
101484.92
101484.93
101484.941
101484.953
101484.967
101484.983
101484.999
101485.016
101485.035
101485.055
101485.077
101485.101
101485.126
101485.154
101485.183
101485.215
101485.249
101485.286
101485.325
101485.367
101485.413
101485.461
101485.513
101485.568
101485.627
101485.69
101485.758
101485.83
101485.907
101485.99
101486.077
101486.168
101486.263
101486.364
101486.47
101486.583
101486.7
101486.82
101486.938
101487.061
101487.186
101487.311
101487.438
101487.562
101487.684
101487.797
101487.884
101487.929
101487.92
101487.825
101487.616
101487.274
101486.808
101486.217
101485.474
101484.616
101483.638
101482.579
101481.302
101479.755
101478.068
101476.35
101474.584
101472.731
101470.814
101468.492
101465.287
101481.687
101481.686
101481.686
101481.685
101481.685
101481.685
101481.686
101481.687
101481.688
101481.691
101481.693
101481.696
101481.7
101481.704
101481.709
101481.715
101481.72
101481.726
101481.733
101481.74
101481.749
101481.759
101481.769
101481.781
101481.793
101481.807
101481.822
101481.838
101481.855
101481.874
101481.894
101481.916
101481.94
101481.966
101481.993
101482.023
101482.055
101482.09
101482.127
101482.166
101482.208
101482.253
101482.3
101482.349
101482.407
101482.468
101482.53
101482.594
101482.663
101482.727
101482.798
101482.877
101482.945
101483.015
101483.082
101483.134
101483.166
101483.172
101483.148
101483.087
101482.968
101482.773
101482.492
101482.1
101481.577
101480.916
101480.123
101479.182
101478.06
101476.702
101475.056
101473.276
101471.432
101469.381
101467.169
101464.688
101461.83
101458.74
101455.783
101452.821
101478.466
101478.465
101478.463
101478.462
101478.46
101478.458
101478.456
101478.454
101478.452
101478.45
101478.448
101478.446
101478.443
101478.441
101478.438
101478.436
101478.434
101478.432
101478.43
101478.428
101478.427
101478.425
101478.424
101478.422
101478.421
101478.42
101478.419
101478.418
101478.418
101478.418
101478.418
101478.418
101478.419
101478.42
101478.421
101478.422
101478.424
101478.426
101478.429
101478.432
101478.436
101478.44
101478.443
101478.447
101478.453
101478.46
101478.467
101478.472
101478.462
101478.455
101478.457
101478.451
101478.432
101478.398
101478.353
101478.293
101478.207
101478.085
101477.916
101477.688
101477.394
101477.009
101476.521
101475.927
101475.228
101474.403
101473.421
101472.215
101470.731
101469.059
101467.158
101464.893
101462.313
101459.603
101456.639
101453.357
101449.873
101446.027
101441.903
101437.612
101475.26
101475.258
101475.256
101475.253
101475.249
101475.245
101475.24
101475.235
101475.229
101475.223
101475.215
101475.208
101475.2
101475.191
101475.182
101475.172
101475.161
101475.15
101475.138
101475.126
101475.112
101475.098
101475.083
101475.067
101475.051
101475.033
101475.014
101474.995
101474.974
101474.952
101474.929
101474.905
101474.879
101474.851
101474.822
101474.792
101474.76
101474.726
101474.691
101474.654
101474.614
101474.572
101474.527
101474.478
101474.426
101474.37
101474.307
101474.227
101474.146
101474.065
101473.973
101473.867
101473.748
101473.608
101473.44
101473.245
101473.022
101472.761
101472.453
101472.086
101471.646
101471.115
101470.467
101469.687
101468.762
101467.668
101466.358
101464.787
101463.075
101461.033
101458.46
101455.509
101452.552
101449.387
101445.741
101441.466
101436.192
101430.187
101424.72
101418.825
101472.141
101472.139
101472.136
101472.132
101472.126
101472.12
101472.112
101472.103
101472.093
101472.082
101472.071
101472.057
101472.043
101472.028
101472.011
101471.993
101471.973
101471.952
101471.93
101471.906
101471.88
101471.853
101471.824
101471.793
101471.76
101471.726
101471.689
101471.649
101471.608
101471.563
101471.516
101471.465
101471.412
101471.356
101471.297
101471.234
101471.167
101471.096
101471.021
101470.941
101470.855
101470.764
101470.667
101470.564
101470.454
101470.323
101470.186
101470.044
101469.89
101469.73
101469.551
101469.352
101469.133
101468.892
101468.623
101468.316
101467.966
101467.563
101467.098
101466.556
101465.922
101465.179
101464.31
101463.288
101462.08
101460.655
101459.066
101457.399
101455.124
101452.374
101449.374
101446.107
101442.702
101438.361
101432.471
101425.623
101418.056
101410.682
101403.755
101397.836
101469.176
101469.173
101469.169
101469.163
101469.156
101469.147
101469.136
101469.124
101469.111
101469.095
101469.078
101469.06
101469.039
101469.017
101468.993
101468.967
101468.939
101468.909
101468.876
101468.841
101468.804
101468.764
101468.722
101468.677
101468.628
101468.577
101468.522
101468.464
101468.402
101468.335
101468.265
101468.19
101468.112
101468.028
101467.939
101467.845
101467.744
101467.637
101467.524
101467.403
101467.276
101467.14
101466.993
101466.826
101466.65
101466.469
101466.274
101466.07
101465.847
101465.609
101465.351
101465.07
101464.762
101464.424
101464.051
101463.639
101463.177
101462.653
101462.053
101461.359
101460.552
101459.613
101458.523
101457.246
101455.79
101454.294
101452.621
101450.247
101447.435
101444.559
101441.271
101437.325
101432.107
101426.246
101420.204
101414.268
101408.385
101402.452
101396.753
101392.277
101466.429
101466.425
101466.419
101466.412
101466.402
101466.391
101466.378
101466.362
101466.345
101466.326
101466.304
101466.28
101466.254
101466.226
101466.195
101466.162
101466.126
101466.088
101466.046
101466.002
101465.954
101465.904
101465.849
101465.791
101465.73
101465.664
101465.594
101465.518
101465.438
101465.354
101465.264
101465.168
101465.067
101464.959
101464.844
101464.723
101464.594
101464.457
101464.31
101464.153
101463.982
101463.797
101463.602
101463.401
101463.186
101462.958
101462.715
101462.457
101462.18
101461.882
101461.561
101461.215
101460.843
101460.437
101459.992
101459.504
101458.962
101458.355
101457.662
101456.868
101455.955
101454.956
101453.868
101452.681
101451.343
101449.501
101447.085
101444.622
101442.11
101438.952
101435.379
101431.38
101426.992
101422.353
101417.385
101412.223
101406.876
101401.737
101396.762
101392.474
101463.952
101463.947
101463.939
101463.93
101463.918
101463.904
101463.888
101463.87
101463.849
101463.826
101463.801
101463.772
101463.742
101463.708
101463.672
101463.633
101463.591
101463.545
101463.497
101463.444
101463.388
101463.329
101463.265
101463.197
101463.124
101463.047
101462.964
101462.875
101462.782
101462.683
101462.578
101462.467
101462.348
101462.223
101462.088
101461.944
101461.79
101461.626
101461.45
101461.266
101461.075
101460.869
101460.651
101460.423
101460.18
101459.923
101459.649
101459.356
101459.044
101458.713
101458.358
101457.979
101457.571
101457.134
101456.662
101456.151
101455.589
101454.963
101454.264
101453.501
101452.678
101451.67
101450.405
101448.927
101447.218
101445.434
101443.582
101441.494
101439.069
101436.334
101433.36
101430.095
101426.526
101422.67
101418.449
101414.192
101410.113
101405.755
101400.644
101396.243
101461.775
101461.768
101461.759
101461.747
101461.733
101461.717
101461.698
101461.677
101461.654
101461.628
101461.599
101461.567
101461.533
101461.496
101461.455
101461.412
101461.365
101461.315
101461.261
101461.204
101461.142
101461.077
101461.007
101460.933
101460.854
101460.77
101460.68
101460.586
101460.485
101460.377
101460.262
101460.139
101460.008
101459.87
101459.724
101459.571
101459.408
101459.235
101459.05
101458.855
101458.651
101458.435
101458.207
101457.966
101457.71
101457.439
101457.152
101456.849
101456.528
101456.187
101455.826
101455.443
101455.035