/*--------------------------------*- C++ -*----------------------------------*\
  =========                 |
  \\      /  F ield         | OpenFOAM: The Open Source CFD Toolbox
   \\    /   O peration     | Website:  https://openfoam.org
    \\  /    A nd           | Version:  8
     \\/     M anipulation  |
\*---------------------------------------------------------------------------*/
FoamFile
{
    version     2.0;
    format      ascii;
    class       volScalarField;
    location    "0.051";
    object      p_rgh;
}
// * * * * * * * * * * * * * * * * * * * * * * * * * * * * * * * * * * * * * //

dimensions      [1 -1 -2 0 0 0 0];

internalField   nonuniform List<scalar> 
42400
(
101454.268
101454.258
101454.246
101454.234
101454.22
101454.205
101454.189
101454.171
101454.153
101454.133
101454.112
101454.089
101454.066
101454.041
101454.014
101453.986
101453.957
101453.926
101453.893
101453.859
101453.822
101453.784
101453.743
101453.701
101453.656
101453.608
101453.558
101453.506
101453.45
101453.392
101453.331
101453.267
101453.199
101453.129
101453.055
101452.978
101452.904
101452.834
101452.756
101452.66
101452.551
101452.444
101452.344
101452.247
101452.147
101452.045
101451.941
101451.835
101451.725
101451.61
101451.505
101451.41
101451.32
101451.203
101451.059
101450.929
101450.812
101450.693
101450.559
101450.415
101450.259
101450.085
101449.896
101449.696
101449.495
101449.281
101449.031
101448.768
101448.409
101447.965
101447.87
101447.22
101445.814
101445.809
101450.061
101452.25
101448.387
101445.44
101447.224
101450.111
101453.881
101453.873
101453.864
101453.855
101453.844
101453.832
101453.819
101453.806
101453.791
101453.775
101453.758
101453.74
101453.721
101453.701
101453.679
101453.657
101453.633
101453.608
101453.581
101453.553
101453.524
101453.492
101453.46
101453.425
101453.388
101453.35
101453.309
101453.266
101453.221
101453.174
101453.124
101453.071
101453.015
101452.961
101452.911
101452.859
101452.794
101452.712
101452.627
101452.549
101452.477
101452.403
101452.327
101452.249
101452.17
101452.088
101452
101451.924
101451.863
101451.785
101451.68
101451.58
101451.498
101451.425
101451.345
101451.263
101451.179
101451.091
101451.001
101450.913
101450.835
101450.77
101450.715
101450.663
101450.61
101450.578
101450.564
101450.655
101450.769
101450.773
101451.167
101451.787
101451.752
101452.487
101454.385
101455.556
101459.225
101462.88
101466.146
101467.443
101453.623
101453.618
101453.612
101453.605
101453.597
101453.588
101453.579
101453.568
101453.557
101453.544
101453.531
101453.517
101453.503
101453.487
101453.471
101453.453
101453.435
101453.416
101453.395
101453.374
101453.352
101453.328
101453.303
101453.277
101453.249
101453.22
101453.19
101453.157
101453.123
101453.088
101453.054
101453.02
101452.985
101452.942
101452.887
101452.83
101452.776
101452.728
101452.677
101452.624
101452.57
101452.514
101452.456
101452.392
101452.338
101452.298
101452.24
101452.161
101452.096
101452.044
101451.992
101451.938
101451.885
101451.834
101451.784
101451.739
101451.706
101451.692
101451.694
101451.71
101451.746
101451.807
101451.9
101452.035
101452.217
101452.482
101452.786
101453.275
101453.891
101454.572
101455.354
101456.134
101457.23
101459.928
101463.709
101465.776
101467.508
101470.349
101473.307
101476.046
101453.491
101453.487
101453.482
101453.477
101453.471
101453.464
101453.457
101453.449
101453.441
101453.432
101453.422
101453.412
101453.401
101453.39
101453.379
101453.367
101453.354
101453.341
101453.327
101453.313
101453.298
101453.283
101453.267
101453.25
101453.232
101453.213
101453.193
101453.173
101453.153
101453.131
101453.104
101453.074
101453.042
101453.013
101452.985
101452.955
101452.924
101452.892
101452.858
101452.822
101452.781
101452.748
101452.729
101452.691
101452.635
101452.595
101452.565
101452.533
101452.5
101452.468
101452.438
101452.413
101452.399
101452.399
101452.416
101452.448
101452.498
101452.573
101452.687
101452.841
101453.046
101453.302
101453.632
101454.028
101454.5
101455.091
101455.742
101456.567
101457.215
101458.21
101460.672
101464.46
101466.272
101466.939
101468.355
101470.58
101473.363
101475.194
101476.983
101479.342
101453.465
101453.461
101453.457
101453.453
101453.448
101453.442
101453.436
101453.43
101453.423
101453.417
101453.41
101453.403
101453.396
101453.389
101453.382
101453.374
101453.367
101453.36
101453.353
101453.345
101453.338
101453.329
101453.32
101453.311
101453.302
101453.294
101453.286
101453.277
101453.266
101453.255
101453.245
101453.235
101453.224
101453.211
101453.198
101453.184
101453.167
101453.147
101453.133
101453.132
101453.115
101453.081
101453.061
101453.052
101453.037
101453.022
101453.008
101452.999
101452.996
101453.005
101453.025
101453.058
101453.105
101453.173
101453.27
101453.403
101453.581
101453.809
101454.094
101454.443
101454.883
101455.388
101456.023
101456.713
101457.572
101458.368
101459.19
101460.824
101464.176
101466.699
101467.369
101467.949
101469.675
101471.911
101473.722
101475.668
101477.864
101480.457
101483.146
101485.485
101453.511
101453.507
101453.503
101453.498
101453.494
101453.489
101453.484
101453.479
101453.474
101453.469
101453.465
101453.461
101453.457
101453.454
101453.451
101453.448
101453.446
101453.444
101453.441
101453.439
101453.438
101453.439
101453.442
101453.444
101453.447
101453.45
101453.452
101453.455
101453.458
101453.46
101453.462
101453.464
101453.466
101453.466
101453.463
101453.466
101453.481
101453.482
101453.468
101453.467
101453.474
101453.477
101453.479
101453.484
101453.494
101453.511
101453.535
101453.568
101453.613
101453.674
101453.756
101453.867
101454.011
101454.196
101454.429
101454.717
101455.069
101455.495
101456.007
101456.595
101457.311
101458.074
101458.999
101459.827
101461.068
101463.633
101466.815
101468.098
101468.324
101469.714
101471.586
101473.046
101474.949
101476.94
101479.035
101481.166
101483.371
101485.84
101488.214
101490.381
101453.596
101453.591
101453.586
101453.581
101453.577
101453.572
101453.568
101453.564
101453.561
101453.558
101453.556
101453.554
101453.553
101453.553
101453.554
101453.556
101453.559
101453.564
101453.57
101453.578
101453.586
101453.594
101453.603
101453.612
101453.623
101453.634
101453.646
101453.659
101453.673
101453.687
101453.7
101453.711
101453.728
101453.755
101453.771
101453.774
101453.789
101453.811
101453.83
101453.849
101453.871
101453.897
101453.927
101453.964
101454.01
101454.067
101454.139
101454.233
101454.351
101454.501
101454.688
101454.919
101455.205
101455.552
101455.97
101456.468
101457.06
101457.743
101458.532
101459.4
101460.424
101461.46
101462.851
101465.718
101467.633
101468.255
101469.202
101470.857
101472.676
101474.163
101475.862
101477.901
101479.645
101481.375
101483.716
101485.836
101487.922
101490.457
101493.188
101496.323
101453.674
101453.669
101453.664
101453.659
101453.655
101453.651
101453.648
101453.646
101453.645
101453.644
101453.645
101453.646
101453.648
101453.653
101453.658
101453.665
101453.674
101453.684
101453.695
101453.708
101453.723
101453.738
101453.755
101453.774
101453.794
101453.815
101453.837
101453.86
101453.881
101453.907
101453.944
101453.971
101453.988
101454.015
101454.05
101454.082
101454.114
101454.149
101454.188
101454.23
101454.279
101454.336
101454.404
101454.485
101454.584
101454.706
101454.855
101455.038
101455.262
101455.534
101455.864
101456.26
101456.731
101457.288
101457.943
101458.69
101459.549
101460.5
101461.581
101462.694
101464.217
101466.757
101468.261
101468.753
101469.928
101471.758
101473.206
101474.779
101476.556
101478.403
101480.319
101482.226
101484.023
101486.163
101488.439
101490.86
101493.463
101495.785
101497.803
101499.74
101453.699
101453.695
101453.69
101453.686
101453.683
101453.681
101453.68
101453.68
101453.682
101453.685
101453.69
101453.697
101453.704
101453.714
101453.725
101453.737
101453.752
101453.769
101453.787
101453.807
101453.83
101453.854
101453.88
101453.908
101453.936
101453.965
101453.999
101454.042
101454.077
101454.105
101454.143
101454.187
101454.229
101454.273
101454.319
101454.369
101454.423
101454.482
101454.548
101454.624
101454.711
101454.814
101454.936
101455.081
101455.257
101455.468
101455.723
101456.029
101456.393
101456.826
101457.336
101457.934
101458.628
101459.42
101460.322
101461.314
101462.427
101463.605
101465.086
101467.046
101468.256
101468.984
101470.381
101472.15
101473.765
101475.435
101477.21
101479.014
101480.839
101482.736
101484.681
101486.647
101488.681
101490.886
101493.089
101495.227
101497.414
101499.58
101501.837
101504.02
101453.631
101453.628
101453.626
101453.624
101453.624
101453.625
101453.628
101453.632
101453.638
101453.646
101453.656
101453.668
101453.681
101453.697
101453.715
101453.736
101453.759
101453.784
101453.811
101453.841
101453.873
101453.907
101453.942
101453.981
101454.029
101454.072
101454.11
101454.157
101454.209
101454.261
101454.315
101454.372
101454.432
101454.496
101454.565
101454.641
101454.724
101454.818
101454.924
101455.047
101455.19
101455.358
101455.556
101455.792
101456.071
101456.402
101456.794
101457.256
101457.796
101458.425
101459.152
101459.981
101460.916
101461.954
101463.093
101464.346
101465.614
101467.108
101468.436
101469.561
101471.105
101472.791
101474.471
101476.104
101477.795
101479.497
101481.243
101483.063
101484.965
101486.958
101488.935
101490.948
101493.036
101495.122
101497.01
101499.362
101502.174
101504.502
101506.429
101507.9
101453.429
101453.429
101453.43
101453.432
101453.436
101453.442
101453.45
101453.46
101453.472
101453.486
101453.503
101453.523
101453.545
101453.57
101453.597
101453.627
101453.661
101453.697
101453.735
101453.776
101453.821
101453.874
101453.924
101453.971
101454.026
101454.087
101454.148
101454.212
101454.279
101454.35
101454.425
101454.505
101454.591
101454.684
101454.786
101454.899
101455.026
101455.17
101455.336
101455.526
101455.748
101456.007
101456.309
101456.662
101457.074
101457.553
101458.107
101458.744
101459.473
101460.3
101461.232
101462.274
101463.419
101464.657
101465.96
101467.318
101468.788
101470.241
101471.749
101473.315
101474.885
101476.53
101478.246
101479.968
101481.664
101483.284
101484.839
101486.693
101489.09
101491.481
101493.776
101496.03
101498.232
101500.725
101503.315
101505.005
101506.492
101508.509
101510.765
101513.265
101453.039
101453.043
101453.049
101453.057
101453.067
101453.079
101453.094
101453.111
101453.132
101453.155
101453.182
101453.212
101453.245
101453.281
101453.32
101453.363
101453.408
101453.459
101453.516
101453.573
101453.629
101453.692
101453.761
101453.832
101453.906
101453.984
101454.066
101454.153
101454.244
101454.342
101454.447
101454.56
101454.683
101454.818
101454.969
101455.139
101455.33
101455.548
101455.798
101456.085
101456.415
101456.796
101457.233
101457.735
101458.307
101458.957
101459.688
101460.508
101461.407
101462.4
101463.454
101464.586
101466.069
101467.782
101469.28
101470.641
101472.034
101473.662
101475.286
101476.792
101478.3
101479.862
101481.664
101483.67
101485.841
101488.226
101490.854
101493.494
101495.321
101496.725
101498.391
101500.66
101502.656
101504.598
101506.391
101508.405
101511.311
101513.653
101515.81
101517.881
101452.402
101452.412
101452.424
101452.44
101452.457
101452.478
101452.502
101452.53
101452.561
101452.595
101452.634
101452.676
101452.722
101452.771
101452.826
101452.887
101452.949
101453.012
101453.083
101453.159
101453.238
101453.321
101453.409
101453.501
101453.598
101453.701
101453.81
101453.926
101454.051
101454.185
101454.331
101454.491
101454.669
101454.866
101455.088
101455.338
101455.621
101455.943
101456.31
101456.726
101457.198
101457.73
101458.327
101458.991
101459.723
101460.527
101461.392
101462.315
101463.255
101464.379
101466.022
101467.852
101469.331
101470.725
101472.468
101474.186
101475.805
101477.315
101478.922
101480.744
101482.67
101484.728
101486.669
101488.482
101490.345
101491.957
101493.691
101495.506
101497.459
101499.582
101501.277
101503.071
101505.324
101507.446
101509.594
101512.162
101514.276
101516.78
101519.8
101521.474
101451.448
101451.465
101451.487
101451.511
101451.539
101451.57
101451.605
101451.645
101451.688
101451.736
101451.788
101451.844
101451.907
101451.973
101452.042
101452.117
101452.198
101452.282
101452.372
101452.466
101452.566
101452.671
101452.782
101452.899
101453.023
101453.156
101453.299
101453.452
101453.619
101453.802
101454.004
101454.228
101454.479
101454.762
101455.081
101455.443
101455.854
101456.319
101456.847
101457.442
101458.11
101458.858
101459.687
101460.602
101461.612
101462.728
101463.948
101465.258
101466.713
101468.128
101469.378
101470.677
101472.2
101473.78
101475.268
101476.746
101478.365
101480.169
101482.019
101483.823
101485.652
101487.6
101489.456
101491.087
101492.662
101494.615
101496.636
101498.261
101500.241
101502.444
101504.963
101507.122
101509.286
101511.589
101513.94
101516.031
101518.14
101520.398
101522.368
101524.202
101450.108
101450.135
101450.168
101450.203
101450.243
101450.287
101450.335
101450.388
101450.446
101450.508
101450.575
101450.647
101450.724
101450.807
101450.895
101450.988
101451.086
101451.189
101451.298
101451.414
101451.535
101451.664
101451.801
101451.946
101452.102
101452.27
101452.452
101452.651
101452.87
101453.113
101453.383
101453.686
101454.027
101454.412
101454.846
101455.336
101455.889
101456.509
101457.202
101457.973
101458.824
101459.757
101460.772
101461.867
101463.045
101464.296
101465.637
101467.033
101468.482
101470.084
101471.563
101472.97
101474.434
101475.859
101477.36
101479.011
101480.739
101482.53
101484.265
101485.991
101487.838
101489.986
101492.145
101494.127
101496.202
101498.291
101500.051
101501.884
101504.168
101506.5
101508.604
101510.597
101512.475
101514.811
101517.632
101519.538
101521.167
101523.184
101525.587
101527.598
101448.33
101448.368
101448.414
101448.464
101448.517
101448.575
101448.637
101448.705
101448.778
101448.856
101448.939
101449.027
101449.121
101449.221
101449.326
101449.436
101449.553
101449.676
101449.806
101449.943
101450.088
101450.243
101450.408
101450.585
101450.778
101450.987
101451.217
101451.47
101451.752
101452.066
101452.418
101452.814
101453.259
101453.759
101454.321
101454.948
101455.648
101456.423
101457.276
101458.21
101459.224
101460.317
101461.486
101462.729
101464.041
101465.414
101466.826
101468.294
101469.843
101471.39
101472.919
101474.51
101476.134
101477.777
101479.465
101481.22
101482.99
101484.781
101486.633
101488.948
101491.925
101493.729
101495.13
101497.099
101498.997
101500.666
101502.57
101504.729
101506.644
101508.563
101511.016
101513.797
101516.272
101518.544
101520.29
101522.331
101524.661
101526.633
101528.519
101530.356
101446.087
101446.139
101446.201
101446.266
101446.334
101446.408
101446.487
101446.571
101446.66
101446.755
101446.856
101446.963
101447.075
101447.193
101447.318
101447.449
101447.588
101447.735
101447.891
101448.056
101448.234
101448.424
101448.631
101448.856
101449.102
101449.374
101449.675
101450.011
101450.385
101450.805
101451.276
101451.803
101452.392
101453.049
101453.777
101454.583
101455.467
101456.433
101457.481
101458.61
101459.816
101461.1
101462.459
101463.871
101465.326
101466.818
101468.361
101469.955
101471.593
101473.31
101475.096
101476.903
101478.734
101480.593
101482.461
101484.38
101486.298
101488.513
101491.491
101493.444
101494.418
101495.762
101497.766
101499.826
101501.839
101503.684
101505.688
101508.07
101510.576
101513.183
101515.825
101517.891
101519.579
101521.249
101522.941
101525.262
101527.478
101529.665
101531.613
101533.758
101443.387
101443.455
101443.534
101443.616
101443.702
101443.793
101443.89
101443.993
101444.102
101444.216
101444.337
101444.465
101444.6
101444.742
101444.893
101445.052
101445.222
101445.403
101445.598
101445.808
101446.035
101446.283
101446.555
101446.855
101447.187
101447.557
101447.968
101448.428
101448.94
101449.512
101450.147
101450.851
101451.627
101452.478
101453.404
101454.406
101455.481
101456.626
101457.834
101459.097
101460.402
101461.866
101463.63
101465.513
101467.268
101468.903
101470.579
101472.326
101474.072
101475.828
101477.661
101479.542
101481.406
101483.504
101485.84
101488.085
101490.787
101492.626
101493.464
101494.765
101497.072
101499.334
101501.576
101503.991
101506.474
101509.183
101511.697
101513.426
101514.833
101516.088
101517.651
101519.839
101522.163
101524.291
101526.354
101528.24
101530.382
101532.446
101534.919
101536.726
101440.242
101440.325
101440.423
101440.522
101440.626
101440.734
101440.849
101440.97
101441.098
101441.232
101441.374
101441.523
101441.682
101441.85
101442.03
101442.222
101442.429
101442.653
101442.897
101443.163
101443.457
101443.782
101444.142
101444.544
101444.993
101445.495
101446.056
101446.682
101447.38
101448.155
101449.012
101449.954
101450.985
101452.106
101453.318
101454.618
101456.006
101457.473
101459.009
101460.606
101462.25
101463.866
101465.309
101466.704
101468.253
101469.982
101471.852
101473.88
101475.949
101477.882
101480.05
101482.601
101485.294
101487.573
101489.458
101491.206
101492.624
101494.381
101496.909
101499.402
101501.809
101504.237
101506.535
101508.464
101510.201
101512.02
101513.602
101515.435
101518.008
101520.417
101521.925
101523.132
101524.863
101527.215
101529.974
101532.287
101534.609
101536.987
101539.372
101540.642
101436.705
101436.804
101436.919
101437.036
101437.156
101437.282
101437.413
101437.552
101437.698
101437.852
101438.014
101438.187
101438.372
101438.57
101438.784
101439.015
101439.268
101439.545
101439.851
101440.19
101440.566
101440.987
101441.456
101441.981
101442.568
101443.222
101443.949
101444.754
101445.641
101446.613
101447.671
101448.815
101450.042
101451.349
101452.732
101454.182
101455.694
101457.263
101458.889
101460.607
101462.405
101464.217
101466.056
101467.95
101469.896
101471.892
101473.865
101475.968
101478.58
101481.643
101484.167
101486.164
101488.003
101489.789
101491.663
101493.68
101495.868
101498.055
101500.174
101502.546
101505.26
101507.458
101509.334
101511.435
101513.589
101515.273
101516.968
101519.635
101522.045
101523.571
101524.998
101526.625
101528.794
101531.608
101534.523
101537.42
101539.638
101542.195
101543.949
101544.163
101498.671
101498.675
101498.68
101498.686
101498.694
101498.703
101498.713
101498.725
101498.738
101498.752
101498.768
101498.786
101498.805
101498.826
101498.848
101498.872
101498.898
101498.925
101498.955
101498.986
101499.02
101499.056
101499.093
101499.134
101499.176
101499.221
101499.269
101499.319
101499.372
101499.428
101499.487
101499.549
101499.614
101499.683
101499.755
101499.831
101499.91
101499.992
101500.079
101500.17
101500.266
101500.364
101500.466
101500.574
101500.69
101500.814
101500.94
101501.068
101501.2
101501.339
101501.482
101501.631
101501.782
101501.937
101502.095
101502.253
101502.411
101502.566
101502.715
101502.855
101502.982
101503.089
101503.172
101503.224
101503.237
101503.203
101503.114
101502.957
101502.72
101502.38
101501.911
101501.313
101500.611
101499.808
101498.827
101497.746
101496.764
101495.239
101493.268
101492.041
101496.26
101496.263
101496.267
101496.272
101496.279
101496.287
101496.296
101496.307
101496.319
101496.333
101496.348
101496.365
101496.383
101496.402
101496.424
101496.447
101496.472
101496.499
101496.528
101496.559
101496.592
101496.627
101496.665
101496.704
101496.747
101496.792
101496.839
101496.89
101496.943
101497
101497.059
101497.122
101497.188
101497.258
101497.332
101497.41
101497.493
101497.579
101497.668
101497.764
101497.866
101497.973
101498.085
101498.202
101498.324
101498.452
101498.588
101498.728
101498.874
101499.025
101499.182
101499.345
101499.513
101499.685
101499.861
101500.04
101500.219
101500.396
101500.569
101500.732
101500.883
101501.014
101501.12
101501.194
101501.228
101501.211
101501.13
101500.969
101500.711
101500.328
101499.783
101499.077
101498.25
101497.245
101496.374
101495.374
101493.849
101492.929
101492.327
101490.755
101493.669
101493.671
101493.674
101493.679
101493.684
101493.691
101493.699
101493.709
101493.72
101493.732
101493.746
101493.761
101493.778
101493.796
101493.816
101493.838
101493.861
101493.887
101493.914
101493.943
101493.975
101494.009
101494.045
101494.083
101494.124
101494.167
101494.213
101494.262
101494.314
101494.369
101494.428
101494.491
101494.558
101494.628
101494.701
101494.778
101494.86
101494.948
101495.04
101495.138
101495.241
101495.351
101495.466
101495.587
101495.714
101495.848
101495.987
101496.133
101496.285
101496.443
101496.608
101496.779
101496.957
101497.14
101497.329
101497.521
101497.716
101497.909
101498.099
101498.28
101498.446
101498.591
101498.705
101498.779
101498.799
101498.747
101498.605
101498.355
101497.976
101497.459
101496.84
101496.133
101495.335
101494.303
101493.053
101492.151
101491.541
101490.701
101489.348
101487.352
101490.909
101490.91
101490.912
101490.916
101490.92
101490.926
101490.932
101490.94
101490.949
101490.96
101490.972
101490.985
101491
101491.016
101491.034
101491.053
101491.074
101491.097
101491.121
101491.148
101491.176
101491.207
101491.24
101491.275
101491.312
101491.352
101491.395
101491.441
101491.49
101491.542
101491.596
101491.654
101491.715
101491.781
101491.851
101491.926
101492.005
101492.09
101492.179
101492.274
101492.374
101492.479
101492.591
101492.709
101492.833
101492.963
101493.1
101493.244
101493.394
101493.551
101493.714
101493.883
101494.058
101494.24
101494.426
101494.615
101494.806
101494.995
101495.178
101495.35
101495.503
101495.629
101495.717
101495.752
101495.717
101495.592
101495.358
101495.003
101494.531
101493.996
101493.437
101492.739
101491.613
101490.448
101489.601
101488.608
101487.241
101485.821
101484.556
101482.769
101487.992
101487.992
101487.993
101487.995
101487.998
101488.002
101488.007
101488.013
101488.02
101488.029
101488.038
101488.049
101488.061
101488.074
101488.088
101488.104
101488.122
101488.141
101488.161
101488.183
101488.207
101488.233
101488.26
101488.29
101488.322
101488.356
101488.393
101488.431
101488.473
101488.517
101488.565
101488.616
101488.671
101488.729
101488.791
101488.858
101488.928
101489.003
101489.083
101489.167
101489.257
101489.352
101489.453
101489.56
101489.672
101489.791
101489.916
101490.048
101490.185
101490.329
101490.479
101490.633
101490.793
101490.956
101491.123
101491.291
101491.457
101491.618
101491.766
101491.895
101491.999
101492.064
101492.08
101492.03
101491.897
101491.662
101491.32
101490.903
101490.413
101489.767
101488.867
101487.864
101486.92
101485.788
101484.327
101482.735
101481.219
101479.931
101478.675
101476.427
101484.946
101484.945
101484.946
101484.946
101484.948
101484.95
101484.953
101484.957
101484.962
101484.967
101484.973
101484.98
101484.988
101484.997
101485.007
101485.018
101485.031
101485.044
101485.06
101485.076
101485.093
101485.112
101485.132
101485.154
101485.177
101485.203
101485.23
101485.26
101485.291
101485.325
101485.362
101485.401
101485.443
101485.488
101485.536
101485.587
101485.642
101485.701
101485.764
101485.831
101485.903
101485.979
101486.061
101486.147
101486.238
101486.333
101486.433
101486.539
101486.651
101486.767
101486.886
101487.005
101487.128
101487.253
101487.378
101487.502
101487.625
101487.742
101487.849
101487.933
101487.981
101487.98
101487.902
101487.716
101487.401
101486.956
101486.386
101485.679
101484.848
101483.886
101482.826
101481.596
101480.113
101478.46
101476.765
101475.043
101473.279
101471.502
101469.405
101466.307
101481.804
101481.803
101481.802
101481.802
101481.802
101481.802
101481.803
101481.804
101481.805
101481.808
101481.81
101481.814
101481.817
101481.822
101481.827
101481.832
101481.838
101481.845
101481.851
101481.859
101481.868
101481.878
101481.889
101481.9
101481.913
101481.927
101481.942
101481.959
101481.976
101481.995
101482.016
101482.039
101482.063
101482.089
101482.117
101482.148
101482.181
101482.216
101482.254
101482.294
101482.337
101482.382
101482.43
101482.482
101482.539
101482.6
101482.664
101482.73
101482.798
101482.867
101482.941
101483.018
101483.089
101483.161
101483.233
101483.293
101483.335
101483.353
101483.341
101483.292
101483.185
101483.004
101482.738
101482.364
101481.863
101481.226
101480.451
101479.533
101478.448
101477.152
101475.579
101473.83
101471.989
101469.974
101467.812
101465.421
101462.703
101459.737
101456.807
101453.874
101478.621
101478.62
101478.618
101478.617
101478.615
101478.613
101478.611
101478.609
101478.607
101478.605
101478.604
101478.601
101478.599
101478.597
101478.595
101478.593
101478.591
101478.59
101478.588
101478.587
101478.586
101478.585
101478.584
101478.583
101478.583
101478.582
101478.582
101478.582
101478.583
101478.583
101478.584
101478.586
101478.588
101478.59
101478.593
101478.596
101478.599
101478.602
101478.607
101478.612
101478.618
101478.624
101478.63
101478.637
101478.646
101478.655
101478.665
101478.673
101478.67
101478.665
101478.671
101478.672
101478.659
101478.632
101478.593
101478.54
101478.464
101478.355
101478.202
101477.994
101477.72
101477.357
101476.89
101476.315
101475.632
101474.829
101473.876
101472.711
101471.274
101469.631
101467.782
101465.603
101463.11
101460.434
101457.528
101454.316
101450.913
101447.198
101443.201
101439.015
101475.45
101475.448
101475.445
101475.442
101475.439
101475.435
101475.43
101475.425
101475.419
101475.413
101475.406
101475.399
101475.391
101475.383
101475.374
101475.365
101475.355
101475.344
101475.333
101475.321
101475.308
101475.295
101475.28
101475.265
101475.25
101475.233
101475.215
101475.197
101475.178
101475.157
101475.136
101475.113
101475.089
101475.063
101475.036
101475.007
101474.978
101474.946
101474.913
101474.878
101474.842
101474.802
101474.76
101474.715
101474.667
101474.615
101474.557
101474.482
101474.406
101474.329
101474.242
101474.144
101474.031
101473.899
101473.742
101473.556
101473.341
101473.09
101472.791
101472.435
101472.008
101471.491
101470.864
101470.109
101469.212
101468.153
101466.891
101465.377
101463.7
101461.729
101459.252
101456.361
101453.382
101450.227
101446.686
101442.62
101437.657
101431.902
101426.557
101420.905
101472.361
101472.359
101472.356
101472.351
101472.346
101472.34
101472.332
101472.323
101472.314
101472.303
101472.292
101472.279
101472.265
101472.25
101472.233
101472.216
101472.197
101472.177
101472.155
101472.132
101472.107
101472.081
101472.053
101472.023
101471.992
101471.958
101471.922
101471.884
101471.844
101471.801
101471.756
101471.707
101471.656
101471.602
101471.544
101471.484
101471.42
101471.352
101471.279
101471.202
101471.119
101471.032
101470.938
101470.838
101470.732
101470.609
101470.475
101470.337
101470.188
101470.033
101469.861
101469.669
101469.457
101469.222
101468.961
101468.665
101468.326
101467.937
101467.486
101466.961
101466.345
101465.62
101464.77
101463.77
101462.589
101461.199
101459.635
101457.99
101455.828
101453.143
101450.152
101446.923
101443.512
101439.372
101433.882
101427.351
101420.035
101412.903
101406.175
101400.27
101469.42
101469.417
101469.413
101469.407
101469.4
101469.391
101469.38
101469.369
101469.355
101469.34
101469.324
101469.305
101469.285
101469.264
101469.24
101469.215
101469.187
101469.158
101469.126
101469.092
101469.056
101469.017
101468.976
101468.931
101468.884
101468.834
101468.781
101468.724
101468.664
101468.599
101468.53
101468.458
101468.381
101468.299
101468.213
101468.121
101468.023
101467.919
101467.808
101467.691
101467.566
101467.434
101467.291
101467.13
101466.958
101466.779
101466.589
101466.389
101466.173
101465.939
101465.687
101465.413
101465.112
101464.781
101464.417
101464.013
101463.56
101463.049
101462.463
101461.786
101460.998
101460.08
101459.013
101457.763
101456.329
101454.839
101453.2
101450.904
101448.13
101445.279
101442.063
101438.242
101433.37
101427.701
101421.623
101415.723
101409.909
101404.092
101398.477
101394.049
101466.69
101466.686
101466.681
101466.673
101466.664
101466.653
101466.639
101466.624
101466.607
101466.588
101466.567
101466.543
101466.518
101466.49
101466.46
101466.427
101466.392
101466.354
101466.314
101466.27
101466.223
101466.174
101466.12
101466.064
101466.003
101465.939
101465.87
101465.796
101465.718
101465.635
101465.547
101465.453
101465.353
101465.248
101465.135
101465.016
101464.889
101464.755
101464.612
101464.458
101464.29
101464.108
101463.916
101463.719
101463.507
101463.282
101463.043
101462.789
101462.517
101462.224
101461.909
101461.568
101461.201
101460.801
101460.364
101459.883
101459.351
101458.755
101458.075
101457.297
101456.402
101455.41
101454.328
101453.153
101451.842
101450.066
101447.719
101445.288
101442.811
101439.753
101436.27
101432.358
101428.005
101423.399
101418.529
101413.462
101408.226
101403.223
101398.393
101394.181
101464.224
101464.219
101464.211
101464.202
101464.19
101464.177
101464.161
101464.142
101464.122
101464.099
101464.074
101464.046
101464.016
101463.983
101463.947
101463.908
101463.867
101463.822
101463.774
101463.722
101463.667
101463.609
101463.546
101463.479
101463.407
101463.331
101463.25
101463.162
101463.07
101462.973
101462.869
101462.76
101462.643
101462.519
101462.387
101462.245
101462.093
101461.932
101461.758
101461.576
101461.387
101461.185
101460.969
101460.743
101460.503
101460.249
101459.978
101459.689
101459.381
101459.053
101458.702
101458.327
101457.925
101457.492
101457.025
101456.519
101455.964
101455.346
101454.656
101453.898
101453.079
101452.104
101450.884
101449.427
101447.737
101445.964
101444.123
101442.056
101439.657
101436.964
101434.042
101430.828
101427.318
101423.535
101419.4
101415.209
101411.172
101406.908
101401.998
101397.687
101462.051
101462.044
101462.035
101462.023
101462.009
101461.993
101461.975
101461.954
101461.93
101461.904
101461.876
101461.844
101461.81
101461.773
101461.733
101461.69
101461.644
101461.595
101461.541
101461.485
101461.424
101461.359
101461.29
101461.217
101461.139
101461.056
101460.967
101460.874
101460.774
101460.668
101460.554
101460.432
101460.303
101460.166
101460.022
101459.87
101459.709
101459.538
101459.355
101459.162
101458.959
101458.746
101458.52
101458.28
101458.027
101457.758
101457.474
101457.173
101456.854
101456.516
101456.157