/*--------------------------------*- C++ -*----------------------------------*\
  =========                 |
  \\      /  F ield         | OpenFOAM: The Open Source CFD Toolbox
   \\    /   O peration     | Website:  https://openfoam.org
    \\  /    A nd           | Version:  8
     \\/     M anipulation  |
\*---------------------------------------------------------------------------*/
FoamFile
{
    version     2.0;
    format      ascii;
    class       surfaceScalarField;
    location    "0.051";
    object      phi;
}
// * * * * * * * * * * * * * * * * * * * * * * * * * * * * * * * * * * * * * //

dimensions      [1 0 -1 0 0 0 0];

internalField   nonuniform List<scalar> 
84340
(
-4.41586686e-08
3.00436128e-07
-2.56124818e-07
-1.88712075e-07
9.15474745e-07
-7.70674499e-07
-4.47932074e-07
1.56733185e-06
-1.30780685e-06
-8.34687501e-07
2.2606384e-06
-1.87352766e-06
-1.36032611e-06
2.99916762e-06
-2.47312914e-06
-2.03478628e-06
3.78522375e-06
-3.1103223e-06
-2.86668982e-06
4.61978409e-06
-3.78739875e-06
-3.86352171e-06
5.50294567e-06
-4.50559079e-06
-5.03181359e-06
6.43427768e-06
-5.26541977e-06
-6.37729954e-06
7.41307867e-06
-6.06698106e-06
-7.90502755e-06
8.43856808e-06
-6.91017955e-06
-9.61942063e-06
9.51001458e-06
-7.79490852e-06
-1.15242893e-05
1.06268053e-05
-8.72116705e-06
-1.36227999e-05
1.17884617e-05
-9.68912075e-06
-1.59173942e-05
1.29946089e-05
-1.06991185e-05
-1.84096867e-05
1.42449321e-05
-1.1751673e-05
-2.11003126e-05
1.55391084e-05
-1.28474397e-05
-2.39887617e-05
1.68767427e-05
-1.39871689e-05
-2.70731731e-05
1.82573078e-05
-1.51716834e-05
-3.03501082e-05
1.96800844e-05
-1.64018415e-05
-3.3814293e-05
2.11441084e-05
-1.76785137e-05
-3.74583314e-05
2.26481215e-05
-1.90025635e-05
-4.12723805e-05
2.41905149e-05
-2.03748282e-05
-4.5243803e-05
2.57692792e-05
-2.17960921e-05
-4.93567654e-05
2.73819315e-05
-2.32670681e-05
-5.3591794e-05
2.90254417e-05
-2.47883657e-05
-5.79252754e-05
3.06961273e-05
-2.63604412e-05
-6.23288673e-05
3.23895191e-05
-2.79835535e-05
-6.6768804e-05
3.41001648e-05
-2.96576735e-05
-7.12050968e-05
3.58214244e-05
-3.13823829e-05
-7.5590858e-05
3.75454472e-05
-3.31567296e-05
-7.98718144e-05
3.92631208e-05
-3.49789871e-05
-8.39856578e-05
4.0963565e-05
-3.68463116e-05
-8.78587453e-05
4.26313167e-05
-3.87545598e-05
-9.14013549e-05
4.42451204e-05
-4.0698557e-05
-9.45161901e-05
4.57906384e-05
-4.26715999e-05
-9.71076534e-05
4.72576506e-05
-4.46617331e-05
-9.90622178e-05
4.86017054e-05
-4.66423766e-05
-0.000100211158
4.97647581e-05
-4.86107026e-05
-0.000100354448
5.06991239e-05
-5.05503554e-05
-9.92803842e-05
5.13423975e-05
-5.24106025e-05
-9.67833243e-05
5.16293462e-05
-5.41201353e-05
-9.26146659e-05
5.14784034e-05
-5.56403875e-05
-8.65058742e-05
5.07938174e-05
-5.68955104e-05
-7.81380158e-05
4.94639627e-05
-5.78242752e-05
-6.71804846e-05
4.73662835e-05
-5.83158106e-05
-5.32708844e-05
4.43546213e-05
-5.82557549e-05
-3.59771702e-05
4.0213395e-05
-5.74981671e-05
-1.4893844e-05
3.48295594e-05
-5.59034703e-05
1.01886582e-05
2.82331252e-05
-5.33057184e-05
3.99200496e-05
1.97436828e-05
-4.94646253e-05
7.50248892e-05
9.18652951e-06
-4.42805268e-05
0.000116320461
-3.85902505e-06
-3.74253584e-05
0.000164715879
-1.94483729e-05
-2.89351717e-05
0.00022124177
-3.86351234e-05
-1.78780987e-05
0.000286996128
-6.17053509e-05
-4.03562095e-06
0.000363350945
-8.90771267e-05
1.2736509e-05
0.000451738698
-0.000121354808
3.29822679e-05
0.000553192423
-0.0001593
5.78627339e-05
0.000669121876
-0.000203592473
8.76809897e-05
0.000801293129
-0.000254971516
0.000122820141
0.000951337605
-0.000314179679
0.000164157191
0.00112081126
-0.000381893791
0.000212444597
0.00131100141
-0.000458586154
0.00026842357
0.00152302468
-0.00054494765
0.000332953901
0.00175770742
-0.000641146459
0.000406493475
0.00201621586
-0.000748669191
0.000490190793
0.00230343416
-0.000871722838
0.000584534879
0.00261563558
-0.000995597547
0.000683426816
0.00294092915
-0.0011298972
0.00080463471
0.00331395587
-0.0013270509
0.000954055861
0.00375978432
-0.00147586591
0.00103006972
0.00414912261
-0.00155338885
0.00116408324
0.00445839124
-0.00185282385
0.00154359337
0.00496234286
-0.00221289565
0.00170898136
0.0056531691
-0.00233352507
0.00164272646
0.00617398174
-0.00232954736
0.00180875986
0.0064318509
-0.00265867974
0.00240083563
0.00668970848
-0.00297712493
0.00271927551
-0.00313578899
0.00278178708
0.00704370311
-3.16414332e-08
3.32268901e-07
-1.37170352e-07
1.0212742e-06
-3.28682482e-07
1.75915487e-06
-6.17180012e-07
2.54948438e-06
-1.01233451e-06
3.39470631e-06
-1.52239487e-06
4.29570362e-06
-2.15440277e-06
5.25224766e-06
-2.91424532e-06
6.26328185e-06
-3.80678907e-06
7.32735557e-06
-4.83599575e-06
8.44286306e-06
-6.00500015e-06
9.6081973e-06
-7.31614346e-06
1.08218337e-05
-8.77095844e-06
1.20823513e-05
-1.03701074e-05
1.33884015e-05
-1.21132868e-05
1.47386438e-05
-1.39990789e-05
1.61316497e-05
-1.60247829e-05
1.75658131e-05
-1.81862073e-05
1.90392491e-05
-2.04774295e-05
2.05496995e-05
-2.28905304e-05
2.20944486e-05
-2.54152963e-05
2.36702386e-05
-2.80388835e-05
2.52731812e-05
-3.07454571e-05
2.68986769e-05
-3.35157767e-05
2.8541311e-05
-3.63267304e-05
3.01947296e-05
-3.91508062e-05
3.18515028e-05
-4.19555031e-05
3.35029596e-05
-4.47027491e-05
3.51390593e-05
-4.73482015e-05
3.67480787e-05
-4.98389276e-05
3.83147931e-05
-5.21137624e-05
3.982312e-05
-5.41036945e-05
4.12560775e-05
-5.57327397e-05
4.25958128e-05
-5.69245415e-05
4.38265406e-05
-5.75834681e-05
4.4907707e-05
-5.75845946e-05
4.57956585e-05
-5.67539937e-05
4.64311843e-05
-5.49124633e-05
4.67645674e-05
-5.18778396e-05
4.6734815e-05
-4.74421873e-05
4.62684539e-05
-4.13841896e-05
4.52896743e-05
-3.34481014e-05
4.36988358e-05
-2.33533869e-05
4.13895739e-05
-1.07932657e-05
3.82399029e-05
4.60029606e-06
3.40769291e-05
2.31947512e-05
2.87787007e-05
4.51914125e-05
2.23651846e-05
7.12495699e-05
1.41627374e-05
0.000101983523
4.10337085e-06
0.000138131099
-7.9062407e-06
0.000180525786
-2.26423164e-05
0.000230152363
-4.04308968e-05
0.000288001031
-6.16980327e-05
0.000355414004
-8.68511084e-05
0.000433313091
-0.00011652331
0.000522953255
-0.000151333831
0.000625848178
-0.000191959409
0.000743615477
-0.000239108308
0.000877821934
-0.000293491379
0.00103001432
-0.000355768333
0.00120171979
-0.000426658652
0.00139400791
-0.000506447358
0.00160784657
-0.00059571086
0.00184400015
-0.0006947182
0.00210337906
-0.00080430506
0.0023872377
-0.000924983439
0.00269441174
-0.00105582142
0.0030295939
-0.00120688281
0.0033988829
-0.00136486402
0.00377902209
-0.00151001337
0.00415664453
-0.00170464991
0.00461089626
-0.0019300936
0.00512849389
-0.00207096188
0.00550141225
-0.00222571747
0.00581375817
-0.00252521831
0.0062382632
-0.00275800956
0.00674512143
-0.0028363878
0.00702116868
-0.0029347075
0.00714548204
-0.00310142064
-0.00325797643
0.00726767549
-2.0895868e-08
3.53413762e-07
-9.27548224e-08
1.09348691e-06
-2.25497033e-07
1.89230472e-06
-4.2803607e-07
2.75248061e-06
-7.08120349e-07
3.67529441e-06
-1.07216918e-06
4.66030166e-06
-1.52520997e-06
5.7058833e-06
-2.07098656e-06
6.80970041e-06
-2.7122924e-06
7.96935284e-06
-3.45089004e-06
9.18220448e-06
-4.28755591e-06
1.04456627e-05
-5.22208724e-06
1.17572241e-05
-6.25326547e-06
1.31144521e-05
-7.37877262e-06
1.45148991e-05
-8.59506397e-06
1.59559981e-05
-9.89720652e-06
1.74349327e-05
-1.12786729e-05
1.89485027e-05
-1.27311113e-05
2.0492999e-05
-1.42440757e-05
2.20640697e-05
-1.58047263e-05
2.36566054e-05
-1.73974926e-05
2.52646185e-05
-1.90036701e-05
2.68810866e-05
-2.06009237e-05
2.84977804e-05
-2.21626945e-05
3.01050618e-05
-2.36575732e-05
3.16917262e-05
-2.50485614e-05
3.32447567e-05
-2.62928382e-05
3.4749662e-05
-2.73416181e-05
3.61904276e-05
-2.81413816e-05
3.75505915e-05
-2.86356916e-05
3.88120362e-05
-2.87579639e-05
3.99485265e-05
-2.84229022e-05
4.09243547e-05
-2.75256244e-05
4.17020937e-05
-2.59293864e-05
4.22340908e-05
-2.34880738e-05
4.24704209e-05
-2.00403464e-05
4.23522296e-05
-1.54132164e-05
4.18086398e-05
-9.41972031e-06
4.07759421e-05
-1.84422136e-06
3.91644809e-05
7.55115743e-06
3.6878546e-05
1.90375827e-05
3.38090331e-05
3.29365468e-05
2.98059761e-05
4.95803767e-05
2.47521854e-05
6.91520058e-05
1.86750737e-05
9.22729281e-05
1.09630586e-05
0.000119499683
1.55924611e-06
0.000151488044
-9.61545889e-06
0.00018898232
-2.33233552e-05
0.00023285183
-3.97575461e-05
0.000284243141
-5.92885228e-05
0.000344005158
-8.23948501e-05
0.000413202533
-0.000109618281
0.000493048001
-0.000141532958
0.00058496284
-0.000178754741
0.000690404526
-0.000221953041
0.00081088673
-0.000271803288
0.000947970434
-0.000329029543
0.00110310713
-0.000394230455
0.00127761489
-0.000467983376
0.00147254098
-0.000550677385
0.00168874928
-0.000642849508
0.00192696389
-0.000744644958
0.00218795585
-0.000856686222
0.00247191539
-0.000978661349
0.00277871079
-0.00111108427
0.00310902985
-0.00125528626
0.00345977204
-0.00140654741
0.00382703617
-0.00157413049
0.00421728541
-0.00175509671
0.00463714879
-0.00192985965
0.00503319842
-0.00210068212
0.00540939745
-0.00230627517
0.00582808494
-0.00248963249
0.00620980181
-0.00260741738
0.00642093382
-0.00273633121
0.00654966631
-0.00288672023
0.00673305975
-0.00301975966
0.00693582915
-0.00313745704
0.00708494358
-0.00325051445
-0.00335753528
0.00718451894
-1.49827135e-08
3.68580262e-07
-6.73341976e-08
1.14609648e-06
-1.64837614e-07
1.99010339e-06
-3.14286945e-07
2.90226e-06
-5.21256276e-07
3.88262727e-06
-7.90045636e-07
4.92948793e-06
-1.12351594e-06
6.0397851e-06
-1.52325231e-06
7.2099049e-06
-1.98939185e-06
8.43599968e-06
-2.52097527e-06
9.71433756e-06
-3.11601447e-06
1.10412975e-05
-3.77133091e-06
1.2413186e-05
-4.48248847e-06
1.38263093e-05
-5.24368992e-06
1.52768589e-05
-6.04762586e-06
1.67607559e-05
-6.88527719e-06
1.82734744e-05
-7.74569177e-06
1.98098817e-05
-8.61569647e-06
2.13640477e-05
-9.47953432e-06
2.2929037e-05
-1.03184115e-05
2.44967038e-05
-1.11100178e-05
2.60575438e-05
-1.18281177e-05
2.76006097e-05
-1.24424981e-05
2.91136964e-05
-1.2918903e-05
3.05831223e-05
-1.32192764e-05
3.19938777e-05
-1.33012003e-05
3.33285848e-05
-1.31109322e-05
3.45614348e-05
-1.25855048e-05
3.56671881e-05
-1.16498334e-05
3.66172596e-05
-1.0212478e-05
3.73771814e-05
-8.16754027e-06
3.79062591e-05
-5.39783165e-06
3.81574888e-05
-1.76700502e-06
3.80743011e-05
2.88060542e-06
3.75897155e-05
8.70886941e-06
3.66455902e-05
1.59044575e-05
3.51602801e-05
2.46713053e-05
3.30456392e-05
3.52500699e-05
3.02012411e-05
4.79238947e-05
2.64949351e-05
6.29922363e-05
2.18147137e-05
8.06352807e-05
1.61707381e-05
0.000101416071
9.03010806e-06
0.000125838413
3.34923552e-07
0.000154493071
-9.97421627e-06
0.000188060989
-2.25991812e-05
0.000227324183
-3.76979885e-05
0.000273328931
-5.56139614e-05
0.000326807159
-7.67950262e-05
0.000388779404
-0.000101722905
0.000460417933
-0.000130919791
0.000542978754
-0.000164947994
0.000637802101
-0.000204433459
0.000746312453
-0.00025003465
0.000869967916
-0.000302401022
0.00101018909
-0.000362164471
0.00116834215
-0.000429945911
0.00134561372
-0.00050628986
0.00154296366
-0.000591568325
0.00176114117
-0.000686148629
0.00200057
-0.000790094281
0.00226166209
-0.000903930008
0.00254414239
-0.00102711387
0.00284799921
-0.00116053192
0.00317135112
-0.00130200222
0.00351252696
-0.00145224924
0.00386840176
-0.00161115014
0.00423710687
-0.00177524166
0.00461096054
-0.00194797308
0.00497764128
-0.00212176663
0.00533738447
-0.00228959271
0.00566301776
-0.00242630572
0.00591217831
-0.00255542354
0.0061014281
-0.00267886734
0.00629062745
-0.0027966023
0.00646349814
-0.00290918634
0.00659013849
-0.00301334284
0.00669443344
-0.00312403781
0.00678822145
-0.0032312232
0.00688583796
-0.00334811335
-0.00345076637
0.0069790783
-1.45008184e-08
3.83343621e-07
-6.36079558e-08
1.19557235e-06
-1.53064397e-07
2.0799815e-06
-2.8752711e-07
3.03719319e-06
-4.70298653e-07
4.0659151e-06
-7.03195736e-07
5.16294583e-06
-9.86649114e-07
6.32384422e-06
-1.31966671e-06
7.54357473e-06
-1.69965498e-06
8.8166889e-06
-2.12249119e-06
1.01379261e-05
-2.58263316e-06
1.15022462e-05
-3.07327898e-06
1.29046963e-05
-3.58603869e-06
1.43399951e-05
-4.11077816e-06
1.580259e-05
-4.63541218e-06
1.72864515e-05
-5.14565352e-06
1.87848518e-05
-5.62470475e-06
2.02901481e-05
-6.05297794e-06
2.17936203e-05
-6.40763695e-06
2.32850859e-05
-6.66269977e-06
2.47532533e-05
-6.78869024e-06
2.61851205e-05
-6.75033766e-06
2.75639486e-05
-6.50602443e-06
2.88711894e-05
-6.00736693e-06
3.00863919e-05
-5.1973018e-06
3.11858676e-05
-4.00878252e-06
3.21422579e-05
-2.3686106e-06
3.29236013e-05
-1.90671441e-07
3.34917396e-05
2.62737652e-06
3.38018684e-05
6.20636002e-06
3.38010365e-05
1.0680985e-05
3.3434661e-05
1.61985116e-05
3.26431856e-05
2.292367e-05
3.13525723e-05
3.10374093e-05
2.9479622e-05
4.07567176e-05
2.69301535e-05
5.23355478e-05
2.35855547e-05
6.60475078e-05
1.93380349e-05
8.20768557e-05
1.41765183e-05
0.000100924762
7.65185934e-06
0.000123046953
-3.0244544e-07
0.00014897101
-9.74796647e-06
0.000179308284
-2.13014622e-05
0.00021475929
-3.51100631e-05
0.000256277492
-5.14860676e-05
0.000304523178
-7.08381787e-05
0.000360427876
-9.35956338e-05
0.000425052087
-0.000120230746
0.000499528688
-0.000151263779
0.000585085079
-0.000187271002
0.000683014429
-0.000228840403
0.000794658788
-0.000276583212
0.000921374542
-0.000331139637
0.00106448682
-0.000393136916
0.0012252475
-0.000463151179
0.00140476087
-0.000541666728
0.00160376394
-0.000628937333
0.00182269094
-0.000725205336
0.002061624
-0.00083049045
0.00232031331
-0.000944827632
0.00259803188
-0.00106780304
0.00289396174
-0.00119985057
0.00320568689
-0.0013388301
0.00353163299
-0.00148646954
0.00386675898
-0.00163712002
0.00421115663
-0.00179663911
0.0045551424
-0.00195512843
0.00488742655
-0.00210751913
0.00518855888
-0.00224909924
0.00544138114
-0.00237458303
0.00564182359
-0.00249002864
0.00581684147
-0.00260131554
0.0059703967
-0.00270897014
0.0061007013
-0.00280916365
0.0062181975
-0.00291408858
0.00632674196
-0.00301772001
0.00642910757
-0.00311569553
0.0065238825
-0.00321879937
0.00661221853
-0.00331954329
0.00670002453
-0.003435906
-0.00353842058
0.0067876855
-1.8042867e-08
4.015503e-07
-7.57563558e-08
1.25351596e-06
-1.76903446e-07
2.18139202e-06
-3.23908028e-07
3.18449252e-06
-5.17610113e-07
4.25994217e-06
-7.57148051e-07
5.40283909e-06
-1.03992653e-06
6.60700945e-06
-1.36161014e-06
7.86567855e-06
-1.71634915e-06
9.17188444e-06
-2.09643056e-06
1.05185036e-05
-2.49207538e-06
1.189843e-05
-2.89173138e-06
1.33049379e-05
-3.28183502e-06
1.47307351e-05
-3.64649125e-06
1.61679377e-05
-3.96722435e-06
1.7607936e-05
-4.22267326e-06
1.90411171e-05
-4.38815649e-06
2.04565164e-05
-4.43500901e-06
2.18414311e-05
-4.32981926e-06
2.31809347e-05
-4.03395303e-06
2.44585139e-05
-3.50277799e-06
2.56551641e-05
-2.68693513e-06
2.67494201e-05
-1.52890553e-06
2.77145774e-05
3.92216788e-08
2.8519792e-05
2.09746189e-06
2.91292752e-05
4.73957907e-06
2.9501916e-05
8.06836293e-06
2.95967234e-05
1.22004438e-05
2.93617027e-05
1.72675472e-05
2.87369541e-05
2.34170154e-05
2.76539087e-05
3.0818958e-05
2.60352161e-05
3.96717861e-05
2.37930191e-05
5.02072967e-05
2.08198904e-05
6.26775451e-05
1.70123811e-05
7.72707687e-05
1.23401259e-05
9.44282693e-05
6.43140139e-06
0.000114560641
-7.90844603e-07
0.000138139649
-9.39877773e-06
0.000165711305
-1.99158502e-05
0.0001979022
-3.24891768e-05
0.000235560161
-4.74015417e-05
0.000279281466
-6.50181486e-05
0.000329901543
-8.5725277e-05
0.000388371964
-0.000109951363
0.000455707619
-0.000138168429
0.000533000829
-0.000170883121
0.000621419629
-0.000208643517
0.000722183465
-0.000252021279
0.000836535101
-0.000301615993
0.000965735816
-0.000358034129
0.00111101494
-0.000421855003
0.00127346906
-0.000493585994
0.00145398891
-0.000573648535
0.00165303719
-0.000662190753
0.00187068674
-0.000759307581
0.00210657756
-0.000864819813
0.00235992237
-0.000978542228
0.00262955415
-0.00110011465
0.00291368615
-0.00122895243
0.00320965501
-0.001363765
0.00351479492
-0.00150498396
0.00382399714
-0.00164802603
0.00413530825
-0.00179777478
0.00444141491
-0.00194322125
0.00472553931
-0.00208075895
0.00497274278
-0.00220232787
0.00517946934
-0.00231424149
0.0053464853
-0.00241611112
0.00548994872
-0.002518043
0.00561580114
-0.00261587686
0.0057311546
-0.00271666416
0.00583499147
-0.00281280191
0.00593319772
-0.0029073644
0.0060185005
-0.00299938474
0.00610249148
-0.00310170338
0.00618766077
-0.00320085626
0.00628460096
-0.00331573052
0.00639748551
-0.00343241714
0.00650432211
-0.00354273488
-0.00364399129
0.00660989686
-2.3104116e-08
4.2489455e-07
-9.39251922e-08
1.32467314e-06
-2.14029385e-07
2.30187967e-06
-3.83279953e-07
3.35417028e-06
-5.99607162e-07
4.47673777e-06
-8.58900397e-07
5.66264089e-06
-1.15496645e-06
6.90362456e-06
-1.47950001e-06
8.19080285e-06
-1.82203652e-06
9.51505555e-06
-2.17001617e-06
1.08671649e-05
-2.50851271e-06
1.22376586e-05
-2.81962214e-06
1.36168326e-05
-3.08264494e-06
1.49946e-05
-3.27383412e-06
1.63600297e-05
-3.36587342e-06
1.77009434e-05
-3.32733856e-06
1.900362e-05
-3.1221894e-06
2.02524777e-05
-2.70934518e-06
2.14297742e-05
-2.04187558e-06
2.25147365e-05
-1.06492476e-06
2.34829262e-05
2.85491125e-07
2.43062092e-05
2.08218458e-06
2.495429e-05
4.40727773e-06
2.53911575e-05
7.35375901e-06
2.5575102e-05
1.10266287e-05
2.54583221e-05
1.55448187e-05
2.49857759e-05
2.10493008e-05
2.4094433e-05
2.77007366e-05
2.27126091e-05
3.56814714e-05
2.07587211e-05
4.52027459e-05
1.81353037e-05
5.64969302e-05
1.47438835e-05
6.97525669e-05
1.0540431e-05
8.53570395e-05
5.21863642e-06
0.000103678717
-1.3059041e-06
0.000125138275
-9.11580133e-06
0.00015022105
-1.86474816e-05
0.000179482667
-3.00483171e-05
0.000213664896
-4.35765974e-05
0.0002533106
-5.95568666e-05
0.00029916179
-7.83353837e-05
0.000352060532
-0.000100294991
0.000412905321
-0.00012585731
0.000482670044
-0.000155484011
0.000562395886
-0.000189670852
0.000653174892
-0.000228940739
0.000756145122
-0.000273846301
0.000872453598
-0.000324944595
0.00100322293
-0.000382782844
0.00114948651
-0.000447871451
0.00131210776
-0.000520646858
0.00149169784
-0.000601436118
0.0016884432
-0.000690321888
0.00190209496
-0.00078729086
0.00213193372
-0.000892020565
0.00237673369
-0.00100409914
0.00263474757
-0.00112282574
0.00290354866
-0.00124733585
0.00318005024
-0.00137660913
0.00346087778
-0.00150977332
0.00374126762
-0.00164414849
0.00401747171
-0.00178118215
0.00428253174
-0.0019130809
0.00452044276
-0.00203568149
0.00472390707
-0.00214668122
0.00488750553
-0.0022443535
0.00502475532
-0.00233957392
0.00514627215
-0.0024357552
0.00525724705
-0.00252708367
0.00535744244
-0.00261823582
0.00545074559
-0.00270917688
0.00553702381
-0.00280293963
0.00561848829
-0.00289426253
0.00569779314
-0.00298666476
0.00577377215
-0.00307535947
0.00585694787
-0.00318487366
0.00594464336
-0.00328854529
0.00603277823
-0.00340385861
0.00613396398
-0.00353359732
0.00624035727
-0.00364912465
-0.0037529233
0.00634929127
-2.69154332e-08
4.51960367e-07
-1.06522947e-07
1.40449283e-06
-2.37667778e-07
2.4332681e-06
-4.1703008e-07
3.53380568e-06
-6.38880712e-07
4.69888992e-06
-8.94983104e-07
5.9190733e-06
-1.17453301e-06
7.18353406e-06
-1.46408891e-06
8.48074976e-06
-1.74746032e-06
9.79885184e-06
-2.00555145e-06
1.1125718e-05
-2.21623004e-06
1.24488394e-05
-2.35365169e-06
1.37548008e-05
-2.38797125e-06
1.50295144e-05
-2.28511563e-06
1.6257821e-05
-2.00597081e-06
1.74225021e-05
-1.50574556e-06
1.85041594e-05
-7.33201511e-07
1.94807643e-05
3.70329663e-07
2.0327145e-05
1.87154369e-06
2.10145011e-05
3.84617778e-06
2.15093531e-05
6.37981986e-06
2.17737166e-05
9.57173019e-06
2.17636239e-05
1.35353833e-05
2.14288493e-05
1.84003623e-05
2.07115748e-05
2.43142998e-05
1.95459499e-05
3.14447332e-05
1.78570282e-05
3.99844067e-05
1.55565709e-05
5.0147264e-05
1.25516988e-05
6.21181314e-05
8.78994555e-06
7.62371576e-05
4.01850015e-06
9.2833854e-05
-1.85045845e-06
0.000112282866
-8.90605383e-06
0.00013501457
-1.7510357e-05
0.000161519831
-2.78082745e-05
0.000192441837
-4.00347311e-05
0.000228274536
-5.44769083e-05
0.000269674369
-7.14446746e-05
0.000317382494
-9.12810317e-05
0.000372193395
-0.00011436385
0.000434968932
-0.000141106755
0.000506634373
-0.000171956019
0.000588164509
-0.000207382786
0.000680568136
-0.000247882735
0.000784865633
-0.000293963185
0.000902058475
-0.000346128158
0.0010330772
-0.000404859321
0.00117872934
-0.000470590755
0.0013396307
-0.000543677905
0.00151611191
-0.000624346015
0.0017080988
-0.000712626668
0.00191502487
-0.000808354983
0.00213582325
-0.000911113272
0.00236890444
-0.00102036539
0.00261223305
-0.00113534277
0.00286310251
-0.00125496252
0.00311807658
-0.00137779395
0.00337315319
-0.00150240689
0.00362349559
-0.00162694613
0.00386556038
-0.00175183301
0.00409308064
-0.00187166412
0.00429351227
-0.0019816098
0.0044623821
-0.00208194649
0.00459773677
-0.00217103146
0.0047113631
-0.00226030374
0.00481311992
-0.00234610805
0.00490514386
-0.00243159556
0.00499016941
-0.00252077866
0.00507235371
-0.00260926613
0.00515034981
-0.00269623022
0.00522262306
-0.00278144836
0.00529223865
-0.0028725533
0.00536609362
-0.00296811492
0.00544077486
-0.00306134339
0.00552042665
-0.00315500841
0.00560105003
-0.00326549363
0.00568726012
-0.00337475151
0.0057641624
-0.00348075732
0.00583194015
-0.0036013716
0.00591064295
-0.00372782522
-0.00384490988
0.00600263004
-2.6224338e-08
4.78394657e-07
-1.01074177e-07
1.4796362e-06
-2.2002142e-07
2.55255003e-06
-3.75736122e-07
3.68989323e-06
-5.57879486e-07
4.8814423e-06
-7.53011409e-07
6.11464973e-06
-9.44510468e-07
7.37551356e-06
-1.11239897e-06
8.64915602e-06
-1.23310745e-06
9.92011793e-06
-1.27916154e-06
1.11723721e-05
-1.21890083e-06
1.23892239e-05
-1.01612308e-06
1.35527176e-05
-6.2920149e-07
1.46433403e-05
-1.03614648e-08
1.5639785e-05
8.94770576e-07
1.65182348e-05
2.14812193e-06
1.72517382e-05
3.82012087e-06
1.78097653e-05
5.99148022e-06
1.81568606e-05
8.75389385e-06
1.82532437e-05
1.22118581e-05
1.80526323e-05
1.64843293e-05
1.75025821e-05
2.17063512e-05
1.65430386e-05
2.80311025e-05
1.51056416e-05
3.56336247e-05
1.31107098e-05
4.47097973e-05
1.04715585e-05
5.54376634e-05
7.13107768e-06
6.8115729e-05
2.88054686e-06
8.30379816e-05
-2.36838072e-06
0.000100537622
-8.70735579e-06
0.000120995629
-1.64369867e-05
0.000144844352
-2.56964816e-05
0.000172639903
-3.66987109e-05
0.000204830488
-4.96978448e-05
0.000241995813
-6.49702847e-05
0.000284786747
-8.28221219e-05
0.000333904108
-0.00010359048
0.00039010681
-0.000127643323
0.000454208601
-0.000155378492
0.000527067431
-0.000187218079
0.000609571677
-0.000223606121
0.000702620834
-0.000265000016
0.000807101101
-0.000311857601
0.000923846147
-0.00036462204
0.0010535913
-0.000423702289
0.00119691828
-0.000489448798
0.00135418931
-0.000562123693
0.00152546884
-0.000641863285
0.00171044264
-0.0007286443
0.00190827307
-0.00082216881
0.00211762632
-0.000921972414
0.00233663773
-0.00102735926
0.00256297634
-0.00113744508
0.00279370651
-0.0012510891
0.00302536879
-0.00136699887
0.00325399778
-0.00148358564
0.00347528317
-0.00159907368
0.00368469469
-0.00171181305
0.00387814054
-0.00182038708
0.00404791394
-0.00192160192
0.00419061758
-0.00201436307
0.00430727362
-0.00209826083
0.00440685151
-0.00218152002
0.0044977616
-0.0022619385
0.00457997427
-0.00234251367
0.00465637152
-0.00242250314
0.00472664062
-0.00250186259
0.00479080902
-0.00258494509
0.00485353667
-0.00267199194
0.00491967035
-0.00276236224
0.004989242
-0.00285101825
0.00505845685
-0.00294176641
0.0051262522
-0.00303590839
0.00519698437
-0.00313207373
0.005271211
-0.003229233
0.00533857225
-0.00333285305
0.00540487315
-0.00344105066
0.00547816842
-0.00355405111
0.00554966056
-0.00367286242
0.00561997101
-0.00379813582
-0.00391744641
0.00569250641
-2.00600904e-08
4.98599491e-07
-7.28602541e-08
1.53264029e-06
-1.4937401e-07
2.62929769e-06
-2.37059686e-07
3.77784096e-06
-3.19639709e-07
4.96431158e-06
-3.76961717e-07
6.17228829e-06
-3.84852579e-07
7.38374918e-06
-3.14849477e-07
8.57952764e-06
-1.33853809e-07
9.73952951e-06
1.96358343e-07
1.08426026e-05
7.19655345e-07
1.18664079e-05
1.48602971e-06
1.27868661e-05
2.55230906e-06
1.35776295e-05
3.98324711e-06
1.42094652e-05
5.85234286e-06
1.46498108e-05
8.24372879e-06
1.4861082e-05
1.12526644e-05
1.48016229e-05
1.49874005e-05
1.44229866e-05
1.9570668e-05
1.36709119e-05
2.51410547e-05
1.24832608e-05
3.18565255e-05
1.07882113e-05
3.98950721e-05
8.50568427e-06
4.94256869e-05
5.57631881e-06
6.07091974e-05
1.82858842e-06
7.40069546e-05
-2.82470863e-06
8.96146027e-05
-8.47495737e-06
0.000107868555
-1.53716602e-05
0.000129148411
-2.36463571e-05
0.000153934117
-3.34910413e-05
0.000182629577
-4.51302754e-05
0.000215745084
-5.88096608e-05
0.000253850046
-7.48011775e-05
0.000297559135
-9.34042651e-05
0.000347537029
-0.000114945321
0.000404496063
-0.000139778106
0.000469187953
-0.000168279125
0.000542392925
-0.000200844858
0.000624904182
-0.000237886114
0.000717507034
-0.000279817099
0.000820948027
-0.000327043076
0.00093589658
-0.00037994433
0.00106290004
-0.000438856611
0.00120233041
-0.00050404775
0.00135432367
-0.00057569066
0.00151871118
-0.000653831218
0.001694942
-0.000738349124
0.00188198841
-0.000828904027
0.00207829895
-0.000924949097
0.00228182199
-0.00102568632
0.0024900882
-0.00113023329
0.00270016324
-0.00123742919
0.0029086368
-0.00134591369
0.00311169322
-0.0014541408
0.00330536793
-0.001560669
0.00348574042
-0.00166395376
0.00364955759
-0.00176288663
0.00379372817
-0.00185597969
0.00391597683
-0.00194263174
0.00401676241
-0.00202238346
0.00410215398
-0.00209975122
0.00417930721
-0.00217541101
0.0042511257
-0.00225333571
0.00432149753
-0.00233230813
0.0043887389
-0.00240975279
0.00445212893
-0.00248589132
0.0045131437
-0.00256287567
0.00457339526
-0.00264519524
0.00463537894
-0.0027339743
0.00470152223
-0.00282850442
0.00477266167
-0.00292215654
0.00484473255
-0.00301383629
0.00491357219
-0.00310474704
0.0049816464
-0.00320014728
0.00504915878
-0.00329674481
0.00511370914
-0.00339740328
0.00517514517
-0.00350248673
0.00523445054
-0.00361335699
0.00529553602
-0.00373394894
0.00535316455
-0.00385576668
-0.00398294876
0.00541866438
-7.88319872e-09
5.06661742e-07
-1.95298327e-08
1.54453707e-06
-1.9818891e-08
2.62987192e-06
1.06705278e-08
3.7476694e-06
9.59545803e-08
4.87937669e-06
2.64867822e-07
6.00375525e-06
5.5132992e-07
7.09769897e-06
9.94649353e-07
8.13665339e-06
1.63996874e-06
9.09469076e-06
2.5388021e-06
9.94428796e-06
3.74986118e-06
1.06559087e-05
5.33990462e-06
1.1197427e-05
7.38450518e-06
1.1533681e-05
9.97000248e-06
1.16246715e-05
1.31939066e-05
1.14266669e-05
1.71666471e-05
1.08891632e-05
2.20130772e-05
9.95608031e-06
2.78743239e-05
8.56269835e-06
3.49106183e-05
6.63565332e-06
4.32800735e-05
4.11492582e-06
5.32088969e-05
8.60591727e-07
6.49281039e-05
-3.21223014e-06
7.86988029e-05
-8.19298154e-06
9.48167228e-05
-1.42878173e-05
0.000113613651
-2.16200044e-05
0.000135502256
-3.03618011e-05
0.000160843754
-4.07112604e-05
0.000190085383
-5.28859439e-05
0.000223723283
-6.71267426e-05
0.00026229419
-8.36988184e-05
0.000306377968
-0.000102890899
0.000356596156
-0.000125016635
0.000413605685
-0.000150410873
0.000478090346
-0.000179426865
0.000550748373
-0.000212432818
0.000632275607
-0.000249802839
0.000723341557
-0.000291907081
0.000824558096
-0.000339098711
0.000936443052
-0.000391697903
0.00105937693
-0.000449972579
0.00119355342
-0.000514116242
0.00133892481
-0.000584223186
0.00149514381
-0.000660261736
0.00166150413
-0.00074204572
0.00183687464
-0.000829196196
0.00201961633
-0.000921085071
0.0022075795
-0.00101686152
0.0023982219
-0.00111558602
0.00258866458
-0.00121612374
0.00277585977
-0.00131742338
0.00295624204
-0.00141780658
0.00312651346
-0.00151618038
0.00328361119
-0.00161123404
0.00342462415
-0.00170167759
0.00354834737
-0.00178767276
0.00365361666
-0.00186815177
0.00374205502
-0.00194441461
0.00381702575
-0.00201759919
0.0038850546
-0.00209040878
0.00394925799
-0.00216395164
0.0040100325
-0.00223618303
0.00406839361
-0.00231169422
0.0041270317
-0.00239094402
0.00418724688
-0.002469966
0.00425030009
-0.00254894294
0.00431729301
-0.00262986715
0.00438605768
-0.00271395887
0.00445375429
-0.00280167011
0.00452054529
-0.00289529491
0.00458679784
-0.00298840866
0.00465101206
-0.0030780504
0.00471519553
-0.00316893054
0.0047773873
-0.00326233947
0.00483685964
-0.00335621784
0.00489372517
-0.00345427008
0.00494494158
-0.00355370474
0.00499401436
-0.00366243209
0.00505509881
-0.00379503621
0.00511991661
-0.00392058811
-0.00404641261
0.00518337681
1.08917122e-08
4.95909723e-07
6.14484165e-08
1.49417768e-06
1.74630313e-07
2.51691675e-06
3.7860054e-07
3.54395344e-06
7.07076087e-07
4.55118187e-06
1.19962053e-06
5.51151797e-06
1.90202003e-06
6.39563399e-06
2.86678201e-06
7.17225491e-06
4.15377483e-06
7.80809266e-06
5.83101871e-06
8.2674727e-06
7.97541158e-06
8.51198102e-06
1.0674543e-05
8.49880052e-06
1.4027076e-05
8.18169697e-06
1.81444445e-05
7.50790007e-06
2.31527867e-05
6.41897342e-06
2.9194088e-05
4.84856751e-06
3.64144725e-05
2.7364636e-06
4.50087999e-05
-3.07978863e-08
5.51800255e-05
-3.53467344e-06
6.71573752e-05
-7.86144571e-06
8.11992268e-05
-1.31801957e-05
9.75938841e-05
-1.96057331e-05
0.000116693968
-2.72918139e-05
0.000138820234
-3.6412729e-05
0.000164362302
-4.7160606e-05
0.000193750232
-5.97481468e-05
0.000227450123
-7.44094416e-05
0.000265965583
-9.1399559e-05
0.000309836371
-0.000110995541
0.000359633949
-0.000133494259
0.000415955017
-0.000159209682
0.000479411741
-0.000188470919
0.000550618545
-0.000221615082
0.000630173902
-0.000258979466
0.000718635266
-0.000300891268
0.00081649021
-0.000347654706
0.000924121796
-0.000399535432
0.00104176884
-0.000456742361
0.00116948144
-0.000519406944
0.00130707356
-0.000587560993
0.00145407449
-0.000661113312
0.00160968256
-0.000739827241
0.00177272523
-0.000823300222
0.00194162786
-0.000910943952
0.00211436117
-0.00100192501
0.00228848853
-0.00109520799
0.00246128378
-0.00118965248
0.00262995452
-0.00128425256
0.00279149254
-0.00137765769
0.00294361067
-0.00146953749
0.00308342633
-0.00155761841
0.0032080563
-0.00164080687
0.00331558962
-0.00171876414
0.00340668771
-0.00179277242
0.003483851
-0.00186483323
0.00355095
-0.00193524807
0.00361098277
-0.00200444461