/*--------------------------------*- C++ -*----------------------------------*\
  =========                 |
  \\      /  F ield         | OpenFOAM: The Open Source CFD Toolbox
   \\    /   O peration     | Website:  https://openfoam.org
    \\  /    A nd           | Version:  8
     \\/     M anipulation  |
\*---------------------------------------------------------------------------*/
FoamFile
{
    version     2.0;
    format      ascii;
    class       volScalarField;
    location    "0.051";
    object      T;
}
// * * * * * * * * * * * * * * * * * * * * * * * * * * * * * * * * * * * * * //

dimensions      [0 0 0 1 0 0 0];

internalField   nonuniform List<scalar> 
42400
(
472.145682
470.417985
468.644556
466.824123
464.955454
463.037381
461.068818
459.048792
456.976463
454.851164
452.672425
450.440014
448.15398
445.814689
443.422878
440.979702
438.486784
435.946276
433.360907
430.734048
428.069757
425.372837
422.648876
419.904287
417.146334
414.383147
411.62371
408.877848
406.156173
403.470019
400.83134
398.252591
395.74658
393.326294
391.00471
388.794579
386.708222
384.757347
382.952859
381.304675
379.821576
378.511059
377.379249
376.430884
375.66929
375.09643
374.712912
374.518084
374.509985
374.684608
375.036351
375.558054
376.23961
377.06724
378.02531
379.092394
380.24026
381.42416
382.601404
383.751933
384.927163
385.681776
385.95783
385.73737
385.046438
384.089783
382.781606
381.02665
378.716392
375.770011
372.116726
368.183951
363.506887
357.365006
351.482594
346.613062
340.232407
333.358356
325.493106
321.309228
472.187131
470.543261
468.855906
467.123882
465.346049
463.521335
461.648754
459.727438
457.756659
455.735862
453.664696
451.543055
449.371109
447.149357
444.878664
442.560318
440.196073
437.788212
435.339593
432.853708
430.334738
427.787595
425.217976
422.632391
420.038195
417.443602
414.857678
412.290328
409.75225
407.254874
404.810269
402.431031
400.130144
397.92082
395.816344
393.82987
391.974212
390.261593
388.703401
387.309925
386.09014
385.051516
384.199846
383.539073
383.071142
382.795718
382.710123
382.808946
383.086339
383.528369
384.120437
384.843601
385.672521
386.571936
387.50193
388.434927
389.377824
390.084748
390.411918
390.323706
389.673217
388.780534
387.585669
386.014861
383.929396
381.26242
377.997242
374.109871
369.70152
364.788216
359.214245
353.478254
347.710976
341.021468
334.151362
328.008276
322.601575
316.597163
311.225557
306.448287
472.238556
470.698687
469.118122
467.495783
465.830649
464.121769
462.36829
460.569483
458.724764
456.833734
454.896203
452.91223
450.882162
448.806673
446.686812
444.524051
442.320331
440.078118
437.800453
435.491006
433.154123
430.79488
428.419118
426.033481
423.645439
421.263301
418.896208
416.554113
414.247733
411.988494
409.788444
407.660148
405.616545
403.670773
401.835964
400.124989
398.550168
397.122958
395.853666
394.751131
393.822392
393.072384
392.503497
392.115301
391.904755
391.864617
391.98046
392.246333
392.635526
393.118113
393.661572
394.235819
394.826687
395.314344
395.512931
395.393728
394.787352
393.896636
392.747552
391.267201
389.370867
386.930007
383.918016
380.334344
376.19645
371.529533
366.386985
360.780693
354.865295
348.795167
342.459124
336.034842
329.95157
324.030987
318.199818
312.807757
308.297107
304.233543
301.107417
300.040562
472.296502
470.873826
469.413599
467.914871
466.376758
464.79846
463.179284
461.518669
459.816217
458.071722
456.285198
454.456919
452.587458
450.677723
448.729003
446.743013
444.721944
442.668509
440.585992
438.4783
436.350002
434.206377
432.053445
429.897992
427.747591
425.610599
423.49615
421.41412
419.375064
417.390139
415.470982
413.629562
411.877977
410.22821
408.691842
407.279743
406.001717
404.866117
403.879452
403.045904
402.36692
401.841202
401.463328
401.223531
401.107906
401.095227
401.159072
401.286077
401.454702
401.535458
401.448811
401.107126
400.432789
399.463309
398.281692
396.819998
395.00588
392.725837
389.923991
386.57918
382.686638
378.279235
373.398851
368.100822
362.442196
356.485631
350.33427
344.03555
337.719015
331.56595
325.663814
320.006435
314.833273
310.248344
306.435775
303.189957
300.647743
300.069584
299.920904
299.880075
472.357125
471.057064
469.722756
468.353401
466.948271
465.50674
464.028298
462.512585
460.959415
459.368805
457.74101
456.076553
454.376265
452.641321
450.873283
449.074141
447.246355
445.392899
443.517302
441.623692
439.716822
437.80211
435.885652
433.974231
432.075315
430.197028
428.348111
426.537836
424.775911
423.072336
421.437213
419.880521
418.411851
417.040086
415.773034
414.617038
413.576504
412.653436
411.847158
411.153121
410.562975
410.06545
409.645465
409.286301
408.965584
408.580371
408.083086
407.416793
406.510605
405.42058
404.149227
402.639119
400.828403
398.629447
395.977291
392.841573
389.203953
385.065029
380.444907
375.391564
369.962224
364.221238
358.227998
352.076389
345.83964
339.609864
333.498906
327.596928
321.996362
316.817278
312.200314
308.223777
304.98985
302.400262
300.511827
300.00323
299.891373
299.868107
299.858123
299.859588
472.416166
471.235532
470.023899
468.78063
467.505174
466.197089
464.856066
463.481956
462.074794
460.634826
459.162545
457.658716
456.124412
454.561048
452.970413
451.35471
449.716584
448.059158
446.386059
444.70144
443.009995
441.316963
439.62812
437.949751
436.288602
434.651812
433.046804
431.481154
429.962421
428.497932
427.09453
425.758275
424.494119
423.305522
422.194066
421.15921
420.197774
419.303952
418.46991
417.66928
416.870751
416.042594
415.147267
414.141544
412.984928
411.716148
410.292374
408.667926
406.790599
404.589004
402.012026
399.026354
395.606195
391.737524
387.420308
382.669573
377.518077
372.019053
366.242412
360.250857
354.106284
347.896644
341.690699
335.600088
329.713589
324.130423
318.937196
314.236741
310.117956
306.680208
303.959051
301.911574
300.482024
300.021632
299.916596
299.885073
299.870912
299.86583
299.857196
299.84844
472.468825
471.394724
470.292559
469.161858
468.002247
466.813464
465.595388
464.348057
463.071693
461.766729
460.433829
459.07392
457.688213
456.278229
454.845824
453.393208
451.922965
450.438064
448.941863
447.438105
445.930899
444.424689
442.924197
441.434355
439.960197
438.506736
437.078794
435.680812
434.316614
432.989139
431.700124
430.449786
429.236547
428.056595
426.902938
425.762091
424.616619
423.445225
422.222974
420.938409
419.577143
418.11206
416.51224
414.741723
412.755758
410.502838
407.949201
405.062592
401.815163
398.18615
394.163716
389.746336
384.943931
379.779511
374.290697
368.529227
362.571524
356.47843
350.315858
344.159462
338.082619
332.184452
326.549724
321.273134
316.444761
312.158738
308.493313
305.512154
303.222201
301.600227
300.498535
300.046551
299.942249
299.89974
299.885901
299.873266
299.857367
299.841218
299.824633
299.810287
472.509978
471.519149
470.502587
469.459969
468.391067
467.295763
466.174067
465.026136
463.852291
462.653034
461.429067
460.181306
458.910895
457.61922
456.307909
454.978842
453.634141
452.276157
450.907443
449.530719
448.148813
446.764589
445.380851
444.000223
442.624996
441.256952
439.897152
438.545698
437.201471
435.861893
434.522587
433.176855
431.815402
430.426939
428.997125
427.512074
425.954814
424.304948
422.537907
420.623293
418.528476
416.224245
413.681235
410.871365
407.768338
404.349681
400.598111
396.502848
392.060868
387.277983
382.169649
376.761874
371.091624
365.208489
359.183032
353.083173
346.974414
340.928189
335.02061
329.3416
323.977959
319.01668
314.544859
310.63778
307.365568
304.753812
302.792818
301.428954
300.581999
300.109757
299.984209
299.937977
299.914476
299.891836
299.870398
299.843656
299.818055
299.802688
299.798573
299.796533
472.534795
471.594207
470.629328
469.639941
468.625904
467.587166
466.523775
465.435892
464.323797
463.187897
462.028732
460.846979
459.643447
458.419073
457.174906
455.912092
454.631835
453.335363
452.023865
450.698425
449.359927
448.008946
446.645789
445.270242
443.881364
442.47727
441.054866
439.609469
438.134749
436.623114
435.065078
433.449325
431.762589
429.988545
428.109325
426.105167
423.954643
421.635039
419.122909
416.394846
413.428516
410.20305
406.700057
402.904811
398.807272
394.403067
389.694419
384.690998
379.410792
373.880584
368.13659
362.22544
356.205824
350.15185
344.130963
338.216887
332.488036
327.028476
321.923105
317.258707
313.113899
309.550709
306.617876
304.315623
302.611234
301.434231
300.690139
300.274607
300.070109
300.000003
299.954416
299.917906
299.880064
299.843956
299.817035
299.807103
299.803582
299.80087
299.796962
299.796828
472.539699
471.609058
470.65444
469.675642
468.672517
467.644976
466.592989
465.516589
464.415866
463.290971
462.142098
460.969479
459.773363
458.553991
457.311558
456.046186
454.757876
453.446458
452.111507
450.752253
449.367449
447.955227
446.512721
445.035923
443.519374
441.956802
440.341432
438.665425
436.919611
435.092776
433.172115
431.143279
428.990482
426.696687
424.243912
421.613622
418.787231
415.746762
412.475238
408.957202
405.179713
401.133136
396.811952
392.215563
387.349105
382.224251
376.859981
371.283226
365.529693
359.644073
353.681272
347.709204
341.80269
336.034842
330.485379
325.237648
320.375081
315.977809
312.113625
308.83291
306.162206
304.085823
302.556534
301.497805
300.813733
300.403326
300.174006
300.047938
299.97503
299.916386
299.864843
299.829702
299.811722
299.809712
299.807638
299.805757
299.803511
299.801082
299.797531
299.796876
472.525247
471.565411
470.58087
469.571401
468.536798
467.476871
466.391435
465.280303
464.143271
462.98011
461.790548
460.574245
459.330769
458.059558
456.759035
455.427087
454.061562
452.66039
451.221008
449.740283
448.214444
446.63904
445.008911
443.318185
441.560487
439.728097
437.811486
435.799981
433.681781
431.444007
429.072823
426.553627
423.871309
421.010584
417.956431
414.694493
411.211271
407.494943
403.535983
399.327834
394.86762
390.156894
385.202429
380.017043
374.620457
369.040137
363.311955
357.480494
351.599696
345.732588
339.954398
334.344259
328.980339
323.941972
319.306907
315.145884
311.516858
308.456681
305.974524
304.045226
302.612926
301.600945
300.923112
300.492176
300.227452
300.06474
299.960197
299.890385
299.838496
299.809957
299.805242
299.805156
299.807416
299.808412
299.807369
299.803909
299.80014
299.798336
299.796632
299.796568
472.490952
471.461782
470.406088
469.32356
468.213856
467.076592
465.91132
464.717512
463.493833
462.239084
460.952005
459.631081
458.274498
456.880091
455.44613
453.970742
452.451285
450.8841
449.264956
447.588977
445.850559
444.043351
442.160187
440.193011
438.132893
435.970002
433.69364
431.292309
428.753834
426.065525
423.214404
420.187493
416.972189
413.556292
409.928665
406.079723
402.001997
397.690752
393.144683
388.366662
383.364558
378.152099
372.749763
367.185672
361.496451
355.727719
349.934079
344.17823
338.531183
333.069926
327.878528
323.031681
318.599334
314.640463
311.20022
308.304077
305.949874
304.108221
302.723236
301.724143
301.031203
300.567434
300.266685
300.075435
299.954826
299.879955
299.835353
299.810044
299.80263
299.803112
299.802964
299.803095
299.801891
299.800288
299.800066
299.801614
299.79859
299.795653
299.793494
299.793366
472.43752
471.300289
470.133598
468.936941
467.709719
466.451207
465.160058
463.83501
462.47525
461.079409
459.645691
458.171989
456.655849
455.094425
453.484438
451.822129
450.103197
448.322725
446.475165
444.554283
442.553102
440.463913
438.278255
435.986938
433.580074
431.047154
428.377145
425.558644
422.580063
419.429899
416.096862
412.570232
408.8403
404.898833
400.739611
396.359042
391.756855
386.936868
381.907834
376.684324
371.287622
365.746589
360.098393
354.389063
348.673735
343.01587
337.48582
332.157763
327.108729
322.413872
318.138824
314.33333
311.032775
308.25336
305.984394
304.193825
302.828991
301.823753
301.108963
300.61775
300.291484
300.081459
299.95087
299.874093
299.832424
299.812284
299.805042
299.803739
299.801704
299.798875
299.796559
299.79605
299.796458
299.797589
299.79972
299.804137
299.804776
299.798689
299.793464
299.791021
472.369793
471.095592
469.788246
468.447047
467.071134
465.659352
464.21061
462.723433
461.196068
459.626451
458.012163
456.350391
454.637888
452.870929
451.045268
449.156106
447.19805
445.165071
443.050492
440.846969
438.546499
436.140431
433.619506
430.973926
428.193448
425.267516
422.185446
418.936604
415.51059
411.897616
408.088892
404.077076
399.856808
395.425325
390.783162
385.934923
380.890126
375.664072
370.278712
364.763432
359.155681
353.501315
347.854547
342.27739
336.838426
331.61028
326.666246
322.075814
317.900039
314.186393
310.966606
308.251585
306.02888
304.264988
302.909544
301.901273
301.175143
300.668562
300.3273
300.106391
299.969526
299.889094
299.84475
299.821854
299.810616
299.804533
299.800711
299.798937
299.799641
299.798674
299.797373
299.79784
299.798335
299.801024
299.802996
299.805766
299.810745
299.812652
299.810536
299.800082
472.291376
470.858591
469.388424
467.879967
466.332096
464.743451
463.112565
461.437553
459.716183
457.945841
456.123486
454.245616
452.308229
450.306787
448.236177
446.090695
443.864019
441.549203
439.138681
436.624279
433.997262
431.248392
428.36802
425.346216
422.172941
418.838169
415.332179
411.645876
407.771165
403.701405
399.431941
394.960716
390.288966
385.42199
380.36996
375.148767
369.780823
364.295767
358.730974
353.131769
347.551209
342.049304
336.69153
331.546645
326.683738
322.168476
318.058691
314.400054
311.21994
308.527804
306.309484
304.532451
303.150518
302.107592
301.344488
300.804702
300.435961
300.192884
300.038153
299.943294
299.886732
299.853216
299.832387
299.818431
299.807585
299.801854
299.797774
299.796558
299.798415
299.80338
299.806968
299.808016
299.810384
299.809629
299.808358
299.807192
299.80898
299.814058
299.820815
299.824655
472.204285
470.595373
468.944379
467.250177
465.511394
463.726464
461.893494
460.010179
458.073804
456.081206
454.028737
451.912225
449.726948
447.467604
445.128296
442.702521
440.183176
437.562572
434.832476
431.984173
429.008552
425.896236
422.637722
419.223563
415.644631
411.892437
407.959499
403.839795
399.52929
395.026532
390.333343
385.455552
380.403787
375.194261
369.849525
364.399091
358.879852
353.336186
347.81961
342.387903
337.103587
332.031644
327.236483
322.778514
318.710355
315.073203
311.893091
309.178352
306.917567
305.082341
303.632165
302.517109
301.683297
301.077291
300.64884
300.354438
300.157541
300.028703
299.944413
299.890657
299.855637
299.833332
299.818983
299.810132
299.806086
299.800944
299.797854
299.796597
299.798054
299.803627
299.80968
299.813032
299.8142
299.81563
299.817258
299.815387
299.810876
299.811125
299.814913
299.824084
472.109786
470.309765
468.462583
466.566939
464.62124
462.623554
460.571565
458.462532
456.293245
454.059992
451.75852
449.384016
446.931081
444.393724
441.765364
439.038846
436.20648
433.260098
430.191143
426.990793
423.650093
420.160155
416.512413
412.698929
408.712757
404.548383
400.202239
395.673283
390.963656
386.079393
381.031163
375.835014
370.513066
365.094077
359.613803
354.115045
348.647264
343.265653
338.029581
333.000389
328.238603
323.800468
319.734392
316.077913
312.854852
310.073432
307.726138
305.790106
304.230136
303.003312
302.062806
301.360291
300.849151
300.487159
300.237906
300.071107
299.962692
299.894591
299.849747
299.824631
299.814047
299.811257
299.810628
299.809141
299.807135
299.80577
299.805919
299.807388
299.806646
299.806168
299.809171
299.812443
299.813951
299.814571
299.815976
299.819485
299.816877
299.810968
299.809471
299.81607
472.008941
470.004975
467.948419
465.837741
463.671065
461.446123
459.16021
456.81014
454.392212
451.902175
449.335211
446.685917
443.94831
441.115837
438.181411
435.137466
431.97604
428.688892
425.267631
421.70392
417.989711
414.117538
410.080875
405.874551
401.49524
396.94202
392.216992
387.325951
382.279089
377.09169
371.784778
366.38564
360.928161
355.452854
350.006505
344.641319
339.413488
334.381145
329.601716
325.128892
321.009386
317.279849
313.96353
311.070761
308.59835
306.529424
304.836377
303.482903
302.427092
301.624811
301.031985
300.606282
300.309856
300.110262
299.980442
299.899855
299.852358
299.82612
299.818848
299.816372
299.814407
299.813069
299.812207
299.812343
299.813277
299.815544
299.817503
299.81705
299.816956
299.817678
299.815073
299.812956
299.813524
299.814357
299.814328
299.818138
299.820902
299.819254
299.815735
299.812352
471.902612
469.683605
467.40627
465.068834
462.66913
460.20455
457.672002
455.06787
452.387989
449.627625
446.781469
443.843646
440.807743
437.666856
434.413667
431.040545
427.539683
423.903275
420.123742
416.19401
412.107837
407.860215
403.447828
398.869574
394.127152
389.225694
384.174424
378.987317
373.683709
368.288806
362.834006
357.356969
351.90132
346.515924
341.253642
336.169574
331.318814
326.753809
322.521484
318.660368
315.198184
312.150623
309.520049
307.296522
305.458551
303.97436
302.805124
301.907742
301.237997
300.753381
300.413651
300.182833
300.031573
299.935973
299.878367
299.845306
299.828543
299.821726
299.818092
299.815783
299.814448
299.814976
299.817652
299.819956
299.819756
299.817837
299.81644
299.816065
299.815867
299.8163
299.81644
299.814672
299.813395
299.816112
299.817236
299.817794
299.823783
299.831629
299.842153
299.8463
471.791841
469.348802
466.841457
464.267785
461.62533
458.911158
456.12181
453.253285
450.301018
447.259881
444.124202
440.8878
437.544053
434.085983
430.506383
426.797977
422.953624
418.966579
414.830794
410.541294
406.094602
401.489232
396.72624
391.809817
386.747922
381.552907
376.242111
370.838369
365.370363
359.872751
354.385984
348.955749
343.631948
338.467211
333.514935
328.826983
324.451195
320.428955
316.792808
313.564257
310.752091
308.352371
306.347807
304.710137
303.403212
302.385472
301.612872
301.041622
300.63068
300.343205
300.147243
300.017539
299.933617
299.879956
299.846802
299.826576
299.814685
299.810165
299.810331
299.812388
299.814673
299.817785
299.819404
299.819784
299.818864
299.816399
299.814109
299.812796
299.811634
299.811416
299.812734
299.813806
299.813049
299.816231
299.825425
299.830081
299.836326
299.843047
299.846731
299.852911
472.568244
471.695203
470.799302
469.880042
468.936919
467.969415
466.977003
465.959144
464.91528
463.844838
462.747221
461.621808
460.46795
459.284962
458.072124
456.828669
455.553784
454.246599
452.906182
451.531534
450.121576
448.675147
447.19099
445.667747
444.103947
442.497998
440.848176
439.152618
437.409309
435.616078
433.770587
431.870327
429.912614
427.894584
425.813197
423.665239
421.447331
419.155935
416.787379
414.337903
411.803725
409.181092
406.466371
403.656164
400.747581
397.738492
394.627881
391.416154
388.105643
384.701191
381.21082
377.646399
374.024252
370.365818
366.698112
363.053822
359.468758
355.98098
352.629006
349.44829
346.46693
343.701212
341.152025
338.803518
336.625259
334.578559
332.626392
330.745068
328.934565
327.222972
325.663058
324.300841
323.159901
322.26909
321.583163
321.067869
320.741863
320.599667
320.611775
320.785926
472.555537
471.656799
470.734526
469.788206
468.817324
467.821356
466.799771
465.752027
464.677571
463.575835
462.446234
461.288162
460.100987
458.884049
457.636657
456.358078
455.047539
453.704216
452.327228
450.915632
449.468413
447.984475
446.462634
444.901605
443.299989
441.656268
439.968785
438.235735
436.455152
434.624892
432.742624
430.805814
428.811714
426.757347
424.639498
422.454723
420.199348
417.869474
415.460989
412.969633
410.39108
407.721051
404.955445
402.090495
399.123052
396.050931
392.873351
389.591409
386.208686
382.731942
379.171869
375.543806
371.868356
368.171807
364.486168
360.848665
357.300014
353.878953
350.621847
347.558562
344.708077
342.074811
339.646964
337.398154
335.293187
333.297692
331.389871
329.570934
327.86888
326.323721
325.012801
323.909837
322.96063
322.201742
321.597502
321.159289
320.869419
320.737666
320.763585
320.907934
472.541099
471.613166
470.660931
469.68387
468.681454
467.653151
466.598426
465.516734
464.407525
463.270237
462.104293
460.9091
459.684045
458.428491
457.141772
455.82319
454.472008
453.087447
451.668674
450.214802
448.724875
447.197865
445.632654
444.02803
442.382668
440.695122
438.963803
437.186969
435.362702
433.48889
431.56321
429.583109
427.545788
425.448179
423.286928
421.058401
418.75869
416.383632
413.928817
411.389651
408.76145
406.03958
403.219643
400.297711
397.270662
394.136614
390.895452
387.549467
384.104065
380.568539
376.956825
373.288131
369.587322
365.884924
362.216593
358.621887
355.14225
351.818205
348.680415
345.750476
343.036907
340.533313
338.219253
336.064999
334.0404
332.12664
330.326553
328.668562
327.21146
325.926765
324.884489
324.072467
323.354052
322.677061
322.074166
321.596627
321.271326
321.076358
321.033405
321.05578
472.525
471.56451
470.578863
469.567516
468.529928
467.465554
466.37385
465.254268
464.106255
462.929251
461.722683
460.485968
459.218504
457.919669
456.588819
455.22528
453.828344
452.397267
450.931256
449.42947
447.891002
446.31488
444.700048
443.045356
441.349548
439.611244
437.828924
436.000911
434.125347
432.200173
430.223103
428.191611
426.102907
423.953918
421.741262
419.461245
417.109864
414.682832
412.175606
409.583459
406.901588
404.125286
401.250173
398.272521
395.189668
392.000543
388.706294
385.311007
381.822473
378.252953
374.619832
370.946044
367.260103
363.595584
359.989947
356.482618
353.112386
349.91434
346.916842
344.13614
341.570944
339.207874
337.023742
334.992906
333.097692
331.341706
329.74781
328.320314
327.162167
326.252824
325.421365
324.619627
323.866734
323.217236
322.694588
322.284793
321.970752
321.749642
321.610623
321.550664
472.507118
471.510464
470.487699
469.438257
468.361577
467.2571
466.124266
464.962517
463.771291
462.550022
461.298136
460.015048
458.70016
457.352856
455.9725
454.558431
453.109961
451.626364
450.106876
448.550688
446.956932
445.324678
443.652922
441.940574
440.186442
438.38922
436.547467
434.659591
432.723832
430.738235
428.700621
426.608572
424.459404
422.25015
419.977538
417.637981
415.227581
412.742154
410.177277
407.528379
404.790881
401.9604
399.03304
396.00577
392.876915
389.646754
386.318215
382.897632
379.395517
375.827233
372.213452
368.580264
364.958785
361.384082
357.89339
354.523657
351.308637
348.275927
345.444539
342.823721
340.413742
338.205722
336.178913
334.317341
332.607948
331.060011
329.743788
328.676409
327.770698
326.974365
326.244202
325.573467
324.983772
324.482988
324.056234
323.686503
323.376453
323.105673
322.847041
322.619916
472.487145
471.450097
470.385866
469.293857
468.173481
467.024155
465.845298
464.636332
463.396677
462.125753
460.822972
459.487738
458.119444
456.71747
455.281175
453.8099
452.302961
450.759642
449.179197
447.560838
445.90373
444.206985
442.469652
440.690707
438.869041
437.003443
435.092592
433.135031
431.129156
429.073189
426.965161
424.802883
422.583927
420.305604
417.964949
415.558716
413.083386
410.535198
407.91021
405.204409
402.413873
399.535013
396.564903
393.501712
390.345256
387.097641
383.763958
380.353045
376.878234
373.357815
369.815132
366.278319
362.779612
359.353676
356.03538
352.857091
349.845898
347.021408
344.394405
341.967319
339.737037
337.692984
335.845065
334.167195
332.682219
331.42222
330.397287
329.56581
328.870679
328.258104
327.707619
327.233409
326.848888
326.538563
326.266093
326.013603
325.758364
325.49167
325.245296
325.077321
472.464622
471.382016
470.27101
469.130971
467.961273
466.761297
465.53043
464.268062
462.973587
461.646396
460.285877
458.891412
457.462376
455.998129
454.49802
452.961381
451.387526
449.775745
448.125307
446.435449
444.705377
442.934256
441.12121
439.265308
437.365561
435.420909
433.430211
431.392229
429.305614
427.16889
424.980433
422.73845
420.440966
418.085797
415.670548
413.192604
410.649144
408.037184
405.353646
402.595488
399.759878
396.844461
393.847728
390.769474
387.611366
384.377642
381.075762
377.717047
374.317312
370.897136
367.481576
364.099219
360.781309
357.560175
354.466633
351.527495
348.763246
346.186527
343.802194
341.607248
339.600138
337.763064
336.122596
334.694162
333.490012
332.510746
331.735131
331.12069
330.622557
330.217517
329.904194
329.695912
329.579625
329.508882
329.448212
329.39172
329.381286
329.485442
329.686697
330.06497
472.439013
471.304605
470.140406
468.945731
467.719906
466.462264
465.172147
463.848904
462.491888
461.100452
459.67395
458.211732
456.713144
455.177527
453.604212
451.992523
450.341776
448.651274
446.920312
445.148172
443.334126
441.477428
439.577322
437.633029
435.64375
433.608659
431.526899
429.397569
427.21972
424.992338
422.714332
420.384519
418.001607
415.564184
413.070705
410.519499
407.90878
405.23669
402.501379
399.701152
396.834659
393.901154
390.900902
387.835632
384.709096
381.527737
378.301309
375.043346
371.771514
368.507552
365.276733
362.106973
359.02721
356.065993
353.24863
350.595005
348.118265
345.824499
343.711849
341.775516
340.018163
338.442476
337.059258
335.883375
334.925952
334.183488
333.635022
333.250523
333.009271
332.913757
332.917653
333.03814
333.265417
333.521225
333.793447
334.139641
334.675211
335.440159
336.373557
337.382909
472.409853
471.216458
469.991681
468.734776
467.445006
466.121646
464.763981
463.371306
461.942923
460.47814
458.976266
457.436616
455.858506
454.241254
452.58418
450.88661
449.147875
447.367315
445.544281
443.678141
441.76828
439.814105
437.815051
435.770581
433.68019
431.54341
429.359802
427.128962
424.850515
422.524104
420.149388
417.726025
415.253665
412.731932
410.160414
407.538674
404.866265
402.142769
399.367883
396.541567
393.664247
390.737083
387.762341
384.743847
381.687494
378.601795
375.498367
372.392255
369.302046
366.249594
363.259365
360.35733
357.568691
354.916297
352.418482
350.087418
347.92857
345.9411
344.121495
342.466364
340.975004
339.653347
338.514934
337.577418
336.854898
336.349807
336.053681
335.952258
335.960354
336.120764
336.494389
337.021792
337.652243
338.350861
339.153508
340.150078
341.465745
343.048661
344.763203
346.437463
472.376879
471.11678
469.823499
468.496215
467.134118
465.736413
464.302318
462.831065
461.321898
459.774071
458.186851
456.559516
454.891356
453.181679
451.429809
449.635095
447.796917
445.914689
443.987869
442.01597
439.998564
437.935297
435.825896
433.670182
431.468074
429.219606
426.924925
424.584301
422.198126
419.766914
417.291293
414.771993
412.209837
409.605732
406.960645
404.275618
401.551783
398.790399
395.992934
393.161194
390.297524
387.405067
384.488104
381.552455
378.605923
375.658717
372.723758
369.816785
366.956583
364.164098
361.46169
358.871434
356.413257
354.103256
351.952219
349.964756
348.139064
346.470987
344.954139
343.583844
342.360878
341.294441
340.402988
339.711685
339.235302
338.981233
338.905202
338.955426
339.24203
339.766638
340.512816
341.465089
342.594727
343.890646
345.38563
347.12618
349.151817
351.374209
353.763415
356.241445
472.340179
471.005842
469.636318
468.230704
466.788109
465.307659
463.7885
462.229793
460.630721
458.990488
457.308317
455.58346
453.815196
452.00284
450.14575
448.243336
446.295067
444.30049
442.259237
440.171041
438.035755
435.853367
433.624015
431.348009
429.025842
426.658207
424.246012
421.790385
419.292679
416.754474
414.177569
411.563968
408.915862
406.235625
403.525786
400.789026
398.028184
395.24629
392.446634
389.632877
386.809246
383.980774
381.153614
378.335354
375.5352
372.764476
370.036809
367.367886
364.775508
362.278331
359.894931
357.642401
355.534829
353.581807
351.787433
350.150256
348.664269
347.321077
346.112709
345.035003
344.091059
343.294262
342.659068
342.202421
341.940329
341.843295
341.87599
342.150309
342.657476
343.397629
344.35268
345.506005
346.830801
348.298921
349.888881
351.610639
353.440591
355.281332
357.089494
358.782546
472.300335
470.885405
469.433115
467.942473
466.412504
464.842252
463.230783
461.577193
459.880604
458.140174
456.355096
454.524609
452.648003
450.724632
448.753921
446.735386
444.668646
442.55344
440.389651
438.177326
435.916696
433.608203
431.252524
428.850592
426.40362
423.913119
421.380918
418.809167
416.20035
413.557278
410.883079
408.181175
405.455261
402.709275
399.947373
397.173905
394.393417
391.61068
388.830742
386.059011
383.301356
380.564227
377.855037
375.182515
372.556627
369.989005
367.493014
365.083343
362.775634
360.585689
358.52835
356.616159
354.858051
353.258243
351.815592
350.523889
349.373215
348.352269
347.45132
346.665317
345.997166
345.451136
345.035838
344.762967
344.641052
344.632231
344.770304
345.121561
345.668793
346.400365
347.300937
348.351068
349.528351
350.808002
352.152703
353.52509
354.887446
356.198644
357.44383
358.519792
472.258555
470.759118
469.220048
467.640266
466.018708
464.354338
462.646149
460.893171
459.094477
457.249188
455.356484
453.415611
451.4259
449.386775
447.297772
445.158562
442.968971
440.729003
438.438868
436.099012
433.710145
431.273268
428.789709
426.26115
423.689647
421.077662
418.428069
415.744168
413.029688
410.288776
407.525978
404.746211
401.954716
399.157026
396.358912
393.566333
390.785388
388.022294
385.283414
382.575346
379.905024
377.27971
374.70739
372.19712
369.759037
367.404481
365.145917
362.996652
360.970305
359.080002
357.337305
355.750952
354.32566
353.061232
351.952254
350.988674
350.15708
349.44299
348.833736
348.320989
347.902479
347.576357
347.34468
347.21095
347.164594
347.218128
347.412405
347.749284
348.223945
348.826376
349.542271
350.350664
351.229293
352.156862
353.119049
354.113199
355.137669
356.184005
357.207657
358.157559
472.21671
470.63264
469.006666
467.337624
465.624371
463.865795
462.060823
460.208429
458.307646
456.357575
454.357399
452.306399
450.203968
448.049637
445.843091
443.584202
441.273053
438.909971
436.495558
434.030729
431.516745
428.955252
426.34831
423.698436
421.008622
418.282366
415.523684
412.73711
409.927701
407.101009
404.263042
401.420202
398.579214
395.747038
392.930794
390.137692
387.374962
384.649827
381.969517
379.341359
376.772924
374.272048
371.847047
369.506894
367.261345
365.120955
363.096956
361.200922
359.444191
357.837069
356.387836