/*--------------------------------*- C++ -*----------------------------------*\
  =========                 |
  \\      /  F ield         | OpenFOAM: The Open Source CFD Toolbox
   \\    /   O peration     | Website:  https://openfoam.org
    \\  /    A nd           | Version:  8
     \\/     M anipulation  |
\*---------------------------------------------------------------------------*/
FoamFile
{
    version     2.0;
    format      ascii;
    class       volVectorField;
    location    "0.051";
    object      U;
}
// * * * * * * * * * * * * * * * * * * * * * * * * * * * * * * * * * * * * * //

dimensions      [0 1 -1 0 0 0 0];

internalField   nonuniform List<vector> 
42400
(
(-0.0171177793 0.0164155027 -7.72611995e-27)
(-0.0505491113 0.0477300464 2.68408861e-26)
(-0.0840292251 0.078091948 3.09095968e-26)
(-0.117839758 0.107651525 0)
(-0.152158898 0.136514658 0)
(-0.187058504 0.164688222 -8.62280349e-28)
(-0.222527183 0.192109925 0)
(-0.258498259 0.218679757 9.45463362e-28)
(-0.294874759 0.244282147 0)
(-0.331547403 0.268800892 1.03430421e-27)
(-0.368406708 0.292129247 1.08077208e-27)
(-0.405350377 0.314176061 -1.12853714e-27)
(-0.442286688 0.334868493 -8.10770653e-26)
(-0.479134824 0.354152165 -8.81408464e-26)
(-0.515823238 0.371989732 -1.27878292e-27)
(-0.552287081 0.388358811 0)
(-0.588465426 0.403249882 0)
(-0.624298718 0.41666454 0)
(-0.659726665 0.428614254 0)
(-0.694686601 0.439119637 0)
(-0.729112256 0.448210141 0)
(-0.762932823 0.455924082 -3.29855983e-27)
(-0.796072182 0.462308852 -1.8715496e-25)
(-0.828448166 0.467421209 -4.02106319e-25)
(-0.859971765 0.471327565 -2.16123214e-25)
(-0.890546145 0.474104201 -3.68604038e-27)
(-0.920065359 0.475837369 -3.76922472e-27)
(-0.948412542 0.476623224 7.68847614e-27)
(-0.975457323 0.47656752 0)
(-1.00105234 0.475785147 0)
(-1.02502998 0.474399503 3.47038257e-25)
(-1.04719795 0.472539587 3.74310212e-25)
(-1.06732977 0.470333155 8.08215006e-27)
(-1.08514715 0.467895668 -4.34394459e-25)
(-1.10037726 0.465361331 -4.73969268e-25)
(-1.11276528 0.462921282 0)
(-1.12169382 0.461156303 0)
(-1.1266058 0.459230377 0)
(-1.12719431 0.4571477 0)
(-1.12295838 0.456157616 -7.20311305e-25)
(-1.1123589 0.456176238 -7.8061329e-25)
(-1.09411239 0.456750447 -7.74667342e-25)
(-1.06702874 0.457308117 -1.51049153e-24)
(-1.02998462 0.457880321 -8.2521105e-27)
(-0.981433341 0.458948533 8.26843096e-25)
(-0.920003459 0.460614082 8.61542516e-25)
(-0.84396614 0.462732817 -1.1048175e-28)
(-0.750931484 0.464948327 -9.47584268e-25)
(-0.638658743 0.466964306 -8.46424684e-27)
(-0.505619738 0.468219038 -1.02665881e-24)
(-0.348092101 0.468809322 -7.48887304e-34)
(-0.167366359 0.469380251 1.78041309e-24)
(0.0453103827 0.471618766 1.06192799e-24)
(0.282191726 0.474987063 -6.53489436e-26)
(0.567674827 0.475625058 0)
(0.899176662 0.472132474 0)
(1.28002513 0.467047262 0)
(1.71592521 0.461300895 1.33201362e-25)
(2.21352428 0.454421509 1.66566569e-25)
(2.77665649 0.446310797 0)
(3.41018354 0.437237319 -4.08910211e-24)
(4.11814767 0.42676785 -4.87486674e-24)
(4.90224944 0.414684536 4.91184067e-24)
(5.76277459 0.401253492 5.04573052e-24)
(6.69961221 0.387896803 0)
(7.70555484 0.377169312 0)
(8.78256903 0.363769284 4.89987258e-24)
(9.93551654 0.354176627 5.22148827e-24)
(11.0779222 0.417707166 1.29895878e-24)
(12.3214574 0.386060247 0)
(13.8172472 0.15853672 0)
(14.7399783 0.598597674 1.84996622e-24)
(15.6811069 1.2106573 1.943695e-24)
(17.9301902 -0.270994423 0)
(19.6817474 -0.745866771 2.47564073e-24)
(19.8980764 0.463497359 -5.32967466e-24)
(20.1303174 2.2428415 -1.73272967e-23)
(22.3696534 0.444970546 -8.11049322e-24)
(23.5256683 -0.657744857 -1.22081431e-23)
(23.6197821 -0.668405953 -5.36703462e-23)
(-0.0201328711 0.0178632639 0)
(-0.0598964323 0.052620955 1.99573201e-26)
(-0.099999885 0.0869628357 2.31101995e-26)
(-0.140596488 0.120925157 0)
(-0.181733159 0.154492132 0)
(-0.223372565 0.187574088 3.26741844e-26)
(-0.26540158 0.220028377 3.7191567e-26)
(-0.307669963 0.251691842 6.64073179e-28)
(-0.350013605 0.282401488 0)
(-0.392269821 0.312006353 7.22221185e-28)
(-0.434286361 0.340374265 7.52084802e-28)
(-0.475925782 0.367394965 -6.00548542e-26)
(-0.517066148 0.392980363 -1.30127213e-25)
(-0.557599144 0.417062849 -7.12553688e-26)
(-0.597426727 0.439592584 7.65954031e-26)
(-0.636457272 0.46053461 8.59114998e-26)
(-0.674601895 0.479866292 0)
(-0.711771303 0.497575366 1.86642481e-27)
(-0.747873278 0.513658663 0)
(-0.782810777 0.528121438 0)
(-0.816480508 0.540977197 0)
(-0.84877183 0.552247841 -1.39624075e-25)
(-0.879565779 0.561963995 -3.00582322e-25)
(-0.908734074 0.570165397 -1.62006999e-25)
(-0.93613792 0.576901274 0)
(-0.961626391 0.582230597 -4.3760075e-27)
(-0.985034349 0.586222016 -2.251439e-27)
(-1.00617954 0.588952847 4.489838e-27)
(-1.02485737 0.590506951 -2.42186519e-25)
(-1.04082793 0.590975076 -2.61743993e-25)
(-1.05382791 0.590464116 -3.85229938e-27)
(-1.06359387 0.589083867 -3.58464562e-27)
(-1.06989363 0.58690384 -3.1300282e-25)
(-1.07210846 0.584375528 -3.09562192e-25)
(-1.07010179 0.581035112 3.08030982e-25)
(-1.06313146 0.577470486 3.64592257e-25)
(-1.05147333 0.573075028 0)
(-1.03299864 0.569314956 1.8384145e-27)
(-1.00712897 0.565171277 0)
(-0.972134584 0.560793666 9.68361958e-28)
(-0.927745217 0.555745128 -5.34234737e-25)
(-0.872405394 0.550715106 -5.6283014e-25)
(-0.804884194 0.545776926 -5.14716494e-27)
(-0.72362158 0.54085657 7.24903694e-27)
(-0.626590927 0.535805046 -2.203497e-26)
(-0.511748869 0.530473088 1.44770732e-26)
(-0.377584898 0.524316874 -1.81194354e-26)
(-0.220446075 0.517411266 -5.83948316e-25)
(-0.0393545966 0.511999228 -6.36564578e-25)
(0.161148522 0.5094279 0)
(0.400672728 0.505907475 3.81508546e-26)
(0.67943014 0.499301434 -8.20190893e-26)
(1.00249436 0.490805721 -6.91338928e-25)
(1.3727145 0.482149535 -8.97450182e-25)
(1.79666118 0.473613315 -1.34472076e-25)
(2.2788435 0.464886344 -1.97025869e-24)
(2.82456269 0.456161192 -2.09552542e-24)
(3.43901995 0.447520661 2.05549823e-25)
(4.12638849 0.438855357 2.4260681e-25)
(4.88896564 0.430277295 -1.95930807e-24)
(5.72867833 0.422511248 -1.67591513e-24)
(6.64535347 0.417245359 -3.87823317e-25)
(7.63704142 0.416529361 4.53202793e-25)
(8.69406192 0.422225179 0)
(9.81089428 0.433577267 1.73979251e-24)
(10.9789183 0.453897843 7.2550895e-25)
(12.1893867 0.47343271 5.80546906e-25)
(13.4843354 0.457253949 0)
(14.7193381 0.53450253 3.21068448e-27)
(15.8747729 0.721350693 1.4799335e-24)
(17.3855249 0.483145631 4.64334604e-24)
(18.7069746 0.316408877 4.21035539e-24)
(19.3334399 1.17809406 -6.42783006e-25)
(20.4829484 1.46182933 -7.01333109e-24)
(22.2791647 -0.00579643744 5.00852008e-26)
(23.2950184 -0.337845998 1.37670889e-23)
(23.4218784 0.662093342 2.39823313e-23)
(23.5294539 1.31299837 -6.27222036e-24)
(23.6660315 0.737339843 -2.53445912e-23)
(23.6662738 0.395628139 -1.66229686e-23)
(-0.0224833034 0.0184369233 1.98175883e-27)
(-0.0672879785 0.0548336997 1.50842798e-28)
(-0.112758164 0.0912897269 -1.59928203e-28)
(-0.158928401 0.127754814 1.64068239e-28)
(-0.205733267 0.164123336 0)
(-0.253004705 0.200217918 -2.51839566e-26)
(-0.300539532 0.235834003 3.48636635e-34)
(-0.348097858 0.270758772 3.15503017e-26)
(-0.395442503 0.304790094 3.50033138e-26)
(-0.442351276 0.337747707 7.72085648e-26)
(-0.488622393 0.369477709 4.2793586e-26)
(-0.534076024 0.399853209 4.50485041e-28)
(-0.578552483 0.428772528 4.63315854e-28)
(-0.621908149 0.45615593 5.49177052e-26)
(-0.664010354 0.481941817 5.96235165e-26)
(-0.70473221 0.506083107 1.46527114e-27)
(-0.743947995 0.528544264 -7.10140839e-26)
(-0.781529365 0.549299144 -1.51685355e-25)
(-0.817342434 0.568329674 -8.21453627e-26)
(-0.85124562 0.585625241 9.64410964e-28)
(-0.883088081 0.601182661 -9.51437182e-28)
(-0.912708454 0.615006564 -9.29604656e-28)
(-0.939933484 0.627110118 0)
(-0.964576214 0.637515862 1.78366809e-27)
(-0.986433516 0.64625661 1.32398584e-25)
(-1.00528255 0.653375799 -8.79797065e-29)
(-1.02087686 0.658925678 -1.55753238e-25)
(-1.03295425 0.662961792 -1.69720748e-25)
(-1.04124511 0.665530352 -1.79840658e-25)
(-1.04530809 0.666756819 1.83971222e-25)
(-1.0449585 0.666554053 -4.03171389e-28)
(-1.03976933 0.665174472 -3.88850279e-25)
(-1.02933167 0.662903577 -2.27558717e-25)
(-1.01372484 0.659532802 0)
(-0.991089839 0.655717744 0)
(-0.960830067 0.650786417 1.56258079e-27)
(-0.921151914 0.645000108 0)
(-0.872035901 0.638002641 -7.41084752e-27)
(-0.812068284 0.630384658 -3.57483395e-25)
(-0.740141912 0.622266018 -2.48158169e-26)
(-0.654880895 0.613673403 3.87165751e-25)
(-0.554424985 0.60457317 0)
(-0.436923042 0.594967075 0)
(-0.301024831 0.584551623 -4.68342459e-25)
(-0.143637185 0.573547583 -4.07841274e-25)
(0.0372162614 0.564078114 -3.03782707e-26)
(0.236431893 0.55681723 0)
(0.475298095 0.547675463 0)
(0.750957178 0.536465374 -5.2861224e-25)
(1.06779177 0.52511691 -4.8256448e-25)
(1.43097526 0.514342605 5.7223803e-26)
(1.8455093 0.504100883 0)
(2.31636524 0.494508118 3.74705094e-25)
(2.84881333 0.485821885 5.25358538e-25)
(3.44810925 0.478075949 8.13220833e-25)
(4.1183898 0.471431041 3.8921548e-25)
(4.86287899 0.466457227 2.5579258e-25)
(5.68446954 0.464367764 3.53798462e-32)
(6.58435915 0.466712404 -5.09623862e-32)
(7.56014682 0.474696377 -1.10491575e-24)
(8.60673751 0.489563333 -1.0018983e-24)
(9.71171638 0.513043276 1.40045895e-24)
(10.8679551 0.545450295 2.31656648e-24)
(12.0646341 0.587980942 0)
(13.2912323 0.635358606 3.92686217e-24)
(14.54191 0.690518309 6.63215661e-24)
(15.7707923 0.763437834 4.20077195e-24)
(17.0648966 0.787879115 0)
(18.326119 0.776432711 -2.79667723e-26)
(19.3701667 0.997059848 7.26789043e-24)
(20.4507008 1.16611115 7.41985942e-24)
(21.6840609 0.843303412 0)
(22.6879441 0.783130983 0)
(23.1525512 1.27661554 1.8767114e-24)
(23.489079 1.38615968 -1.76273975e-24)
(23.5967004 0.865254773 7.7467479e-24)
(23.6159957 0.825874509 1.6698892e-23)
(23.6154071 0.851107755 0)
(23.6210912 0.882621192 -2.59271481e-24)
(23.6213447 0.761259649 2.43867535e-23)
(-0.0243101663 0.018393202 3.95156719e-29)
(-0.0731358009 0.0550917516 6.25915918e-29)
(-0.122977255 0.0922099181 6.23098223e-27)
(-0.173759166 0.129631893 -7.06171069e-27)
(-0.225301152 0.167184367 -8.3449185e-27)
(-0.277335425 0.204631559 0)
(-0.329528358 0.241705638 -2.16568526e-26)
(-0.3815422 0.278150912 -2.38538221e-26)
(-0.433087365 0.313742834 -2.58691378e-26)
(-0.483871258 0.348284192 -2.83112034e-26)
(-0.533636102 0.381605221 -3.05289228e-26)
(-0.582153672 0.413567318 3.74507373e-35)
(-0.629220021 0.444059902 1.46586448e-28)
(-0.6746493 0.472995618 1.89437267e-34)
(-0.718266954 0.500305525 -1.3466706e-28)
(-0.759903212 0.525934896 -4.4484739e-26)
(-0.799387522 0.549839933 4.77142072e-26)
(-0.836544102 0.571985494 -2.23239317e-28)
(-0.871188377 0.592343888 -5.50682736e-26)
(-0.903124158 0.610894767 1.37038348e-28)
(-0.932141297 0.627625651 -1.19947199e-28)
(-0.958013244 0.642531972 6.79223652e-26)
(-0.980488938 0.655612133 7.32088134e-26)
(-0.999290918 0.666863695 -1.49609823e-28)
(-1.01412066 0.676282658 0)
(-1.02466267 0.683853869 -3.8698451e-28)
(-1.03057978 0.689632632 0)
(-1.03155285 0.693693288 -1.01450902e-25)
(-1.02726905 0.696248362 -2.20194543e-25)
(-1.01755227 0.697392742 -1.32836003e-25)
(-1.0015658 0.697323574 1.55035858e-25)
(-0.978338657 0.695794376 1.77093462e-25)
(-0.946936566 0.692662985 -7.60991567e-27)
(-0.905904703 0.688035508 -4.65762523e-27)
(-0.855107501 0.681945968 1.76738408e-25)
(-0.79329952 0.674743576 1.9902645e-25)
(-0.719415012 0.666546317 0)
(-0.63215537 0.657429759 -2.30572589e-25)
(-0.529813752 0.647436428 -2.40588827e-25)
(-0.41064425 0.636631943 -2.27465679e-26)
(-0.27326934 0.624786612 -2.63195561e-26)
(-0.114862674 0.612116176 0)
(0.0668364862 0.600731043 0)
(0.266257084 0.591344141 0)
(0.504955592 0.580094144 -4.07295434e-26)
(0.779004818 0.567239435 -3.36415105e-25)
(1.09267902 0.554861558 -2.6418807e-25)
(1.4513178 0.543531417 0)
(1.85932665 0.533253354 0)
(2.3217257 0.524279918 -2.87549539e-25)
(2.84377977 0.516819619 -1.82712051e-25)
(3.4304443 0.511094052 -1.96190625e-25)
(4.08611815 0.507587365 -7.15502689e-26)
(4.81464899 0.507346511 2.27958136e-25)
(5.61936426 0.511657436 1.39840922e-26)
(6.50164676 0.521632961 -7.06815006e-25)
(7.46032807 0.538094889 -1.25352469e-24)
(8.49080199 0.561687741 -2.27371943e-24)
(9.58564382 0.59374007 0)
(10.7313546 0.635678168 -4.36271375e-25)
(11.9204904 0.688124144 -3.49321681e-24)
(13.1374982 0.750579278 -7.49239192e-24)
(14.3756454 0.822614525 4.94325052e-25)
(15.6096019 0.906646304 5.15452554e-25)
(16.828843 0.997334707 -6.4276472e-24)
(18.0364959 1.08240861 5.70264424e-24)
(19.164274 1.17869838 6.20307701e-24)
(20.2737997 1.27870926 -1.25474617e-24)
(21.3153581 1.275519 -2.67397961e-24)
(22.3157933 1.26924363 -1.09994592e-23)
(22.9710768 1.41364776 8.5970739e-26)
(23.4339904 1.49262263 -1.65685052e-23)
(23.5735621 1.3313478 -8.39599952e-24)
(23.6199044 1.38982091 0)
(23.616241 1.4254526 -7.71812246e-24)
(23.5834023 1.42280023 -3.96267704e-23)
(23.584836 1.28193312 2.35099447e-24)
(23.6078348 1.17008611 1.1826316e-23)
(23.6453767 1.11705492 1.47231518e-23)
(23.626987 1.09237267 1.45748745e-23)
(-0.02596481 0.0180862206 1.32856517e-27)
(-0.0784335675 0.0544116264 0)
(-0.132240486 0.0913612468 0)
(-0.187205276 0.128767451 1.87243631e-30)
(-0.243030675 0.166403586 0)
(-0.299329855 0.203989172 0)
(-0.355677505 0.241227659 0)
(-0.41165773 0.277831854 6.59412956e-29)
(-0.466845269 0.313546159 0)
(-0.520901862 0.348161203 -4.90779624e-29)
(-0.573526212 0.381509628 -2.15931895e-26)
(-0.624431194 0.413453246 -8.27075526e-35)
(-0.673362561 0.443879265 2.35229181e-26)
(-0.72008523 0.472699759 0)
(-0.764374453 0.499845966 1.10540586e-28)
(-0.806007964 0.525263463 -2.73630244e-28)
(-0.844759765 0.548908838 0)
(-0.880394619 0.570747231 -2.80469596e-26)
(-0.912657099 0.590747478 -4.54688997e-28)
(-0.941264744 0.608879803 5.94242473e-26)
(-0.965910582 0.625115126 3.37208142e-26)
(-0.98629638 0.639385435 -7.03493045e-28)
(-1.00205347 0.651777851 0)
(-1.01290762 0.662302689 4.11765616e-26)
(-1.01854743 0.671071965 4.02183905e-26)
(-1.01861557 0.678199234 3.95483406e-26)
(-1.01233706 0.68351774 4.51844112e-26)
(-0.999062828 0.687034103 -5.17414504e-26)
(-0.978019508 0.688706045 -5.52927633e-26)
(-0.948197576 0.688488268 0)
(-0.908831653 0.686516725 5.6811117e-26)
(-0.859278562 0.68302151 6.14135761e-26)
(-0.798477537 0.678125342 -6.76512431e-27)
(-0.725292302 0.671901473 7.04715111e-26)
(-0.638411762 0.664425401 8.46827844e-26)
(-0.536215048 0.655783772 1.90732544e-26)
(-0.417008968 0.64607927 -1.10023843e-26)
(-0.279352766 0.635153665 1.16220276e-25)
(-0.120642004 0.6232506 4.99054426e-26)
(0.061384234 0.6123661 -7.66629436e-26)
(0.261523827 0.603122742 -3.98411646e-25)
(0.50014152 0.592204033 -2.37350265e-25)
(0.773277094 0.580020242 0)
(1.08492631 0.568723865 4.37301235e-26)
(1.44024862 0.558815612 1.21126725e-25)
(1.84328591 0.550256641 5.54722694e-26)
(2.29882217 0.543398893 -1.18984069e-32)
(2.81193446 0.538586683 -1.40590772e-26)
(3.38750787 0.536339262 0)
(4.03016685 0.537580399 8.71644454e-26)
(4.74382532 0.543452334 -4.89990753e-26)
(5.53164943 0.554896199 -3.75163332e-25)
(6.3952073 0.572704944 5.06524344e-25)
(7.33401567 0.597584128 -2.01343217e-25)
(8.34528705 0.630271911 -1.07605266e-24)
(9.42306062 0.671597143 -1.45748359e-24)
(10.5580388 0.722707588 -5.892906e-24)
(11.7356145 0.7847808 -4.53485647e-24)
(12.944804 0.858364284 -4.54090366e-24)
(14.16932 0.941256749 -5.53777135e-24)
(15.4022227 1.03369412 0)
(16.6136449 1.13209391 4.98850439e-25)
(17.8106282 1.23704688 -5.36325787e-24)
(18.9395306 1.34275035 -6.84920571e-24)
(20.0221347 1.45873621 -3.33338988e-26)
(21.0255297 1.55326618 0)
(21.9468757 1.6310302 1.18977093e-23)
(22.7528705 1.67336185 1.32764311e-23)
(23.3055111 1.7411405 1.39854033e-24)
(23.5351933 1.71532072 -1.43644275e-24)
(23.5921622 1.73985557 -1.82602945e-26)
(23.6040408 1.76234263 -2.78179475e-24)
(23.5833815 1.78225696 -1.03230128e-23)
(23.5817153 1.68897249 -1.17581377e-23)
(23.5980934 1.63122076 -1.21055372e-24)
(23.6120968 1.61346402 0)
(23.6324883 1.60286124 -1.07783302e-23)
(23.6441835 1.56353779 -1.50038328e-23)
(23.7339322 1.45316952 0)
(23.7205586 1.37056165 -1.7081574e-23)
(-0.0277775311 0.0177654698 -2.99682777e-27)
(-0.0841074102 0.0535360175 -5.09489894e-27)
(-0.142004932 0.0899776853 -5.58560388e-27)
(-0.201182333 0.126879875 5.55931027e-29)
(-0.261222798 0.163976875 6.20756908e-27)
(-0.32162261 0.200955444 1.2912605e-28)
(-0.381847824 0.237495349 -6.8580165e-27)
(-0.441379782 0.273299516 -6.87240367e-27)
(-0.499744204 0.308103472 -1.60346168e-28)
(-0.556490965 0.341687765 -3.42818036e-28)
(-0.6112378 0.373883556 6.53693721e-27)
(-0.663672876 0.40456 1.8848896e-26)
(-0.713475314 0.433618685 1.18017492e-26)
(-0.760349356 0.460978162 1.05563079e-26)
(-0.804006102 0.486577739 -2.75240096e-28)
(-0.844153725 0.510371726 -8.70840614e-27)
(-0.880485338 0.532329096 0)
(-0.91270578 0.552378813 0)
(-0.940425767 0.570565963 -1.03994427e-26)
(-0.96335438 0.586870196 -1.35536158e-26)
(-0.981130041 0.601353893 1.19292188e-27)
(-0.993256657 0.613968951 8.23343642e-27)
(-0.999206846 0.624646604 -4.14566615e-34)
(-0.998353799 0.63340009 -1.0577403e-26)
(-0.989990137 0.640189557 1.41477537e-26)
(-0.973333026 0.644996322 2.50964401e-26)
(-0.947880336 0.648068254 1.50289076e-26)
(-0.912781522 0.649435962 2.38628813e-27)
(-0.867081263 0.649154349 -2.66784177e-27)
(-0.809730098 0.647285043 5.95758538e-27)
(-0.73956349 0.643901455 0)
(-0.655246054 0.639100686 3.59873425e-27)
(-0.555196481 0.63299643 8.10413814e-27)
(-0.437739141 0.625712425 8.15410265e-27)
(-0.301362481 0.617156119 0)
(-0.143642308 0.607593513 -4.7039421e-26)
(0.037627485 0.598815028 -6.24545528e-26)
(0.237982013 0.591322311 0)
(0.475817633 0.58251082 0)
(0.74767717 0.572772671 -3.81130843e-26)
(1.05716984 0.5641388 -3.64913587e-26)
(1.40910959 0.55709874 -8.15535212e-26)
(1.80732653 0.551715576 0)
(2.25636577 0.548463577 1.08937521e-25)
(2.76110492 0.547915811 2.68270231e-25)
(3.32626696 0.550850322 2.31554525e-25)
(3.95620872 0.558163295 -7.11149484e-26)
(4.65453288 0.570781599 -8.28296724e-28)
(5.42427595 0.589493104 0)
(6.26722627 0.615024352 -5.26458949e-25)
(7.18368324 0.64815452 2.35322562e-25)
(8.17196396 0.689699434 1.12797798e-24)
(9.22798447 0.74044124 3.11817861e-25)
(10.3440934 0.801091361 -1.47360944e-24)
(11.5092483 0.872335119 -4.84123719e-24)
(12.7069483 0.955158321 5.0924692e-32)
(13.9238615 1.04879468 2.63480094e-24)
(15.1446725 1.15085066 0)
(16.3547544 1.26134857 0)
(17.5313597 1.37568626 4.68119982e-25)
(18.6742523 1.49279175 4.88895259e-25)
(19.7359517 1.60511215 0)
(20.7499579 1.71406737 7.61294403e-24)
(21.6314377 1.80391571 7.07459655e-24)
(22.4876735 1.87745094 -1.10571062e-23)
(23.0950775 1.9251319 -3.48264831e-23)
(23.4498644 1.99435203 -1.16011836e-23)
(23.5261544 1.99596379 -5.57691197e-24)
(23.553851 2.0406744 -4.846198e-24)
(23.5497467 2.05348892 -1.96692256e-24)
(23.5681165 1.98429031 1.29968672e-23)
(23.587771 1.9420733 1.00344357e-23)
(23.5883651 1.92743524 -1.21301884e-23)
(23.6139809 1.87254578 -1.07474234e-23)
(23.6508241 1.84281394 -1.37923656e-23)
(23.6690118 1.78975531 -1.26288969e-23)
(23.7422428 1.73106557 -1.3527584e-23)
(23.7847586 1.73149333 2.01366174e-31)
(23.8678459 1.72356661 3.23675943e-23)
(23.8243398 1.70090059 2.64693608e-23)
(-0.0299629413 0.0175382626 1.7839668e-27)
(-0.0907422944 0.0528062609 -6.27674159e-29)
(-0.153162765 0.0886579124 6.29685578e-27)
(-0.216817559 0.124845048 1.10563405e-34)
(-0.281160706 0.161072653 -5.99320332e-27)
(-0.345564177 0.197005726 -5.67911484e-27)
(-0.409380451 0.232310905 -1.10867819e-26)
(-0.471989486 0.266686761 -4.94713498e-27)
(-0.53282348 0.299877011 -4.721376e-27)
(-0.591376494 0.331667257 -4.19713489e-27)
(-0.647168798 0.36189744 -3.19070263e-27)
(-0.699803034 0.390446448 -1.60947007e-27)
(-0.748901081 0.417227906 -5.16370249e-28)
(-0.794084253 0.4421823 6.14947554e-28)
(-0.834984991 0.465266066 -3.30057379e-28)
(-0.871227318 0.486452394 -3.64393413e-28)
(-0.90241701 0.505720003 1.40894556e-26)
(-0.928099735 0.523104603 2.17472344e-26)
(-0.947821704 0.538525192 1.00249421e-27)
(-0.960996822 0.552002496 1.10100397e-27)
(-0.967022963 0.563499899 3.40597855e-26)
(-0.965345154 0.573165294 3.77110457e-26)
(-0.955281146 0.580988795 0)
(-0.936034655 0.587015859 -1.66175987e-27)
(-0.90674813 0.591288716 0)
(-0.866465551 0.593857675 0)
(-0.814120916 0.594797072 -2.26518296e-27)
(-0.748511042 0.594207827 -6.14652001e-26)
(-0.668280075 0.592202424 -7.44749979e-26)
(-0.571872236 0.588906469 8.01007982e-26)
(-0.457628057 0.584459255 6.71717079e-26)
(-0.323976458 0.578828311 -7.80189976e-27)
(-0.168640989 0.572292954 8.46421276e-27)
(0.0105142979 0.566392409 0)
(0.209920682 0.561512601 -1.02021922e-26)
(0.44565327 0.555754458 0)
(0.714970609 0.54946398 0)
(1.02124622 0.544479373 -1.36559543e-26)
(1.36885632 0.541325276 0)
(1.76148842 0.540196413 0)
(2.20342749 0.541707955 1.74013922e-25)
(2.699188 0.546519448 1.66419361e-25)
(3.25308292 0.555358986 0)
(3.86913114 0.569042554 0)
(4.55073107 0.588436369 0)
(5.30084697 0.614334421 -6.9647031e-26)
(6.12148727 0.647551908 -8.08809786e-26)
(7.01336937 0.688919374 9.66655924e-25)
(7.97551508 0.739221363 1.11141754e-24)
(9.00479282 0.79911089 1.39695337e-24)
(10.0955493 0.869084618 1.73731988e-24)
(11.2387975 0.949371991 2.28874285e-24)
(12.4227328 1.03995456 2.7496645e-24)
(13.6290968 1.14153703 0)
(14.8424541 1.25305566 0)
(16.0455738 1.37223463 -2.8317166e-24)
(17.2218302 1.49746689 -6.4666956e-24)
(18.3528357 1.6232555 -3.66060587e-24)
(19.4236864 1.74854879 -3.80518499e-24)
(20.4088511 1.86665408 -3.05818699e-24)
(21.3195894 1.97531796 8.77154264e-24)
(22.0936491 2.06607256 1.82460708e-23)
(22.8030126 2.12298714 5.73920782e-25)
(23.2980413 2.1876759 -1.42424463e-23)
(23.4569745 2.18858151 6.44602866e-25)
(23.4975182 2.24879918 -1.07733735e-24)
(23.5119266 2.2468083 9.33368455e-24)
(23.5125249 2.25155983 -1.18087836e-31)
(23.5252835 2.20633886 -8.6348057e-24)
(23.5435005 2.17257806 -1.40466106e-24)
(23.5797142 2.14061519 1.36160623e-23)
(23.5915463 2.1332881 7.72677278e-24)
(23.6114919 2.07040162 0)
(23.6179879 2.08406871 1.00711614e-24)
(23.6991429 2.00469696 0)
(23.7335079 1.97705463 1.24521395e-23)
(23.8505271 1.89229839 2.71325995e-23)
(23.9996373 1.80440802 1.61638192e-23)
(24.0234794 1.82274281 9.55819403e-24)
(24.0083014 1.86104217 3.56220515e-23)
(-0.0325612551 0.0173748169 1.94944636e-27)
(-0.0983990985 0.0521661205 6.28722051e-27)
(-0.165729252 0.087357733 4.40597207e-29)
(-0.23400955 0.122670324 -5.74875546e-27)
(-0.302552631 0.157788503 -5.15866472e-27)
(-0.370596516 0.192366501 -4.42037758e-27)
(-0.437371355 0.226069243 1.14531912e-28)
(-0.502146242 0.258600613 2.61500967e-27)
(-0.56425047 0.28971603 1.31993186e-27)
(-0.623077895 0.319223325 1.40111657e-28)
(-0.678088727 0.346965681 0)
(-0.728748424 0.372841491 3.85153921e-28)
(-0.774574689 0.396803249 -2.1392672e-28)
(-0.815128018 0.418786108 0)
(-0.849912673 0.438790227 0)
(-0.87841994 0.456810337 0)
(-0.900108352 0.47285824 0)
(-0.914394985 0.486958769 3.74796398e-28)
(-0.920638496 0.499147252 0)
(-0.918122598 0.509466042 -2.66647621e-26)
(-0.906062846 0.517949328 -3.01899035e-26)
(-0.883566932 0.524667204 7.17675865e-26)
(-0.849683131 0.529692876 7.89011472e-26)
(-0.803329309 0.533124527 -8.87446626e-26)
(-0.743301002 0.535072012 -9.39954872e-26)
(-0.668250527 0.535660804 -1.04320505e-25)
(-0.576650097 0.535034815 -1.13126291e-25)
(-0.466856664 0.533352177 -1.06187817e-25)
(-0.337259301 0.53063742 -2.49261388e-25)
(-0.185710972 0.527179189 -1.69920107e-25)
(-0.0101201588 0.524275522 0)
(0.186785265 0.522243921 7.09372142e-27)
(0.418829586 0.519804485 7.97814848e-27)
(0.683997496 0.517280889 0)
(0.985464874 0.516290599 -9.86684669e-27)
(1.32721286 0.517392496 0)
(1.71272778 0.520862224 0)
(2.1459611 0.527330148 2.32450218e-25)
(2.63104606 0.537477461 1.53439329e-26)
(3.17195425 0.552038439 -3.23049456e-25)
(3.77242952 0.571825605 3.64006771e-25)
(4.43575495 0.597728461 4.60623832e-25)
(5.1647877 0.630610702 -2.55155176e-26)
(5.96157912 0.67130659 0)
(6.82704919 0.720615419 9.15712544e-25)
(7.76065485 0.779255798 9.6891345e-25)
(8.7600377 0.847800194 0)
(9.82068864 0.926625366 0)
(10.9355505 1.01586671 -1.81327485e-24)
(12.0945795 1.11530094 -2.19582607e-24)
(13.284777 1.22437909 2.78176807e-24)
(14.4876944 1.34286001 3.22566967e-24)
(15.6861254 1.46916078 -3.09185936e-24)
(16.8622145 1.60047371 5.14418362e-32)
(17.9977043 1.7355331 3.72663346e-24)
(19.0713436 1.86937701 1.93380252e-26)
(20.0676626 2.00246541 0)
(20.9663798 2.12176882 4.43465143e-25)
(21.768399 2.2307486 -3.92089026e-24)
(22.4364636 2.31209533 5.59433199e-25)
(23.0108102 2.37875414 6.68989524e-24)
(23.3851807 2.43128919 0)
(23.4645634 2.44243211 5.79267097e-25)
(23.484118 2.45692064 0)
(23.4718456 2.48881817 3.52346213e-25)
(23.4715959 2.44644158 -3.97006249e-25)
(23.5012834 2.39547102 -1.23663276e-24)
(23.5249498 2.37504298 -1.06295059e-23)
(23.5365822 2.35927975 -1.25042903e-23)
(23.5511455 2.33582381 -1.15968643e-24)
(23.5969344 2.29875025 -1.18837394e-23)
(23.6515135 2.24777436 -1.1503028e-23)
(23.6749691 2.22229073 -1.49115328e-23)
(23.6699824 2.23230356 -1.05204062e-23)
(23.7649794 2.15746371 -1.55729479e-23)
(23.823508 2.1286387 -1.64891006e-23)
(23.8754658 2.11356499 1.4789177e-23)
(23.9747355 1.99195262 1.26472989e-23)
(24.0511523 1.88791654 -2.57742223e-24)
(24.0396464 1.83646872 3.05931687e-24)
(-0.0353481749 0.0171145624 1.78990622e-27)
(-0.106378014 0.051188851 -5.65790237e-27)
(-0.178484276 0.0854384472 -1.6709602e-29)
(-0.250963405 0.119558186 -1.49874365e-35)
(-0.322967122 0.153218329 -3.24579874e-27)
(-0.393583268 0.186071203 -1.31500901e-29)
(-0.461905575 0.217789884 -5.90529862e-28)
(-0.527079794 0.248093115 1.14125076e-35)
(-0.588322899 0.276755568 -6.73761659e-27)
(-0.644917259 0.303621121 -6.19839164e-27)
(-0.696211454 0.328557227 -1.14733646e-29)
(-0.741568846 0.351497338 -1.16679383e-26)
(-0.780381803 0.372377834 -1.4194979e-26)
(-0.812034011 0.39122407 -1.71679948e-26)
(-0.835904189 0.408034101 -2.08709406e-26)
(-0.851322533 0.422844614 2.48810605e-26)
(-0.857566207 0.435707517 2.92324387e-26)
(-0.85384102 0.446694139 1.96082238e-28)
(-0.839288471 0.455868734 0)
(-0.81290798 0.463342515 -4.34710932e-26)
(-0.773659477 0.469215821 -4.84469199e-26)
(-0.720352595 0.473622653 7.41729477e-28)
(-0.651665731 0.476708372 5.93450375e-26)
(-0.566112799 0.478638029 6.33229672e-26)
(-0.46208725 0.479594078 2.52499872e-27)
(-0.337971622 0.479660876 0)
(-0.191737969 0.479137192 -1.56103568e-27)
(-0.0213185542 0.479113646 1.20934232e-28)
(0.171286788 0.479869182 -1.61903911e-25)
(0.397874921 0.480625162 -1.76585304e-25)
(0.657047849 0.481703264 2.26250824e-25)
(0.951812261 0.484500801 2.55491532e-25)
(1.28578555 0.489592274 1.42831935e-26)
(1.66225226 0.497327048 -2.77913432e-25)
(2.08486425 0.508354296 6.50791117e-33)
(2.55742411 0.523383618 3.27409922e-25)
(3.08361898 0.543180174 -3.56236596e-25)
(3.66695069 0.568575355 -4.2063125e-25)
(4.31054465 0.600457585 3.16054905e-26)
(5.01710972 0.639700806 -1.78601726e-26)
(5.78869203 0.687138134 -2.14701443e-26)
(6.62635207 0.743556483 -8.02952903e-25)
(7.52988087 0.809656147 -1.96454586e-24)
(8.49748849 0.885988415 -1.17067105e-24)
(9.52549619 0.972891566 -1.33771798e-24)
(10.6080462 1.07042613 -1.71070967e-24)
(11.7368232 1.17829898 0)
(12.9008757 1.29583305 2.56988045e-24)
(14.0860696 1.42197789 3.04022419e-24)
(15.2745915 1.55546145 3.40583822e-24)
(16.4469598 1.69454232 7.10395727e-24)
(17.5846413 1.83615377 7.40577017e-24)
(18.6691242 1.97756733 7.84502817e-24)
(19.6814377 2.11389803 8.27939299e-24)
(20.6045601 2.24451981 4.32106364e-24)
(21.4182585 2.36115182 -6.43974866e-25)
(22.1149153 2.46818236 0)
(22.6743257 2.54698647 -4.65863093e-24)
(23.1375627 2.60984415 -5.53689933e-24)
(23.4259124 2.64792724 0)
(23.4761972 2.6673705 -4.28063052e-24)
(23.477643 2.69090189 -4.91422291e-24)
(23.4594571 2.70685037 0)
(23.4567719 2.6885631 -3.96025295e-25)
(23.464314 2.6626504 0)
(23.4652371 2.65165628 -8.98287715e-24)
(23.4956895 2.61263228 -1.67565725e-24)
(23.5404112 2.56564262 1.17414305e-23)
(23.5844575 2.52596097 -1.20888224e-24)
(23.6027677 2.51774766 -1.24122024e-24)
(23.650391 2.49133357 -1.2416079e-23)
(23.7035578 2.45295872 -1.13358524e-23)
(23.7219539 2.42179194 -1.27838881e-24)
(23.7636653 2.40333383 -1.28062354e-24)
(23.8325713 2.34577188 -6.61156352e-26)
(23.893584 2.27575784 -1.30132789e-24)
(23.9026793 2.23426788 1.46220925e-23)
(23.949823 2.18138554 3.26610148e-23)
(24.0216212 2.10245785 1.48202024e-23)
(24.0335214 2.05080396 -2.38649986e-24)
(-0.0379004736 0.0165513139 0)
(-0.113402447 0.0492998421 -1.05005889e-28)
(-0.189273287 0.0820018149 1.07625326e-28)
(-0.264618682 0.114335595 1.02239878e-27)
(-0.338407871 0.145965534 1.14380821e-28)
(-0.409560216 0.176557836 1.17269807e-28)
(-0.477020445 0.205801908 -5.09474719e-27)
(-0.539785961 0.233446729 0)
(-0.596927212 0.259296934 2.38135238e-28)
(-0.647584072 0.283202194 -1.33401647e-26)
(-0.690949324 0.305098752 -1.64177164e-26)
(-0.726252334 0.3249396 2.04935291e-26)
(-0.752725161 0.342726508 2.35400005e-28)
(-0.769585661 0.358493718 -5.81385332e-26)
(-0.776016654 0.372303163 -6.83387364e-26)
(-0.771136746 0.384248694 -3.90977578e-26)
(-0.754013125 0.394414023 -1.74545278e-28)
(-0.723539535 0.402947623 -5.02536663e-26)
(-0.67860231 0.40997792 -5.63543091e-26)
(-0.617916797 0.415678696 4.66068819e-29)
(-0.540057884 0.420237694 -4.08591133e-29)
(-0.443478502 0.423864718 1.81512187e-28)
(-0.326585035 0.426702416 -8.19063111e-26)
(-0.18746453 0.429058021 -1.99428355e-25)
(-0.0240700197 0.431846345 -1.05259866e-25)
(0.162235258 0.435324651 6.20926418e-28)
(0.38141482 0.439118576 -1.05949298e-25)
(0.632597137 0.443558794 -1.14183143e-27)
(0.918640774 0.449853297 1.41289794e-27)
(1.24283976 0.458588098 -1.43827983e-25)
(1.60828877 0.470182119 0)
(2.01837349 0.485304884 -3.29244466e-25)
(2.47660229 0.504686572 6.02854603e-27)
(2.98639895 0.529107751 3.92422867e-25)
(3.5510381 0.559403727 4.37935141e-25)
(4.17348914 0.596457918 4.92385059e-25)