/*--------------------------------*- C++ -*----------------------------------*\
  =========                 |
  \\      /  F ield         | OpenFOAM: The Open Source CFD Toolbox
   \\    /   O peration     | Website:  https://openfoam.org
    \\  /    A nd           | Version:  8
     \\/     M anipulation  |
\*---------------------------------------------------------------------------*/
FoamFile
{
    version     2.0;
    format      ascii;
    class       volScalarField;
    location    "0.081";
    object      p;
}
// * * * * * * * * * * * * * * * * * * * * * * * * * * * * * * * * * * * * * //

dimensions      [1 -1 -2 0 0 0 0];

internalField   nonuniform List<scalar> 
42400
(
101688.803
101688.79
101688.776
101688.764
101688.752
101688.742
101688.733
101688.725
101688.718
101688.712
101688.707
101688.704
101688.701
101688.7
101688.701
101688.702
101688.705
101688.709
101688.715
101688.721
101688.729
101688.738
101688.748
101688.759
101688.771
101688.784
101688.798
101688.813
101688.829
101688.846
101688.863
101688.882
101688.901
101688.92
101688.94
101688.961
101688.982
101689.003
101689.035
101689.078
101689.127
101689.181
101689.215
101689.222
101689.227
101689.232
101689.256
101689.3
101689.35
101689.402
101689.454
101689.504
101689.549
101689.625
101689.73
101689.854
101689.947
101689.995
101690.074
101690.2
101690.354
101690.507
101690.665
101690.845
101691.045
101691.257
101691.478
101691.682
101692.087
101692.598
101692.334
101692.765
101694.282
101693.714
101691.681
101690.01
101694.183
101701.833
101701.288
101703.186
101688.102
101688.092
101688.08
101688.07
101688.061
101688.053
101688.046
101688.04
101688.035
101688.031
101688.028
101688.026
101688.026
101688.026
101688.028
101688.032
101688.036
101688.042
101688.048
101688.056
101688.066
101688.076
101688.087
101688.1
101688.113
101688.128
101688.143
101688.16
101688.177
101688.195
101688.214
101688.233
101688.253
101688.273
101688.293
101688.321
101688.359
101688.401
101688.436
101688.451
101688.454
101688.456
101688.473
101688.506
101688.542
101688.577
101688.614
101688.65
101688.679
101688.722
101688.796
101688.892
101688.956
101688.974
101689.013
101689.089
101689.189
101689.286
101689.383
101689.491
101689.616
101689.762
101689.923
101690.101
101690.295
101690.506
101690.744
101690.911
101691.225
101692.015
101692.191
101692.403
101693.598
101693.576
101693.398
101697.128
101700.785
101701.824
101702.642
101702.864
101687.269
101687.26
101687.252
101687.244
101687.237
101687.231
101687.226
101687.222
101687.219
101687.218
101687.217
101687.218
101687.219
101687.222
101687.226
101687.232
101687.239
101687.247
101687.256
101687.267
101687.279
101687.292
101687.306
101687.322
101687.339
101687.357
101687.376
101687.396
101687.417
101687.439
101687.462
101687.488
101687.518
101687.553
101687.591
101687.621
101687.638
101687.651
101687.665
101687.691
101687.726
101687.762
101687.797
101687.834
101687.868
101687.893
101687.94
101688.025
101688.111
101688.125
101688.122
101688.17
101688.243
101688.313
101688.38
101688.45
101688.531
101688.623
101688.726
101688.843
101688.971
101689.114
101689.286
101689.499
101689.753
101690.016
101690.289
101690.579
101690.804
101691.6
101692.054
101692.267
101695.141
101698.423
101699.99
101699.471
101698.946
101700.357
101702.187
101703.45
101686.324
101686.318
101686.31
101686.305
101686.299
101686.295
101686.292
101686.29
101686.289
101686.29
101686.291
101686.294
101686.298
101686.304
101686.311
101686.319
101686.329
101686.341
101686.354
101686.368
101686.385
101686.402
101686.422
101686.443
101686.465
101686.489
101686.514
101686.541
101686.57
101686.602
101686.638
101686.672
101686.701
101686.729
101686.756
101686.787
101686.825
101686.867
101686.909
101686.951
101686.994
101687.035
101687.069
101687.119
101687.202
101687.257
101687.273
101687.308
101687.367
101687.435
101687.491
101687.545
101687.605
101687.67
101687.741
101687.818
101687.902
101687.998
101688.105
101688.231
101688.392
101688.581
101688.804
101689.073
101689.443
101689.86
101690.252
101690.673
101690.832
101691.415
101694.782
101697.095
101696.308
101695.993
101697.709
101698.562
101699.705
101701.047
101703.108
101704.481
101685.27
101685.264
101685.257
101685.252
101685.249
101685.246
101685.244
101685.243
101685.244
101685.246
101685.25
101685.255
101685.262
101685.271
101685.281
101685.294
101685.308
101685.324
101685.341
101685.361
101685.383
101685.407
101685.432
101685.458
101685.486
101685.518
101685.552
101685.588
101685.625
101685.663
101685.701
101685.742
101685.787
101685.835
101685.884
101685.934
101685.984
101686.036
101686.087
101686.131
101686.189
101686.275
101686.335
101686.361
101686.408
101686.474
101686.537
101686.595
101686.654
101686.716
101686.779
101686.845
101686.913
101686.987
101687.07
101687.165
101687.271
101687.393
101687.536
101687.702
101687.915
101688.178
101688.533
101688.915
101689.519
101690.07
101690.757
101691.767
101694.065
101695.765
101695.391
101695.777
101696.586
101697.362
101698.676
101699.825
101700.809
101702.358
101703.579
101704.582
101684.091
101684.085
101684.079
101684.074
101684.071
101684.069
101684.068
101684.069
101684.071
101684.076
101684.082
101684.089
101684.099
101684.111
101684.125
101684.142
101684.16
101684.181
101684.204
101684.227
101684.254
101684.283
101684.318
101684.355
101684.395
101684.438
101684.482
101684.528
101684.578
101684.629
101684.682
101684.737
101684.793
101684.852
101684.912
101684.971
101685.024
101685.09
101685.181
101685.249
101685.288
101685.349
101685.425
101685.495
101685.561
101685.628
101685.696
101685.763
101685.832
101685.903
101685.979
101686.062
101686.154
101686.258
101686.376
101686.512
101686.673
101686.857
101687.068
101687.307
101687.608
101687.928
101688.368
101688.56
101689.131
101691.173
101693.011
101694.115
101694.186
101694.205
101695.015
101696.213
101697.326
101698.536
101699.919
101701.116
101701.875
101702.64
101703.938
101704.729
101682.756
101682.75
101682.744
101682.739
101682.736
101682.735
101682.736
101682.738
101682.742
101682.748
101682.757
101682.768
101682.781
101682.797
101682.815
101682.835
101682.858
101682.885
101682.915
101682.95
101682.988
101683.028
101683.07
101683.115
101683.163
101683.214
101683.268
101683.324
101683.384
101683.446
101683.511
101683.577
101683.64
101683.707
101683.782
101683.879
101683.953
101684.002
101684.075
101684.161
101684.239
101684.316
101684.393
101684.469
101684.546
101684.624
101684.703
101684.786
101684.874
101684.968
101685.072
101685.191
101685.324
101685.477
101685.655
101685.86
101686.099
101686.377
101686.699
101687.073
101687.51
101687.943
101688.861
101691.001
101692.387
101692.293
101692.298
101692.809
101693.544
101694.963
101696.172
101697.373
101698.871
101699.85
101700.415
101701.321
101702.474
101703.575
101705.117
101706.252
101681.233
101681.227
101681.221
101681.217
101681.215
101681.215
101681.218
101681.222
101681.229
101681.237
101681.248
101681.262
101681.279
101681.299
101681.322
101681.35
101681.38
101681.414
101681.45
101681.49
101681.534
101681.58
101681.631
101681.684
101681.741
101681.802
101681.866
101681.932
101682.001
101682.068
101682.145
101682.239
101682.328
101682.396
101682.469
101682.554
101682.647
101682.735
101682.821
101682.908
101682.996
101683.085
101683.174
101683.266
101683.36
101683.458
101683.562
101683.675
101683.799
101683.939
101684.098
101684.281
101684.492
101684.737
101685.019
101685.356
101685.75
101686.215
101686.673
101687.148
101688.118
101689.862
101690.921
101691.115
101691.449
101691.995
101692.84
101694.016
101695.323
101696.798
101697.906
101698.468
101699.183
101700.011
101701.019
101702.349
101703.428
101704.539
101706.188
101707.918
101679.465
101679.459
101679.455
101679.452
101679.453
101679.455
101679.46
101679.467
101679.478
101679.492
101679.509
101679.529
101679.552
101679.578
101679.607
101679.64
101679.677
101679.718
101679.762
101679.81
101679.862
101679.918
101679.978
101680.042
101680.109
101680.179
101680.249
101680.328
101680.422
101680.505
101680.577
101680.662
101680.758
101680.855
101680.95
101681.045
101681.143
101681.241
101681.341
101681.442
101681.546
101681.652
101681.762
101681.878
101682.001
101682.133
101682.28
101682.444
101682.63
101682.842
101683.084
101683.359
101683.668
101684.03
101684.428
101684.902
101685.407
101686.079
101687.109
101688.431
101689.301
101689.531
101689.909
101690.59
101691.661
101692.709
101693.736
101694.997
101696.138
101696.945
101697.733
101698.74
101699.872
101701.242
101702.966
101704.394
101705.78
101707.218
101708.679
101710.021
101677.423
101677.42
101677.418
101677.418
101677.421
101677.427
101677.437
101677.449
101677.464
101677.483
101677.505
101677.53
101677.56
101677.593
101677.63
101677.671
101677.716
101677.765
101677.819
101677.876
101677.938
101678.004
101678.074
101678.145
101678.224
101678.316
101678.402
101678.479
101678.569
101678.669
101678.768
101678.868
101678.97
101679.075
101679.182
101679.292
101679.404
101679.518
101679.636
101679.759
101679.887
101680.022
101680.167
101680.324
101680.497
101680.689
101680.905
101681.149
101681.424
101681.733
101682.08
101682.484
101682.941
101683.482
101683.98
101684.514
101685.677
101687.209
101688.141
101688.301
101688.418
101689.091
101690.146
101691.198
101692.242
101693.334
101694.471
101695.467
101696.381
101697.601
101698.936
101700.221
101701.479
101702.725
101704.115
101705.557
101707.428
101708.934
101710.403
101711.759
101675.06
101675.06
101675.062
101675.067
101675.075
101675.086
101675.101
101675.119
101675.14
101675.165
101675.194
101675.228
101675.265
101675.307
101675.353
101675.403
101675.458
101675.518
101675.582
101675.65
101675.72
101675.798
101675.888
101675.974
101676.054
101676.147
101676.248
101676.35
101676.454
101676.561
101676.672
101676.785
101676.902
101677.023
101677.147
101677.276
101677.41
101677.55
101677.699
101677.857
101678.028
101678.215
101678.421
101678.65
101678.906
101679.193
101679.514
101679.871
101680.26
101680.686
101681.136
101681.617
101682.138
101682.986
101684.512
101685.944
101686.404
101686.456
101686.907
101687.538
101688.411
101689.495
101690.578
101691.598
101692.605
101693.974
101695.256
101696.467
101697.648
101698.755
101699.978
101701.249
101702.668
101703.941
101705.051
101706.439
101707.88
101709.386
101711.193
101712.93
101672.332
101672.337
101672.344
101672.355
101672.369
101672.387
101672.408
101672.434
101672.463
101672.497
101672.535
101672.578
101672.625
101672.677
101672.734
101672.795
101672.86
101672.93
101673.006
101673.093
101673.178
101673.261
101673.355
101673.456
101673.559
101673.665
101673.775
101673.889
101674.007
101674.129
101674.255
101674.385
101674.52
101674.661
101674.809
101674.966
101675.132
101675.312
101675.507
101675.722
101675.96
101676.225
101676.522
101676.857
101677.235
101677.66
101678.138
101678.674
101679.273
101679.936
101680.631
101681.351
101682.604
101683.493
101683.753
101684.115
101684.794
101685.803
101686.915
101688.168
101689.41
101690.621
101692.086
101693.168
101693.866
101694.714
101695.643
101696.588
101697.834
101699.306
101700.71
101702.124
101703.439
101704.66
101705.923
101707.107
101708.285
101710.087
101712.192
101714.01
101669.192
101669.203
101669.218
101669.237
101669.259
101669.285
101669.315
101669.349
101669.389
101669.433
101669.481
101669.535
101669.593
101669.656
101669.725
101669.802
101669.882
101669.963
101670.049
101670.143
101670.243
101670.346
101670.453
101670.565
101670.681
101670.801
101670.926
101671.055
101671.189
101671.329
101671.474
101671.627
101671.788
101671.959
101672.143
101672.342
101672.559
101672.797
101673.061
101673.355
101673.683
101674.048
101674.457
101674.911
101675.414
101675.966
101676.565
101677.216
101677.909
101678.83
101679.906
101681.098
101681.919
101682.358
101683.187
101684.235
101685.292
101686.553
101687.924
101689.101
101690.067
101690.958
101691.764
101692.617
101693.727
101694.717
101695.482
101696.54
101698.161
101699.937
101701.761
101703.492
101705.153
101706.766
101708.481
101710.42
101712.205
101713.684
101715.271
101716.412
101665.598
101665.617
101665.642
101665.669
101665.701
101665.737
101665.778
101665.824
101665.875
101665.93
101665.991
101666.057
101666.13
101666.207
101666.286
101666.373
101666.467
101666.565
101666.667
101666.774
101666.887
101667.004
101667.126
101667.252
101667.384
101667.521
101667.664
101667.814
101667.971
101668.136
101668.312
101668.501
101668.704
101668.926
101669.169
101669.436
101669.733
101670.064
101670.432
101670.842
101671.298
101671.802
101672.359
101672.968
101673.625
101674.324
101675.073
101675.927
101677.168
101678.402
101679.448
101680.066
101680.692
101681.815
101683.182
101684.381
101685.508
101686.609
101687.399
101688.156
101689.196
101690.412
101691.715
101693.096
101694.715
101696.411
101698.006
101699.534
101700.828
101701.988
101703.185
101704.451
101706.02
101707.903
101709.716
101711.571
101713.363
101714.828
101715.991
101717.343
101661.508
101661.538
101661.573
101661.613
101661.656
101661.705
101661.758
101661.816
101661.88
101661.95
101662.025
101662.104
101662.189
101662.28
101662.377
101662.478
101662.585
101662.697
101662.815
101662.938
101663.066
101663.2
101663.339
101663.485
101663.638
101663.799
101663.968
101664.149
101664.342
101664.55
101664.777
101665.024
101665.296
101665.598
101665.933
101666.307
101666.723
101667.186
101667.701
101668.271
101668.898
101669.585
101670.331
101671.129
101671.979
101672.871
101674.115
101675.718
101676.687
101677.211
101677.804
101678.765
101679.992
101681.326
101682.525
101683.776
101685.155
101686.234
101687.473
101688.864
101690.305
101691.736
101693.243
101694.669
101695.986
101697.437
101699.056
101700.479
101701.718
101703.021
101704.224
101705.281
101706.726
101708.82
101711.079
101713.1
101715.304
101716.635
101717.62
101719.741
101656.901
101656.942
101656.991
101657.044
101657.101
101657.164
101657.231
101657.303
101657.381
101657.465
101657.554
101657.649
101657.749
101657.855
101657.966
101658.083
101658.206
101658.334
101658.468
101658.609
101658.756
101658.91
101659.073
101659.245
101659.427
101659.623
101659.833
101660.06
101660.309
101660.582
101660.884
101661.218
101661.59
101662.005
101662.467
101662.981
101663.552
101664.184
101664.879
101665.64
101666.467
101667.364
101668.314
101669.327
101670.431
101671.903
101673.049
101673.608
101674.485
101675.801
101677.169
101678.547
101679.921
101681.488
101682.738
101683.7
101684.724
101686.037
101687.592
101689.072
101690.537
101692.052
101693.518
101695.096
101696.539
101697.837
101699.662
101701.414
101702.6
101704.016
101705.905
101707.792
101709.908
101712.252
101713.93
101715.104
101716.554
101718.185
101719.756
101721.798
101651.771
101651.826
101651.891
101651.96
101652.032
101652.109
101652.192
101652.28
101652.374
101652.473
101652.578
101652.688
101652.804
101652.926
101653.055
101653.189
101653.33
101653.478
101653.633
101653.797
101653.971
101654.155
101654.351
101654.562
101654.791
101655.039
101655.311
101655.611
101655.942
101656.309
101656.716
101657.169
101657.672
101658.229
101658.845
101659.521
101660.26
101661.063
101661.929
101662.862
101663.839
101664.875
101665.932
101667.336
101669.177
101670.17
101671.033
101672.299
101673.581
101674.722
101676.27
101678.286
101679.698
101680.998
101682.452
101683.691
101684.798
101686.016
101687.457
101688.931
101690.551
101692.366
101694.119
101695.811
101697.512
101699.212
101700.846
101702.508
101704.493
101706.321
101708.096
101710.29
101711.714
101713.186
101715.22
101716.886
101718.449
101720.833
101723.308
101724.62
101646.15
101646.22
101646.303
101646.388
101646.476
101646.569
101646.668
101646.772
101646.882
101646.997
101647.118
101647.246
101647.379
101647.52
101647.667
101647.823
101647.987
101648.161
101648.346
101648.543
101648.756
101648.985
101649.235
101649.508
101649.808
101650.14
101650.507
101650.915
101651.368
101651.872
101652.431
101653.049
101653.728
101654.472
101655.282
101656.156
101657.093
101658.087
101659.119
101660.198
101661.396
101662.987
101664.956
101666.611
101667.442
101668.352
101669.78
101671.234
101672.734
101674.295
101675.766
101677.191
101678.711
101679.785
101681.244
101683.424
101685.135
101686.792
101688.48
101690.211
101691.896
101693.461
101695.12
101696.825
101698.601
101700.556
101702.218
101703.851
101705.706
101707.495
101709.047
101711.277
101714.337
101715.596
101716.542
101718.739
101720.771
101722.974
101725.098
101726.619
101640.097
101640.183
101640.283
101640.385
101640.489
101640.599
101640.714
101640.835
101640.961
101641.094
101641.233
101641.379
101641.533
101641.695
101641.868
101642.051
101642.247
101642.458
101642.686
101642.933
101643.205
101643.503
101643.833
101644.199
101644.607
101645.061
101645.567
101646.13
101646.757
101647.451
101648.216
101649.056
101649.971
101650.964
101652.031
101653.173
101654.384
101655.641
101656.933
101658.589
101660.65
101661.976
101662.948
101664.126
101665.792
101667.673
101669.192
101670.647
101672.376
101674.492
101676.144
101677.162
101678.539
101680.704
101682.406
101683.751
101685.203
101686.77
101688.383
101690.023
101691.836
101693.789
101695.8
101697.836
101699.758
101701.781
101703.997
101705.949
101707.844
101710.014
101712.677
101714.332
101715.201
101716.749
101719.543
101721.534
101723.014
101724.799
101726.246
101728.756
101633.736
101633.838
101633.956
101634.073
101634.194
101634.319
101634.449
101634.585
101634.727
101634.876
101635.033
101635.2
101635.376
101635.565
101635.767
101635.986
101636.225
101636.485
101636.773
101637.091
101637.444
101637.839
101638.28
101638.775
101639.328
101639.947
101640.638
101641.407
101642.259
101643.198
101644.229
101645.355
101646.578
101647.9
101649.322
101650.842
101652.461
101654.163
101655.99
101657.547
101658.774
101660.258
101661.809
101663.125
101664.423
101665.951
101667.837
101670.099
101672.499
101674.127
101675.522
101677.108
101678.583
101679.84
101681.11
101682.973
101685.387
101687.744
101690.424
101693.608
101695.785
101697.353
101698.773
101700.197
101701.943
101703.541
101704.969
101707.031
101709.737
101712.033
101714.206
101716.251
101717.949
101719.276
101720.883
101722.862
101724.727
101726.199
101728.119
101730.971
101663.591
101663.593
101663.596
101663.601
101663.607
101663.615
101663.625
101663.637
101663.651
101663.666
101663.684
101663.703
101663.725
101663.748
101663.774
101663.803
101663.833
101663.866
101663.901
101663.939
101663.98
101664.023
101664.07
101664.119
101664.172
101664.228
101664.287
101664.35
101664.417
101664.487
101664.562
101664.642
101664.726
101664.814
101664.907
101665.006
101665.11
101665.219
101665.335
101665.458
101665.591
101665.733
101665.881
101666.034
101666.196
101666.369
101666.551
101666.742
101666.943
101667.154
101667.375
101667.607
101667.849
101668.1
101668.36
101668.626
101668.897
101669.172
101669.452
101669.731
101670.005
101670.267
101670.508
101670.739
101670.96
101671.117
101671.11
101670.917
101670.622
101670.262
101669.822
101669.246
101668.398
101667.275
101666.529
101666.442
101666.069
101665.087
101664.347
101663.814
101667.001
101667.003
101667.007
101667.013
101667.02
101667.029
101667.041
101667.054
101667.069
101667.086
101667.106
101667.127
101667.151
101667.177
101667.206
101667.237
101667.27
101667.306
101667.345
101667.386
101667.431
101667.478
101667.528
101667.582
101667.639
101667.699
101667.763
101667.831
101667.903
101667.98
101668.06
101668.145
101668.235
101668.33
101668.43
101668.536
101668.647
101668.763
101668.886
101669.015
101669.151
101669.293
101669.443
101669.604
101669.778
101669.963
101670.156
101670.354
101670.563
101670.782
101671.014
101671.258
101671.512
101671.776
101672.049
101672.332
101672.622
101672.921
101673.225
101673.529
101673.826
101674.108
101674.368
101674.596
101674.781
101674.907
101674.98
101674.994
101674.927
101674.743
101674.425
101673.973
101673.393
101672.855
101672.532
101672.249
101672.178
101671.798
101670.79
101669.979
101670.161
101670.164
101670.168
101670.174
101670.183
101670.193
101670.205
101670.219
101670.236
101670.254
101670.275
101670.298
101670.323
101670.351
101670.381
101670.414
101670.449
101670.487
101670.528
101670.571
101670.618
101670.668
101670.72
101670.776
101670.836
101670.899
101670.966
101671.037
101671.111
101671.19
101671.274
101671.362
101671.454
101671.552
101671.655
101671.763
101671.877
101671.997
101672.123
101672.256
101672.395
101672.54
101672.692
101672.851
101673.018
101673.191
101673.371
101673.563
101673.77
101673.992
101674.227
101674.47
101674.717
101674.974
101675.241
101675.521
101675.815
101676.122
101676.441
101676.768
101677.099
101677.427
101677.751
101678.067
101678.364
101678.62
101678.822
101678.953
101679.027
101679.051
101679.012
101678.895
101678.69
101678.366
101678.122
101677.51
101676.138
101676.005
101676.544
101675.898
101673.059
101673.062
101673.066
101673.073
101673.082
101673.092
101673.105
101673.12
101673.137
101673.157
101673.178
101673.202
101673.228
101673.256
101673.287
101673.321
101673.357
101673.396
101673.438
101673.482
101673.529
101673.58
101673.634
101673.691
101673.751
101673.815
101673.883
101673.954
101674.03
101674.11
101674.194
101674.282
101674.376
101674.474
101674.577
101674.686
101674.8
101674.92
101675.046
101675.179
101675.318
101675.464
101675.618
101675.779
101675.946
101676.121
101676.303
101676.494
101676.693
101676.9
101677.111
101677.328
101677.557
101677.801
101678.059
101678.331
101678.616
101678.914
101679.223
101679.542
101679.86
101680.162
101680.445
101680.714
101681.003
101681.336
101681.7
101682.038
101682.244
101682.381
101682.413
101682.373
101682.236
101682.005
101681.613
101681.148
101680.646
101679.693
101678.553
101678.31
101675.689
101675.692
101675.697
101675.704
101675.713
101675.724
101675.737
101675.753
101675.77
101675.789
101675.811
101675.835
101675.861
101675.89
101675.921
101675.955
101675.991
101676.03
101676.072
101676.116
101676.163
101676.214
101676.267
101676.324
101676.384
101676.447
101676.514
101676.585
101676.66
101676.739
101676.822
101676.909
101677.001
101677.097
101677.199
101677.305
101677.417
101677.535
101677.658
101677.788
101677.924
101678.066
101678.216
101678.372
101678.537
101678.709
101678.89
101679.079
101679.277
101679.482
101679.696
101679.918
101680.152
101680.398
101680.653
101680.918
101681.191
101681.47
101681.757
101682.048
101682.344
101682.65
101682.958
101683.257
101683.535
101683.789
101684
101684.199
101684.395
101684.58
101684.823
101685.089
101685.208
101684.994
101684.645
101684.125
101683.541
101683.081
101682.469
101681.161
101678.052
101678.056
101678.061
101678.068
101678.077
101678.088
101678.101
101678.117
101678.134
101678.153
101678.174
101678.198
101678.224
101678.252
101678.283
101678.316
101678.352
101678.39
101678.43
101678.474
101678.52
101678.569
101678.622
101678.677
101678.735
101678.797
101678.862
101678.931
101679.004
101679.08
101679.161
101679.245
101679.334
101679.428
101679.526
101679.629
101679.737
101679.85
101679.969
101680.094
101680.225
101680.362
101680.506
101680.657
101680.815
101680.98
101681.154
101681.336
101681.526
101681.726
101681.935
101682.155
101682.386
101682.626
101682.875
101683.133
101683.398
101683.672
101683.951
101684.238
101684.529
101684.828
101685.139
101685.46
101685.784
101686.086
101686.356
101686.574
101686.787
101686.941
101687.016
101686.962
101686.969
101687.114
101687.282
101687.275
101686.855
101686.198
101685.582
101685.227
101680.156
101680.16
101680.165
101680.172
101680.181
101680.192
101680.204
101680.219
101680.236
101680.255
101680.275
101680.298
101680.323
101680.351
101680.38
101680.412
101680.446
101680.483
101680.522
101680.564
101680.609
101680.656
101680.706
101680.759
101680.815
101680.875
101680.937
101681.003
101681.073
101681.146
101681.223
101681.304
101681.388
101681.478
101681.571
101681.67
101681.773
101681.881
101681.994
101682.114
101682.238
101682.369
101682.507
101682.651
101682.802
101682.96
101683.126
101683.3
101683.482
101683.672
101683.872
101684.08
101684.298
101684.524
101684.761
101685.007
101685.262
101685.527
101685.801
101686.085
101686.379
101686.681
101686.993
101687.312
101687.635
101687.961
101688.284
101688.603
101688.891
101689.155
101689.328
101689.412
101689.394
101689.314
101689.05
101688.789
101688.638
101688.406
101688.073
101687.932
101682.01
101682.013
101682.018
101682.025
101682.033
101682.043
101682.056
101682.07
101682.086
101682.103
101682.123
101682.145
101682.169
101682.195
101682.223
101682.253
101682.285
101682.32
101682.357
101682.397
101682.439
101682.484
101682.531
101682.581
101682.634
101682.69
101682.749
101682.811
101682.877
101682.946
101683.018
101683.095
101683.175
101683.259
101683.347
101683.44
101683.537
101683.64
101683.747
101683.859
101683.977
101684.101
101684.232
101684.368
101684.512
101684.662
101684.82
101684.986
101685.159
101685.341
101685.532
101685.732
101685.942
101686.16
101686.389
101686.628
101686.878
101687.138
101687.409
101687.69
101687.982
101688.287
101688.602
101688.927
101689.261
101689.602
101689.947
101690.29
101690.626
101690.945
101691.237
101691.487
101691.68
101691.715
101691.581
101691.306
101691.006
101690.58
101689.947
101689.528
101683.628
101683.631
101683.635
101683.641
101683.649
101683.659
101683.67
101683.683
101683.698
101683.714
101683.732
101683.753
101683.775
101683.799
101683.825
101683.853
101683.883
101683.916
101683.95
101683.987
101684.026
101684.068
101684.112
101684.158
101684.208
101684.26
101684.314
101684.372
101684.434
101684.498
101684.565
101684.636
101684.71
101684.789
101684.871
101684.958
101685.049
101685.145
101685.245
101685.351
101685.462
101685.579
101685.702
101685.831
101685.967
101686.11
101686.261
101686.419
101686.586
101686.761
101686.945
101687.139
101687.343
101687.557
101687.782
101688.017
101688.264
101688.523
101688.795
101689.078
101689.375
101689.685
101690.009
101690.346
101690.697
101691.06
101691.434
101691.815
101692.198
101692.579
101692.949
101693.3
101693.61
101693.865
101694.053
101694.154
101694.036
101693.774
101693.494
101693.023
101685.025
101685.028
101685.031
101685.037
101685.043
101685.052
101685.062
101685.073
101685.086
101685.101
101685.118
101685.136
101685.156
101685.178
101685.202
101685.227
101685.255
101685.284
101685.316
101685.349
101685.385
101685.423
101685.463
101685.506
101685.551
101685.599
101685.649
101685.702
101685.758
101685.816
101685.878
101685.943
101686.012
101686.084
101686.16
101686.24
101686.325
101686.414
101686.507
101686.606
101686.71
101686.819
101686.935
101687.057
101687.186
101687.322
101687.466
101687.619
101687.78
101687.95
101688.13
101688.319
101688.52
101688.732
101688.955
101689.191
101689.439
101689.701
101689.976
101690.266
101690.571
101690.892
101691.229
101691.583
101691.955
101692.344
101692.751
101693.173
101693.609
101694.054
101694.503
101694.949
101695.381
101695.786
101696.152
101696.45
101696.67
101696.815
101696.788
101696.573
101686.223
101686.225
101686.227
101686.231
101686.236
101686.243
101686.251
101686.261
101686.272
101686.285
101686.3
101686.315
101686.333
101686.352
101686.373
101686.396
101686.42
101686.446
101686.474
101686.504
101686.536
101686.57
101686.606
101686.644
101686.685
101686.727
101686.772
101686.82
101686.87
101686.923
101686.979
101687.038
101687.101
101687.167
101687.236
101687.31
101687.388
101687.47
101687.557
101687.648
101687.746
101687.848
101687.957
101688.072
101688.194
101688.324
101688.461
101688.606
101688.76
101688.925
101689.1
101689.286
101689.483
101689.693
101689.915
101690.151
101690.402
101690.668
101690.949
101691.248
101691.565
101691.9
101692.255
101692.63
101693.028
101693.448
101693.891
101694.357
101694.845
101695.352
101695.875
101696.409
101696.948
101697.48
101697.994
101698.47
101698.889
101699.218
101699.471
101699.534
101687.23
101687.23
101687.231
101687.233
101687.237
101687.241
101687.247
101687.255
101687.263
101687.274
101687.285
101687.298
101687.312
101687.328
101687.346
101687.365
101687.386
101687.408
101687.432
101687.458
101687.485
101687.515
101687.546
101687.58
101687.616
101687.653
101687.693
101687.736
101687.781
101687.829
101687.878
101687.931
101687.988
101688.047
101688.111
101688.177
101688.248
101688.323
101688.402
101688.486
101688.576
101688.671
101688.771
101688.878
101688.991
101689.111
101689.238
101689.373
101689.522
101689.686
101689.861
101690.047
101690.245
101690.456
101690.682
101690.923
101691.181
101691.455
101691.748
101692.06
101692.39
101692.741
101693.111
101693.502
101693.916
101694.359
101694.829
101695.328
101695.856
101696.411
101696.994
101697.599
101698.223
101698.856
101699.487
101700.095
101700.659
101701.141
101701.522
101701.711
101688.077
101688.075
101688.074
101688.074
101688.075
101688.077
101688.08
101688.085
101688.091
101688.098
101688.107
101688.117
101688.128
101688.141
101688.155
101688.171
101688.188
101688.206
101688.227
101688.248
101688.272
101688.297
101688.324
101688.353
101688.384
101688.417
101688.452
101688.488
101688.526
101688.568
101688.613
101688.66
101688.71
101688.763
101688.819
101688.879
101688.942
101689.01
101689.082
101689.16
101689.243
101689.334
101689.431
101689.537
101689.651
101689.773
101689.904
101690.043
101690.188
101690.338
101690.5
101690.676
101690.864
101691.067
101691.285
101691.518
101691.768
101692.036
101692.321
101692.626
101692.95
101693.292
101693.656
101694.04
101694.486
101694.992
101695.517
101696.067
101696.646
101697.253
101697.886
101698.547
101699.232
101699.94
101700.658
101701.369
101702.045
101702.64
101703.09
101703.355
101688.758
101688.753
101688.749
101688.746
101688.744
101688.743
101688.743
101688.745
101688.747
101688.751
101688.756
101688.763
101688.77
101688.779
101688.79
101688.802
101688.815
101688.829
101688.845
101688.863
101688.882
101688.902
101688.924
101688.948
101688.973
101688.999
101689.029
101689.061
101689.095
101689.13
101689.168
101689.207
101689.25
101689.295
101689.343
101689.394
101689.449
101689.507
101689.569
101689.636
101689.707
101689.783
101689.865
101689.953
101690.049
101690.154
101690.27
101690.397
101690.534
101690.682