/*--------------------------------*- C++ -*----------------------------------*\
  =========                 |
  \\      /  F ield         | OpenFOAM: The Open Source CFD Toolbox
   \\    /   O peration     | Website:  https://openfoam.org
    \\  /    A nd           | Version:  8
     \\/     M anipulation  |
\*---------------------------------------------------------------------------*/
FoamFile
{
    version     2.0;
    format      ascii;
    class       volScalarField;
    location    "0.081";
    object      p_rgh;
}
// * * * * * * * * * * * * * * * * * * * * * * * * * * * * * * * * * * * * * //

dimensions      [1 -1 -2 0 0 0 0];

internalField   nonuniform List<scalar> 
42400
(
101688.928
101688.915
101688.901
101688.889
101688.877
101688.867
101688.858
101688.85
101688.843
101688.837
101688.832
101688.829
101688.826
101688.826
101688.826
101688.828
101688.83
101688.835
101688.84
101688.847
101688.854
101688.863
101688.874
101688.885
101688.897
101688.91
101688.925
101688.94
101688.956
101688.973
101688.99
101689.009
101689.028
101689.048
101689.068
101689.089
101689.111
101689.133
101689.165
101689.208
101689.258
101689.313
101689.347
101689.356
101689.361
101689.368
101689.393
101689.439
101689.49
101689.544
101689.598
101689.65
101689.698
101689.777
101689.884
101690.011
101690.107
101690.16
101690.244
101690.375
101690.534
101690.692
101690.857
101691.044
101691.251
101691.472
101691.702
101691.933
101692.362
101692.81
101692.609
101693.277
101694.641
101693.956
101692.397
101691.388
101694.62
101700.418
101700.621
101702.502
101688.223
101688.213
101688.202
101688.191
101688.182
101688.174
101688.167
101688.161
101688.156
101688.152
101688.149
101688.148
101688.147
101688.148
101688.15
101688.153
101688.158
101688.164
101688.17
101688.179
101688.188
101688.198
101688.21
101688.222
101688.236
101688.251
101688.266
101688.283
101688.3
101688.318
101688.337
101688.357
101688.377
101688.398
101688.418
101688.446
101688.485
101688.527
101688.562
101688.577
101688.581
101688.584
101688.602
101688.636
101688.672
101688.709
101688.747
101688.784
101688.814
101688.859
101688.935
101689.032
101689.098
101689.118
101689.159
101689.238
101689.342
101689.441
101689.541
101689.653
101689.783
101689.934
101690.099
101690.282
101690.481
101690.701
101690.941
101691.128
101691.499
101692.224
101692.33
101692.66
101693.698
101693.464
101693.571
101697.186
101700.299
101701.583
101702.375
101702.984
101687.385
101687.377
101687.368
101687.36
101687.353
101687.348
101687.343
101687.339
101687.336
101687.334
101687.334
101687.334
101687.336
101687.339
101687.343
101687.349
101687.355
101687.364
101687.373
101687.384
101687.396
101687.409
101687.424
101687.439
101687.456
101687.474
101687.494
101687.514
101687.536
101687.557
101687.58
101687.606
101687.637
101687.673
101687.711
101687.741
101687.758
101687.771
101687.786
101687.813
101687.848
101687.885
101687.921
101687.958
101687.993
101688.019
101688.067
101688.152
101688.235
101688.25
101688.253
101688.302
101688.376
101688.448
101688.517
101688.588
101688.671
101688.766
101688.872
101688.992
101689.123
101689.27
101689.447
101689.666
101689.919
101690.184
101690.463
101690.762
101691.055
101691.872
101692.283
101692.565
101695.487
101698.78
101700.088
101699.447
101699.112
101700.534
101702.417
101703.679
101686.434
101686.427
101686.42
101686.414
101686.409
101686.405
101686.402
101686.4
101686.399
101686.4
101686.401
101686.404
101686.408
101686.414
101686.421
101686.43
101686.44
101686.451
101686.464
101686.479
101686.495
101686.513
101686.533
101686.554
101686.576
101686.6
101686.625
101686.652
101686.681
101686.714
101686.75
101686.784
101686.813
101686.841
101686.868
101686.9
101686.938
101686.98
101687.023
101687.065
101687.109
101687.15
101687.184
101687.235
101687.319
101687.374
101687.391
101687.426
101687.487
101687.554
101687.611
101687.666
101687.727
101687.795
101687.867
101687.945
101688.032
101688.13
101688.24
101688.37
101688.535
101688.726
101688.952
101689.228
101689.595
101689.996
101690.383
101690.813
101690.975
101691.665
101695.03
101697.22
101696.598
101696.424
101697.98
101698.766
101699.758
101701.142
101703.044
101704.408
101685.372
101685.366
101685.36
101685.355
101685.351
101685.348
101685.346
101685.346
101685.347
101685.349
101685.353
101685.358
101685.365
101685.374
101685.384
101685.396
101685.411
101685.427
101685.444
101685.464
101685.486
101685.51
101685.535
101685.561
101685.59
101685.621
101685.656
101685.692
101685.729
101685.767
101685.805
101685.846
101685.892
101685.94
101685.989
101686.038
101686.089
101686.141
101686.192
101686.236
101686.294
101686.381
101686.441
101686.467
101686.515
101686.581
101686.644
101686.704
101686.763
101686.826
101686.89
101686.956
101687.026
101687.101
101687.186
101687.283
101687.391
101687.516
101687.663
101687.834
101688.055
101688.324
101688.682
101689.077
101689.683
101690.229
101690.849
101691.901
101694.308
101695.898
101695.541
101695.907
101696.685
101697.515
101698.808
101699.971
101701.095
101702.631
101703.93
101705.036
101684.186
101684.18
101684.174
101684.169
101684.166
101684.164
101684.163
101684.164
101684.166
101684.17
101684.176
101684.184
101684.194
101684.206
101684.22
101684.236
101684.255
101684.276
101684.298
101684.322
101684.348
101684.378
101684.412
101684.45
101684.49
101684.532
101684.576
101684.623
101684.672
101684.724
101684.777
101684.832
101684.889
101684.947
101685.007
101685.066
101685.119
101685.186
101685.277
101685.344
101685.384
101685.445
101685.521
101685.591
101685.658
101685.726
101685.794
101685.862
101685.931
101686.004
101686.081
101686.165
101686.258
101686.364
101686.483
101686.622
101686.785
101686.972
101687.187
101687.435
101687.748
101688.092
101688.555
101688.772
101689.375
101691.351
101693.225
101694.293
101694.358
101694.446
101695.204
101696.473
101697.562
101698.707
101700.188
101701.414
101702.207
101703.031
101704.247
101704.998
101682.842
101682.836
101682.83
101682.825
101682.822
101682.821
101682.822
101682.824
101682.828
101682.834
101682.843
101682.854
101682.867
101682.883
101682.901
101682.921
101682.944
101682.97
101683.001
101683.036
101683.073
101683.113
101683.155
101683.2
101683.248
101683.299
101683.353
101683.409
101683.468
101683.53
101683.595
101683.661
101683.724
101683.791
101683.87
101683.966
101684.036
101684.087
101684.16
101684.246
101684.325
101684.402
101684.479
101684.556
101684.633
101684.711
101684.792
101684.876
101684.965
101685.061
101685.167
101685.287
101685.422
101685.578
101685.758
101685.965
101686.205
101686.484
101686.805
101687.168
101687.579
101687.993
101688.949
101691.119
101692.507
101692.517
101692.539
101692.979
101693.753
101695.131
101696.296
101697.493
101698.948
101700.039
101700.737
101701.569
101702.712
101703.822
101705.382
101706.548
101681.311
101681.304
101681.298
101681.295
101681.293
101681.293
101681.295
101681.3
101681.306
101681.315
101681.326
101681.339
101681.356
101681.376
101681.4
101681.427
101681.458
101681.491
101681.527
101681.567
101681.61
101681.657
101681.707
101681.76
101681.817
101681.878
101681.941
101682.008
101682.076
101682.144
101682.22
101682.314
101682.401
101682.469
101682.543
101682.629
101682.722
101682.809
101682.896
101682.983
101683.071
101683.16
101683.25
101683.342
101683.437
101683.536
101683.641
101683.755
101683.881
101684.024
101684.186
101684.372
101684.588
101684.837
101685.124
101685.466
101685.866
101686.335
101686.817
101687.344
101688.32
101690.012
101691.046
101691.223
101691.562
101692.099
101692.963
101694.157
101695.502
101696.978
101698.017
101698.652
101699.432
101700.214
101701.198
101702.501
101703.639
101704.782
101706.427
101708.076
101679.533
101679.528
101679.524
101679.521
101679.521
101679.524
101679.528
101679.536
101679.546
101679.56
101679.577
101679.597
101679.62
101679.646
101679.676
101679.709
101679.745
101679.786
101679.83
101679.878
101679.93
101679.985
101680.045
101680.108
101680.175
101680.245
101680.315
101680.394
101680.487
101680.571
101680.642
101680.728
101680.823
101680.919
101681.014
101681.11
101681.207
101681.306
101681.405
101681.507
101681.61
101681.717
101681.827
101681.943
101682.067
101682.201
101682.349
101682.515
101682.704
101682.918
101683.163
101683.443
101683.759
101684.131
101684.545
101685.036
101685.551
101686.207
101687.233
101688.544
101689.469
101689.738
101690.083
101690.775
101691.841
101692.872
101693.921
101695.2
101696.336
101697.143
101697.915
101698.92
101700.059
101701.432
101703.114
101704.543
101705.925
101707.427
101708.928
101710.281
101677.483
101677.48
101677.478
101677.478
101677.481
101677.488
101677.497
101677.509
101677.524
101677.543
101677.564
101677.59
101677.619
101677.652
101677.689
101677.73
101677.775
101677.824
101677.877
101677.935
101677.996
101678.062
101678.132
101678.202
101678.281
101678.373
101678.458
101678.535
101678.625
101678.725
101678.823
101678.923
101679.025
101679.13
101679.237
101679.346
101679.457
101679.572
101679.69
101679.813
101679.941
101680.077
101680.222
101680.38
101680.554
101680.747
101680.965
101681.21
101681.486
101681.797
101682.143
101682.543
101682.99
101683.517
101684.012
101684.598
101685.799
101687.322
101688.182
101688.392
101688.594
101689.237
101690.292
101691.349
101692.403
101693.491
101694.63
101695.628
101696.527
101697.731
101699.059
101700.357
101701.617
101702.88
101704.312
101705.797
101707.597
101709.085
101710.584
101711.982
101675.112
101675.112
101675.114
101675.119
101675.127
101675.138
101675.152
101675.17
101675.191
101675.216
101675.245
101675.279
101675.316
101675.358
101675.403
101675.453
101675.508
101675.567
101675.631
101675.699
101675.769
101675.847
101675.936
101676.022
101676.102
101676.195
101676.295
101676.397
101676.5
101676.607
101676.718
101676.831
101676.948
101677.068
101677.192
101677.321
101677.455
101677.595
101677.743
101677.902
101678.074
101678.261
101678.468
101678.698
101678.956
101679.245
101679.57
101679.931
101680.328
101680.766
101681.234
101681.743
101682.284
101683.086
101684.545
101685.959
101686.493
101686.583
101687.01
101687.658
101688.534
101689.625
101690.707
101691.74
101692.781
101694.122
101695.357
101696.527
101697.721
101698.883
101700.131
101701.411
101702.834
101704.141
101705.305
101706.707
101708.2
101709.756
101711.578
101713.227
101672.375
101672.38
101672.387
101672.398
101672.412
101672.43
101672.451
101672.477
101672.506
101672.54
101672.578
101672.62
101672.668
101672.719
101672.776
101672.837
101672.902
101672.972
101673.048
101673.134
101673.219
101673.302
101673.395
101673.496
101673.599
101673.704
101673.814
101673.928
101674.046
101674.167
101674.293
101674.423
101674.558
101674.699
101674.847
101675.004
101675.171
101675.351
101675.547
101675.762
101676
101676.266
101676.564
101676.899
101677.277
101677.702
101678.177
101678.709
101679.3
101679.952
101680.641
101681.394
101682.693
101683.701
101683.994
101684.301
101684.926
101685.884
101687.008
101688.228
101689.456
101690.696
101692.136
101693.178
101693.889
101694.816
101695.828
101696.826
101698.084
101699.514
101700.936
101702.358
101703.67
101704.906
101706.17
101707.35
101708.527
101710.319
101712.46
101714.288
101669.228
101669.239
101669.254
101669.272
101669.294
101669.32
101669.35
101669.385
101669.424
101669.468
101669.516
101669.569
101669.628
101669.69
101669.759
101669.836
101669.916
101669.996
101670.083
101670.176
101670.276
101670.379
101670.486
101670.597
101670.713
101670.833
101670.957
101671.087
101671.221
101671.36
101671.506
101671.658
101671.82
101671.991
101672.176
101672.375
101672.593
101672.833
101673.099
101673.394
101673.724
101674.093
101674.505
101674.964
101675.472
101676.03
101676.638
101677.297
101677.997
101678.872
101679.992
101681.247
101682.013
101682.429
101683.243
101684.289
101685.353
101686.606
101687.946
101689.186
101690.222
101691.139
101691.968
101692.842
101693.939
101694.92
101695.699
101696.738
101698.282
101700.008
101701.802
101703.582
101705.289
101706.902
101708.638
101710.575
101712.411
101713.998
101715.456
101716.518
101665.627
101665.646
101665.67
101665.698
101665.73
101665.766
101665.807
101665.853
101665.903
101665.958
101666.019
101666.085
101666.158
101666.234
101666.314
101666.4
101666.494
101666.591
101666.693
101666.8
101666.912
101667.029
101667.151
101667.277
101667.409
101667.546
101667.689
101667.838
101667.995
101668.16
101668.336
101668.525
101668.729
101668.951
101669.194
101669.463
101669.76
101670.092
101670.462
101670.873
101671.331
101671.839
101672.4
101673.013
101673.675
101674.382
101675.138
101676.002
101677.245
101678.546
101679.535
101680.093
101680.76
101681.893
101683.203
101684.383
101685.586
101686.732
101687.552
101688.321
101689.313
101690.494
101691.732
101693.066
101694.691
101696.379
101697.995
101699.626
101701.029
101702.266
101703.483
101704.731
101706.27
101708.122
101709.945
101711.825
101713.586
101714.997
101716.251
101717.742
101661.532
101661.561
101661.597
101661.636
101661.679
101661.728
101661.781
101661.839
101661.903
101661.973
101662.047
101662.126
101662.211
101662.302
101662.398
101662.5
101662.606
101662.718
101662.835
101662.958
101663.086
101663.219
101663.358
101663.504
101663.657
101663.817
101663.987
101664.167
101664.36
101664.568
101664.794
101665.042
101665.314
101665.616
101665.951
101666.325
101666.742
101667.205
101667.72
101668.29
101668.918
101669.605
101670.351
101671.146
101671.993
101672.902
101674.167
101675.76
101676.726
101677.239
101677.856
101678.842
101680.061
101681.347
101682.589
101683.864
101685.147
101686.231
101687.494
101688.888
101690.359
101691.823
101693.345
101694.764
101696.084
101697.522
101699.087
101700.586
101702.001
101703.343
101704.532
101705.589
101707.024
101709.082
101711.195
101713.145
101715.297
101716.841
101717.968
101719.874
101656.921
101656.962
101657.011
101657.064
101657.121
101657.183
101657.251
101657.323
101657.401
101657.484
101657.573
101657.668
101657.768
101657.873
101657.984
101658.101
101658.223
101658.351
101658.485
101658.626
101658.773
101658.927
101659.089
101659.261
101659.443
101659.638
101659.848
101660.076
101660.325
101660.598
101660.9
101661.235
101661.607
101662.023
101662.485
101663
101663.572
101664.204
101664.899
101665.661
101666.488
101667.385
101668.332
101669.342
101670.486
101671.996
101673.124
101673.687
101674.548
101675.841
101677.197
101678.558
101679.931
101681.462
101682.68
101683.759
101684.952
101686.257
101687.763
101689.236
101690.679
101692.196
101693.706
101695.316
101696.735
101698.031
101699.851
101701.506
101702.645
101704.112
101706.065
101707.94
101710.022
101712.208
101713.915
101715.25
101716.797
101718.38
101719.894
101721.862
101651.79
101651.845
101651.91
101651.978
101652.05
101652.128
101652.21
101652.298
101652.392
101652.491
101652.595
101652.706
101652.822
101652.944
101653.072
101653.206
101653.347
101653.494
101653.65
101653.813
101653.987
101654.171
101654.367
101654.578
101654.807
101655.056
101655.328
101655.628
101655.96
101656.328
101656.737
101657.192
101657.697
101658.257
101658.875
101659.555
101660.298
101661.106
101661.977
101662.915
101663.898
101664.944
101666.011
101667.429
101669.233
101670.213
101671.09
101672.363
101673.665
101674.859
101676.418
101678.308
101679.713
101681.043
101682.472
101683.717
101684.817
101686.044
101687.501
101688.964
101690.575
101692.431
101694.23
101695.975
101697.691
101699.395
101701.076
101702.694
101704.595
101706.398
101708.212
101710.36
101711.83
101713.394
101715.344
101716.879
101718.454
101720.833
101723.054
101724.526
101646.17
101646.24
101646.323
101646.407
101646.495
101646.589
101646.687
101646.791
101646.901
101647.016
101647.137
101647.264
101647.397
101647.537
101647.685
101647.84
101648.003
101648.177
101648.361
101648.559
101648.77
101649
101649.249
101649.521
101649.821
101650.152
101650.519
101650.927
101651.381
101651.885
101652.444
101653.062
101653.743
101654.489
101655.301
101656.178
101657.12
101658.122
101659.164
101660.261
101661.446
101663.021
101665.033
101666.604
101667.389
101668.319
101669.761
101671.221
101672.696
101674.22
101675.732
101677.172
101678.575
101679.763
101681.45
101683.626
101685.325
101686.969
101688.662
101690.386
101692.087
101693.663
101695.3
101696.999
101698.765
101700.692
101702.33
101704.018
101705.928
101707.698
101709.286
101711.431
101714.065
101715.391
101716.65
101718.819
101720.807
101723.005
101725.14
101726.74
101640.118
101640.205
101640.305
101640.406
101640.511
101640.621
101640.736
101640.856
101640.982
101641.114
101641.253
101641.399
101641.553
101641.715
101641.887
101642.07
101642.266
101642.476
101642.704
101642.951
101643.222
101643.519
101643.848
101644.214
101644.62
101645.073
101645.578
101646.139
101646.764
101647.455
101648.217
101649.052
101649.963
101650.949
101652.009
101653.14
101654.337
101655.575
101656.849
101658.484
101660.543
101661.947
101662.94
101664.196
101665.954
101667.778
101669.275
101670.746
101672.508
101674.541
101676.069
101677.201
101678.845
101680.929
101682.573
101683.9
101685.34
101686.964
101688.649
101690.373
101692.135
101693.995
101696.023
101697.898
101699.727
101701.772
101703.818
101705.697
101707.648
101709.816
101712.375
101714.295
101715.623
101717.191
101719.632
101721.604
101723.178
101725.003
101726.513
101728.855
101633.764
101633.866
101633.983
101634.101
101634.221
101634.346
101634.477
101634.612
101634.755
101634.904
101635.061
101635.227
101635.404
101635.593
101635.795
101636.015
101636.253
101636.514
101636.802
101637.12
101637.474
101637.869
101638.311
101638.806
101639.36
101639.98
101640.671
101641.44
101642.292
101643.232
101644.263
101645.388
101646.609
101647.929
101649.347
101650.862
101652.474
101654.166
101656.043
101657.691
101658.932
101660.319
101661.773
101663.073
101664.38
101665.942
101667.823
101670.033
101672.354
101674.123
101675.812
101677.437
101678.841
101680.125
101681.412
101683.208
101685.495
101687.689
101690.179
101693.159
101695.512
101697.207
101698.626
101700.235
101702.121
101703.768
101705.413
101707.544
101710.066
101712.293
101714.409
101716.315
101717.865
101719.215
101721.033
101723.046
101724.887
101726.454
101728.335
101730.912
101663.767
101663.769
101663.772
101663.777
101663.784
101663.792
101663.802
101663.814
101663.828
101663.844
101663.862
101663.882
101663.904
101663.928
101663.954
101663.983
101664.014
101664.047
101664.083
101664.122
101664.163
101664.207
101664.254
101664.304
101664.358
101664.415
101664.475
101664.539
101664.607
101664.679
101664.755
101664.835
101664.921
101665.01
101665.105
101665.205
101665.311
101665.422
101665.539
101665.665
101665.799
101665.942
101666.093
101666.249
101666.414
101666.588
101666.773
101666.967
101667.171
101667.385
101667.61
101667.845
101668.091
101668.345
101668.609
101668.879
101669.154
101669.435
101669.719
101670.004
101670.285
101670.554
101670.803
101671.037
101671.257
101671.428
101671.46
101671.301
101671.016
101670.655
101670.223
101669.678
101668.899
101667.862
101667.009
101666.681
101666.29
101665.383
101664.566
101664.021
101667.165
101667.168
101667.172
101667.177
101667.185
101667.194
101667.206
101667.219
101667.235
101667.252
101667.272
101667.294
101667.318
101667.344
101667.373
101667.404
101667.438
101667.474
101667.513
101667.555
101667.6
101667.648
101667.699
101667.753
101667.811
101667.872
101667.936
101668.005
101668.078
101668.155
101668.236
101668.322
101668.412
101668.508
101668.609
101668.716
101668.828
101668.946
101669.07
101669.201
101669.337
101669.481
101669.632
101669.794
101669.968
101670.153
101670.348
101670.55
101670.761
101670.982
101671.215
101671.461
101671.717
101671.983
101672.258
101672.543
101672.837
101673.139
101673.446
101673.754
101674.055
101674.344
101674.611
101674.848
101675.042
101675.178
101675.257
101675.275
101675.216
101675.044
101674.74
101674.297
101673.721
101673.154
101672.804
101672.414
101672.15
101671.965
101671.199
101670.279
101670.312
101670.314
101670.319
101670.325
101670.333
101670.344
101670.356
101670.37
101670.387
101670.406
101670.427
101670.45
101670.475
101670.503
101670.534
101670.567
101670.602
101670.64
101670.681
101670.725
101670.772
101670.822
101670.875
101670.931
101670.991
101671.055
101671.122
101671.193
101671.268
101671.347
101671.431
101671.52
101671.613
101671.711
101671.814
101671.923
101672.038
101672.158
101672.285
101672.419
101672.558
101672.705
101672.857
101673.018
101673.185
101673.359
101673.54
101673.732
101673.938
101674.158
101674.393
101674.637
101674.886
101675.144
101675.412
101675.691
101675.983
101676.288
101676.603
101676.924
101677.25
101677.577
101677.905
101678.228
101678.532
101678.797
101679.006
101679.145
101679.218
101679.231
101679.181
101679.051
101678.824
101678.476
101678.143
101677.557
101676.34
101675.883
101676.138
101675.699
101673.194
101673.197
101673.202
101673.209
101673.218
101673.229
101673.242
101673.257
101673.274
101673.293
101673.315
101673.339
101673.365
101673.393
101673.425
101673.458
101673.494
101673.533
101673.575
101673.62
101673.667
101673.718
101673.772
101673.829
101673.889
101673.953
101674.021
101674.093
101674.169
101674.248
101674.333
101674.421
101674.515
101674.613
101674.716
101674.825
101674.939
101675.059
101675.186
101675.318
101675.458
101675.604
101675.758
101675.919
101676.088
101676.263
101676.446
101676.637
101676.837
101677.044
101677.258
101677.477
101677.706
101677.949
101678.204
101678.475
101678.759
101679.057
101679.366
101679.681
101679.994
101680.293
101680.575
101680.843
101681.12
101681.429
101681.77
101682.103
101682.341
101682.486
101682.515
101682.457
101682.304
101682.039
101681.628
101681.137
101680.584
101679.642
101678.445
101678.052
101675.81
101675.814
101675.819
101675.826
101675.835
101675.846
101675.859
101675.874
101675.892
101675.911
101675.933
101675.957
101675.983
101676.012
101676.043
101676.077
101676.113
101676.152
101676.193
101676.238
101676.285
101676.335
101676.389
101676.445
101676.505
101676.569
101676.636
101676.706
101676.781
101676.86
101676.942
101677.029
101677.121
101677.217
101677.319
101677.425
101677.537
101677.654
101677.777
101677.906
101678.041
101678.183
101678.332
101678.488
101678.652
101678.824
101679.003
101679.192
101679.389
101679.594
101679.807
101680.028
101680.26
101680.503
101680.756
101681.019
101681.29
101681.569
101681.854
101682.145
101682.442
101682.747
101683.052
101683.349
101683.626
101683.875
101684.084
101684.268
101684.447
101684.631
101684.861
101685.105
101685.209
101685.024
101684.668
101684.144
101683.527
101682.988
101682.44
101681.277
101678.161
101678.164
101678.17
101678.177
101678.186
101678.197
101678.21
101678.225
101678.242
101678.262
101678.283
101678.307
101678.333
101678.361
101678.391
101678.424
101678.46
101678.498
101678.538
101678.582
101678.628
101678.677
101678.729
101678.784
101678.842
101678.903
101678.968
101679.037
101679.109
101679.185
101679.265
101679.349
101679.438
101679.53
101679.628
101679.73
101679.838
101679.95
101680.069
101680.193
101680.322
101680.459
101680.601
101680.751
101680.908
101681.072
101681.244
101681.424
101681.613
101681.81
101682.017
101682.234
101682.461
101682.698
101682.944
101683.199
101683.461
101683.731
101684.007
101684.289
101684.577
101684.873
101685.18
101685.495
101685.812
101686.114
101686.385
101686.605
101686.8
101686.942
101687.008
101686.966
101686.971
101687.083
101687.212
101687.184
101686.826
101686.231
101685.644
101685.306
101680.253
101680.257
101680.262
101680.269
101680.278
101680.289
101680.302
101680.317
101680.333
101680.352
101680.373
101680.396
101680.421
101680.448
101680.477
101680.509
101680.543
101680.58
101680.619
101680.66
101680.704
101680.751
101680.801
101680.854
101680.91
101680.968
101681.03
101681.096
101681.165
101681.237
101681.313
101681.394
101681.478
101681.566
101681.659
101681.756
101681.858
101681.966
101682.078
101682.196
101682.32
101682.449
101682.585
101682.728
101682.877
101683.033
101683.197
101683.369
101683.549
101683.737
101683.934
101684.14
101684.355
101684.578
101684.812
101685.054
101685.306
101685.567
101685.838
101686.118
101686.407
101686.705
101687.012
101687.325
101687.643
101687.963
101688.279
101688.59
101688.873
101689.123
101689.286
101689.355
101689.336
101689.244
101688.986
101688.707
101688.5
101688.246
101687.914
101687.711
101682.099
101682.102
101682.107
101682.114
101682.123
101682.133
101682.145
101682.159
101682.175
101682.193
101682.212
101682.234
101682.258
101682.283
101682.311
101682.341
101682.373
101682.408
101682.445
101682.484
101682.526
101682.57
101682.617
101682.666
101682.719
101682.774
101682.833
101682.894
101682.959
101683.027
101683.099
101683.175
101683.254
101683.337
101683.424
101683.516
101683.612
101683.713
101683.819
101683.93
101684.047
101684.169
101684.298
101684.433
101684.574
101684.723
101684.879
101685.042
101685.213
101685.393
101685.581
101685.779
101685.985
101686.201
101686.427
101686.662
101686.908
101687.165
101687.431
101687.709
101687.997
101688.297
101688.607
101688.927
101689.256
101689.592
101689.93
101690.267
101690.597
101690.91
101691.197
101691.445
101691.62
101691.647
101691.509
101691.253
101690.946
101690.53
101689.922
101689.509
101683.712
101683.715
101683.719
101683.725
101683.733
101683.743
101683.754
101683.767
101683.781
101683.798
101683.816
101683.836
101683.858
101683.882
101683.908
101683.936
101683.966
101683.998
101684.032
101684.068
101684.107
101684.148
101684.192
101684.238
101684.286
101684.338
101684.392
101684.449
101684.509
101684.573
101684.639
101684.709
101684.783
101684.86
101684.941
101685.027
101685.117
101685.211
101685.31
101685.414
101685.524
101685.639
101685.76
101685.888
101686.022
101686.163
101686.311
101686.467
101686.632
101686.805
101686.986
101687.177
101687.378
101687.589
101687.811
101688.043
101688.287
101688.542
101688.809
101689.089
101689.381
101689.687
101690.006
101690.339
101690.685
101691.043
101691.411
101691.786
101692.164
101692.539
101692.903
101693.248
101693.554
101693.808
101694
101694.093
101693.991
101693.738
101693.403
101692.926
101685.107
101685.11
101685.113
101685.119
101685.125
101685.134
101685.144
101685.155
101685.168
101685.183
101685.199
101685.217
101685.237
101685.259
101685.282
101685.308
101685.335
101685.364
101685.395
101685.428
101685.463
101685.501
101685.541
101685.583
101685.627
101685.674
101685.723
101685.776
101685.831
101685.888
101685.949
101686.013
101686.081
101686.153
101686.227
101686.306
101686.389
101686.477
101686.569
101686.666
101686.768
101686.876
101686.99
101687.111
101687.238
101687.372
101687.514
101687.664
101687.823
101687.99
101688.167
101688.355
101688.552
101688.761
101688.981
101689.214
101689.459
101689.716
101689.988
101690.274
101690.575
101690.891
101691.223
101691.572
101691.938
101692.322
101692.723
101693.139
101693.568
101694.007
101694.449
101694.886
101695.31
101695.706
101696.06
101696.345
101696.547
101696.665
101696.632
101696.373
101686.306
101686.307
101686.31
101686.314
101686.319
101686.326
101686.334
101686.344
101686.355
101686.367
101686.382
101686.397
101686.415
101686.434
101686.454
101686.477
101686.501
101686.526
101686.554
101686.583
101686.615
101686.648
101686.684
101686.721
101686.761
101686.803
101686.847
101686.894
101686.944
101686.996
101687.051
101687.109
101687.171
101687.235
101687.303
101687.376
101687.453
101687.533
101687.619
101687.709
101687.805
101687.906
101688.013
101688.126
101688.247
101688.374
101688.509
101688.652
101688.804
101688.967
101689.139
101689.322
101689.517
101689.724
101689.943
101690.176
101690.423
101690.686
101690.964
101691.258
101691.571
101691.901
101692.251
101692.622
101693.014
101693.428
101693.865
101694.323
101694.802
101695.3
101695.814
101696.337
101696.863
101697.382
101697.881
101698.34
101698.739
101699.049
101699.282
101699.325
101687.316
101687.316
101687.317
101687.319
101687.323
101687.327
101687.333
101687.341
101687.349
101687.359
101687.371
101687.383
101687.397
101687.413
101687.43
101687.449
101687.469
101687.491
101687.515
101687.54
101687.568
101687.597
101687.628
101687.661
101687.696
101687.733
101687.772
101687.814
101687.858
101687.905
101687.954
101688.006
101688.061
101688.12
101688.182
101688.248
101688.317
101688.391
101688.469
101688.552
101688.639
101688.733
101688.831
101688.936
101689.048
101689.166
101689.292
101689.426
101689.575
101689.736
101689.908
101690.091
101690.287
101690.496
101690.719
101690.957
101691.212
101691.483
101691.772
101692.079
101692.405
101692.75
101693.114
101693.499
101693.909
101694.346
101694.809
101695.3
101695.819
101696.365
101696.936
101697.528
101698.138
101698.755
101699.367
101699.955
101700.497
101700.955
101701.311
101701.472
101688.168
101688.166
101688.165
101688.165
101688.166
101688.168
101688.171
101688.176
101688.182
101688.189
101688.197
101688.207
101688.218
101688.231
101688.245
101688.26
101688.277
101688.295
101688.315
101688.336
101688.359
101688.384
101688.411
101688.439
101688.47
101688.502
101688.536
101688.572
101688.609
101688.65
101688.695
101688.741
101688.79
101688.842
101688.897
101688.956
101689.019
101689.086
101689.157
101689.234
101689.316
101689.406
101689.502
101689.606
101689.718
101689.838
101689.966
101690.103
101690.245
101690.393
101690.555
101690.728
101690.915
101691.116
101691.332
101691.562
101691.81
101692.074
101692.356
101692.658
101692.977
101693.314
101693.672
101694.061
101694.509
101695.006
101695.522
101696.063
101696.632
101697.227
101697.849
101698.495
101699.164
101699.854
101700.552
101701.24
101701.893
101702.465
101702.895
101703.143
101688.855
101688.851
101688.847
101688.843
101688.842
101688.841
101688.841
101688.842
101688.845
101688.849
101688.854
101688.86
101688.867
101688.876
101688.886
101688.898
101688.911
101688.925
101688.941
101688.958
101688.977
101688.996
101689.018
101689.041
101689.066
101689.092
101689.121
101689.152
101689.185
101689.22
101689.257
101689.296
101689.338
101689.382
101689.429
101689.48
101689.533
101689.591
101689.652
101689.718
101689.788
101689.863
101689.944
101690.031
101690.127
101690.232
101690.347
101690.472