/*--------------------------------*- C++ -*----------------------------------*\
  =========                 |
  \\      /  F ield         | OpenFOAM: The Open Source CFD Toolbox
   \\    /   O peration     | Website:  https://openfoam.org
    \\  /    A nd           | Version:  8
     \\/     M anipulation  |
\*---------------------------------------------------------------------------*/
FoamFile
{
    version     2.0;
    format      ascii;
    class       surfaceScalarField;
    location    "0.081";
    object      phi;
}
// * * * * * * * * * * * * * * * * * * * * * * * * * * * * * * * * * * * * * //

dimensions      [1 0 -1 0 0 0 0];

internalField   nonuniform List<scalar> 
84340
(
-7.0682074e-08
3.81124498e-07
-3.10437623e-07
-2.81790408e-07
1.14589175e-06
-9.34775677e-07
-6.37056757e-07
1.93770396e-06
-1.58242819e-06
-1.14065746e-06
2.75808431e-06
-2.25447287e-06
-1.79727941e-06
3.60948845e-06
-2.95285479e-06
-2.6120124e-06
4.49513647e-06
-3.68039106e-06
-3.59030168e-06
5.41864461e-06
-4.44034244e-06
-4.73789859e-06
6.38355487e-06
-5.23594484e-06
-6.0607997e-06
7.39307971e-06
-6.07016551e-06
-7.56516994e-06
8.450012e-06
-6.94562895e-06
-9.2572499e-06
9.55672516e-06
-7.86463306e-06
-1.11432479e-05
1.07152055e-05
-8.82919639e-06
-1.32292215e-05
1.19270988e-05
-9.84111577e-06
-1.55209496e-05
1.31937616e-05
-1.09020261e-05
-1.80237909e-05
1.45163035e-05
-1.20134576e-05
-2.0742549e-05
1.58956382e-05
-1.31768792e-05
-2.36813152e-05
1.73325123e-05
-1.43937499e-05
-2.68433196e-05
1.88275335e-05
-1.56655387e-05
-3.02307637e-05
2.03811921e-05
-1.69937649e-05
-3.38446455e-05
2.19938682e-05
-1.8380012e-05
-3.76845711e-05
2.36658351e-05
-1.98259458e-05
-4.1748546e-05
2.53972526e-05
-2.13333266e-05
-4.60327391e-05
2.71881426e-05
-2.29040136e-05
-5.05312275e-05
2.90383648e-05
-2.45399581e-05
-5.52356923e-05
3.09475585e-05
-2.62431964e-05
-6.01350801e-05
3.29150811e-05
-2.80158201e-05
-6.52152237e-05
3.49399095e-05
-2.9859921e-05
-7.04584463e-05
3.70205223e-05
-3.17774871e-05
-7.58430373e-05
3.91547295e-05
-3.37703632e-05
-8.13426046e-05
4.1339431e-05
-3.58401309e-05
-8.69253197e-05
4.35703409e-05
-3.79879418e-05
-9.2553177e-05
4.58418157e-05
-4.02143292e-05
-9.81816546e-05
4.81470349e-05
-4.25189905e-05
-0.000103759833
5.04781261e-05
-4.49004514e-05
-0.000109229936
5.28251836e-05
-4.73556622e-05
-0.00011452329
5.51728356e-05
-4.98801528e-05
-0.000119552361
5.74973615e-05
-5.24690613e-05
-0.000124224852
5.97887325e-05
-5.51171189e-05
-0.000128451938
6.2039497e-05
-5.78134078e-05
-0.000132162947
6.42313613e-05
-6.05214935e-05
-0.000135222709
6.62908114e-05
-6.32323207e-05
-0.00013744235
6.81489849e-05
-6.59307559e-05
-0.0001385257
6.97108975e-05
-6.86291616e-05
-0.000138152893
7.09175952e-05
-7.12922456e-05
-0.000135997857
7.16689176e-05
-7.38260205e-05
-0.000131695774
7.18404301e-05
-7.61448512e-05
-0.000124887706
7.1289654e-05
-7.81003528e-05
-0.00011512689
6.98777535e-05
-7.96415254e-05
-0.000101855191
6.7415282e-05
-8.06902862e-05
-8.44436793e-05
6.36222319e-05
-8.10374411e-05
-6.23943806e-05
5.84496999e-05
-8.05031033e-05
-3.50812524e-05
5.15624973e-05
-7.88801944e-05
-2.29473417e-06
4.316304e-05
-7.59546056e-05
3.69835246e-05
3.20905808e-05
-7.13744493e-05
8.38584932e-05
1.82011426e-05
-6.50821592e-05
0.000139552361
8.96800371e-07
-5.65971584e-05
0.0002053821
-1.97274371e-05
-4.61093926e-05
0.000282911111
-4.52953915e-05
-3.22414138e-05
0.000373983396
-7.62891782e-05
-1.47914006e-05
0.000480216828
-0.000113213048
6.97085509e-06
0.000604084775
-0.000156757594
3.2880632e-05
0.000747283764
-0.000208157143
6.49489091e-05
0.000911907681
-0.000268495616
0.000103862575
0.00110093693
-0.000339230759
0.000150192762
0.00131719571
-0.000421135364
0.000204869162
0.001563498
-0.00051582332
0.000269515837
0.00184149598
-0.000623141903
0.000345141931
0.00214818838
-0.000740783938
0.000434092755
0.00249863802
-0.000899984155
0.000549539324
0.00290848561
-0.00106421206
0.000654372793
0.00331021495
-0.00116320621
0.000761488594
0.00369718172
-0.00139792688
0.00101097456
0.0042511476
-0.00172187477
0.00116792577
0.00490112718
-0.00177014209
0.00112018034
0.00535538193
-0.00184907362
0.00139483629
0.00568789959
-0.00227167728
0.0019391784
0.00615560964
-0.00262651904
0.00215882474
0.00688148977
-0.00273315819
0.0020072875
0.00744254488
-0.00273449101
0.00217345037
-0.0028765129
0.00261852852
0.00770054694
-5.78030517e-08
4.38948038e-07
-2.30120632e-07
1.31824053e-06
-5.19614916e-07
2.22723557e-06
-9.29412497e-07
3.16792447e-06
-1.46295936e-06
4.1430824e-06
-2.1241108e-06
5.15633896e-06
-2.91698198e-06
6.21157045e-06
-3.84588094e-06
7.31251181e-06
-4.91522861e-06
8.46248845e-06
-6.12946557e-06
9.66431287e-06
-7.49294246e-06
1.09202685e-05
-9.00979652e-06
1.22321283e-05
-1.06838133e-05
1.36011861e-05
-1.25182734e-05
1.50282934e-05
-1.45157968e-05
1.65138993e-05
-1.66781598e-05
1.80580734e-05
-1.90061144e-05
1.96605381e-05
-2.14991884e-05
2.13206764e-05
-2.41554644e-05
2.30375336e-05
-2.69713461e-05
2.48098103e-05
-2.99412975e-05
2.66358402e-05
-3.30575463e-05
2.85135465e-05
-3.63097656e-05
3.04403961e-05
-3.9684699e-05
3.2413319e-05
-4.31657351e-05
3.44285993e-05
-4.67324229e-05
3.64817543e-05
-5.03599109e-05
3.85673601e-05
-5.40183283e-05
4.06788757e-05
-5.76722076e-05
4.28085139e-05
-6.12799766e-05
4.49470698e-05
-6.47933245e-05
4.70835179e-05
-6.81555392e-05
4.92038135e-05
-7.1300874e-05
5.12921003e-05
-7.41573397e-05
5.33342625e-05
-7.66462088e-05
5.5313658e-05
-7.86874217e-05
5.72135852e-05
-8.01896383e-05
5.89990384e-05
-8.10118207e-05
6.06102841e-05
-8.09555718e-05
6.19825123e-05
-7.97779103e-05
6.3052851e-05
-7.72196659e-05
6.37315971e-05
-7.30054515e-05
6.39336515e-05
-6.68477882e-05
6.35519503e-05
-5.84075524e-05
6.24758977e-05
-4.73020188e-05
6.05617284e-05
-3.31170813e-05
5.76536168e-05
-1.53274592e-05
5.34979221e-05
6.56332193e-06
4.7984601e-05
3.2832248e-05
4.11437149e-05
6.37937986e-05
3.26577191e-05
0.000100666614
2.15736508e-05
0.000144372573
7.85300921e-06
0.000196015891
-8.4841927e-06
0.00025685229
-2.8750174e-05
0.000328376388
-5.33276727e-05
0.000411969379
-8.27013295e-05
0.000509612191
-0.000117375716
0.000622574134
-0.000158263169
0.000752519332
-0.000206240428
0.000901515186
-0.000262215213
0.00107193815
-0.00032718683
0.00126628222
-0.000402507397
0.00148712688
-0.000489345658
0.00173740845
-0.000589516507
0.00201880052
-0.000702529846
0.00233125524
-0.000828278754
0.00267683552
-0.00096872077
0.00304893409
-0.00111287903
0.00343713186
-0.001288176
0.00388736093
-0.00151443295
0.00439078063
-0.00166661535
0.00481988837
-0.00182702225
0.00522640469
-0.00212837709
0.0058134229
-0.00235714649
0.00639053814
-0.00242617555
0.00670361199
-0.00258473887
0.00686462941
-0.00278752543
0.00707668081
-0.00294519454
0.00740005944
-0.00305785618
-0.00315459733
0.00767815289
-4.5869407e-08
4.84834179e-07
-1.82009446e-07
1.45440583e-06
-4.09805921e-07
2.45506202e-06
-7.31039249e-07
3.48919183e-06
-1.14780169e-06
4.55988238e-06
-1.6622818e-06
5.67085977e-06
-2.27680664e-06
6.82613891e-06
-2.99384537e-06
8.02959698e-06
-3.81581236e-06
9.28450459e-06
-4.74495377e-06
1.05935061e-05
-5.78321919e-06
1.19585882e-05
-6.93211763e-06
1.33810834e-05
-8.19256019e-06
1.48616875e-05
-9.56468597e-06
1.64004799e-05
-1.10476719e-05
1.79969472e-05
-1.26395312e-05
1.96499957e-05
-1.43368846e-05
2.13579546e-05
-1.61347208e-05
2.31185751e-05
-1.80261246e-05
2.49289981e-05
-2.00019766e-05
2.67857203e-05
-2.20506188e-05
2.86845358e-05
-2.41574695e-05
3.06204447e-05
-2.63045797e-05
3.25875457e-05
-2.84700908e-05
3.45788594e-05
-3.0627646e-05
3.65861707e-05
-3.27458807e-05
3.85999897e-05
-3.47877345e-05
4.06091955e-05
-3.67095538e-05
4.26006542e-05
-3.84625458e-05
4.45614383e-05
-3.99916757e-05
4.6476101e-05
-4.12360486e-05
4.83277565e-05
-4.21319857e-05
5.00995766e-05
-4.26045382e-05
5.17644329e-05
-4.25472384e-05
5.32766901e-05
-4.18293225e-05
5.45954108e-05
-4.02773684e-05
5.56612345e-05
-3.76922975e-05
5.6413497e-05
-3.38598668e-05
5.67772993e-05
-2.85450557e-05
5.66670517e-05
-2.14766492e-05
5.59836885e-05
-1.23797223e-05
5.46338005e-05
-9.36336117e-07
5.24892686e-05
1.32061137e-05
4.94083683e-05
3.05067127e-05
4.51740155e-05
5.14004352e-05
3.966656e-05
7.60188007e-05
3.30336178e-05
0.000105143583
2.43713464e-05
0.000139523128
1.36031301e-05
0.000180027435
6.3730894e-07
0.000227697042
-1.50142701e-05
0.000283828569
-3.45605216e-05
0.000349552327
-5.78736568e-05
0.000426548473
-8.54834771e-05
0.000515841018
-0.000118046121
0.000618786738
-0.000156276995
0.000737000459
-0.000200918899
0.00087238358
-0.000252762818
0.00102678883
-0.000312672522
0.00120218735
-0.000381643011
0.0014009401
-0.000460972007
0.00162541229
-0.000551662539
0.00187737195
-0.000654469843
0.00215793852
-0.000769913992
0.00246843165
-0.000900010482
0.002809905
-0.00104400279
0.0031770703
-0.00119544247
0.00356754471
-0.00135919205
0.00398446731
-0.00152979701
0.0043988002
-0.00170250245
0.00481251494
-0.00192813966
0.0052899168
-0.00214400825
0.00574936443
-0.00228646016
0.00606056466
-0.00243956677
0.00631709068
-0.00261366111
0.00661564032
-0.00272471035
0.00686673327
-0.00283581869
0.00703227697
-0.00295305836
0.00715224591
-0.00306515126
0.00727111352
-0.00317671285
-0.00328193591
0.0073984607
-3.80170083e-08
5.2290577e-07
-1.49788246e-07
1.56625687e-06
-3.35237907e-07
2.64060503e-06
-5.9452744e-07
3.74858667e-06
-9.28135156e-07
4.89360609e-06
-1.33658409e-06
6.07943458e-06
-1.82032272e-06
7.31001284e-06
-2.37944313e-06
8.58886189e-06
-3.01399294e-06
9.91920802e-06
-3.72360922e-06
1.13032851e-05
-4.50736525e-06
1.27425161e-05
-5.36360926e-06
1.42375084e-05
-6.28977625e-06
1.57880444e-05
-7.2821903e-06
1.73930927e-05
-8.33584379e-06
1.90508079e-05
-9.44414748e-06
2.07585148e-05
-1.05986694e-05
2.25126994e-05
-1.17888325e-05
2.4308968e-05
-1.30015773e-05
2.61419787e-05
-1.42209326e-05
2.80053166e-05
-1.54275125e-05
2.98913606e-05
-1.65980034e-05
3.17911828e-05
-1.77047244e-05
3.36945148e-05
-1.87161833e-05
3.55905655e-05
-1.9596416e-05
3.74666477e-05
-2.03048204e-05
3.93086338e-05
-2.07958881e-05
4.11004944e-05
-2.101779e-05
4.28227767e-05
-2.09027068e-05
4.44465621e-05
-2.03700423e-05
4.59436269e-05
-1.93233314e-05
4.7281216e-05
-1.76424687e-05
4.84188617e-05
-1.51851599e-05
4.93072448e-05
-1.17940004e-05
4.98856201e-05
-7.28386601e-06
5.00853304e-05
-1.44674135e-06
4.98241235e-05
5.94670971e-06
4.9020014e-05
1.51446644e-05
4.75792614e-05
2.64247933e-05
4.53867827e-05
4.00967804e-05
4.23114983e-05
5.65655549e-05
3.81647541e-05
7.62444054e-05
3.28100685e-05
9.92877357e-05
2.63646075e-05
0.000126449144
1.80120955e-05
0.00015841449
7.70062021e-06
0.000195994121
-4.54671568e-06
0.00024007553
-1.97108724e-05
0.000291696229
-3.80184999e-05
0.000352200651
-5.98681651e-05
0.000422889679
-8.57044905e-05
0.000504464326
-0.000116136484
0.000598349621
-0.000151760411
0.000706097755
-0.000193233183
0.000829298723
-0.00024124879
0.000969606459
-0.00029658648
0.00112875055
-0.0003600648
0.00130853262
-0.00043254665
0.00151088209
-0.000515023707
0.00173743745
-0.000608199785
0.00198959661
-0.000713132228
0.0022685577
-0.000830624157
0.00257411746
-0.000960029676
0.00290450537
-0.0011003013
0.00325681334
-0.00125231726
0.003631168
-0.00141835541
0.0040216086
-0.00158588024
0.00441777471
-0.00175535422
0.00481865869
-0.00193067601
0.00521905899
-0.00210289689
0.00555486188
-0.00226393644
0.00583565058
-0.00242478934
0.00609850248
-0.00254930114
0.00632080217
-0.00266185533
0.00647678408
-0.00276963099
0.00662321674
-0.00287113084
0.00675523678
-0.00296782783
0.00686788171
-0.00306569345
0.00696682886
-0.00316409102
0.00705115296
-0.00326102464
-0.00336427121
0.00713349869
-3.51823179e-08
5.58129632e-07
-1.37189295e-07
1.66832472e-06
-3.04362715e-07
2.80784971e-06
-5.35142367e-07
3.97944681e-06
-8.28016777e-07
5.18656935e-06
-1.18153651e-06
6.43305104e-06
-1.59401228e-06
7.7225931e-06
-2.06331282e-06
9.05827473e-06
-2.58639949e-06
1.04424149e-05
-3.15976935e-06
1.18767834e-05
-3.7790115e-06
1.3361895e-05
-4.43860086e-06
1.48972431e-05
-5.13167797e-06
1.64812756e-05
-5.84980403e-06
1.81113818e-05
-6.58268741e-06
1.97838632e-05
-7.31787326e-06
2.14938812e-05
-8.04036977e-06
2.3235385e-05
-8.73225487e-06
2.50010503e-05
-9.37238232e-06
2.67823107e-05
-9.93657752e-06
2.85697232e-05
-1.03972089e-05
3.03522093e-05
-1.07228224e-05
3.21170179e-05
-1.08746596e-05
3.38465759e-05
-1.08070483e-05
3.55231797e-05
-1.04670749e-05
3.7126899e-05
-9.79252143e-06
3.86343024e-05
-8.70973604e-06
4.00179254e-05
-7.1314953e-06
4.12447443e-05
-4.95954119e-06
4.22748048e-05
-2.07676989e-06
4.30610376e-05
1.6562697e-06
4.35483397e-05
6.40349273e-06
4.367178e-05
1.23489912e-05
4.33618608e-05
1.96905351e-05
4.25441591e-05
2.86546771e-05
4.11212346e-05
3.94893264e-05
3.89894792e-05
5.24831478e-05
3.60261512e-05
6.79907384e-05
3.2071578e-05
8.63987569e-05
2.69786137e-05
0.000107882675
2.08273672e-05
0.000133149309
1.28978469e-05
0.000162822664
3.13637525e-06
0.000197612994
-8.42613657e-06
0.000238313114
-2.26885238e-05
0.000285842422
-3.98292693e-05
0.000341504755
-6.02097202e-05
0.000406073138
-8.42800138e-05
0.000480606545
-0.000112552759
0.000566321498
-0.000145584054
0.000664578171
-0.000183962195
0.000776766595
-0.000228326006
0.000904362219
-0.000279357201
0.00104888395
-0.000337756095
0.0012118932
-0.000404259239
0.0013949379
-0.000479632322
0.0015995916
-0.000564719582
0.00182712739
-0.000660083281
0.00207823902
-0.000766135924
0.00235268046
-0.000882641437
0.00264933662
-0.00100978828
0.00296686876
-0.00114815575
0.00330321006
-0.00129637004
0.00365443849
-0.00145152828
0.00401163504
-0.00160951189
0.00437211309
-0.00177883093
0.00472975213
-0.00194351619
0.00506973476
-0.00209533315
0.00537032258
-0.0022312596
0.00562627904
-0.00235884833
0.00582363711
-0.00246128793
0.00596415892
-0.00256530255
0.00608844546
-0.00267357854
0.00620750088
-0.00278089912
0.00632030157
-0.00288242039
0.00642468399
-0.00297550164
0.00651852663
-0.00306165774
0.0066041733
-0.00315132994
0.00668816988
-0.00324807666
0.00677982652
-0.00335267042
-0.00345454428
0.00687010884
-3.61625633e-08
5.94380753e-07
-1.39490504e-07
1.77177921e-06
-3.06571887e-07
2.97507712e-06
-5.33927163e-07
4.20696554e-06
-8.17895235e-07
5.47071667e-06
-1.15444794e-06
6.76979778e-06
-1.53910393e-06
8.10745752e-06
-1.96687541e-06
9.48626911e-06
-2.4316115e-06
1.09073884e-05
-2.92577142e-06
1.23711954e-05
-3.4405797e-06
1.38769703e-05
-3.96561226e-06
1.54225579e-05
-4.48850676e-06
1.70044677e-05
-4.9946538e-06
1.86178419e-05
-5.46686814e-06
2.0256406e-05
-5.88508977e-06
2.1912447e-05
-6.22644164e-06
2.35770964e-05
-6.46358673e-06
2.52385693e-05
-6.56453789e-06
2.68836493e-05
-6.49247146e-06
2.84980578e-05
-6.20469919e-06
3.00648515e-05
-5.65158802e-06
3.15643332e-05
-4.77718401e-06
3.29726083e-05
-3.51611757e-06
3.4262559e-05
-1.79051296e-06
3.54017474e-05
4.91917698e-07
3.63523308e-05
3.43997171e-06
3.7070336e-05
7.17983351e-06
3.75053508e-05
1.18490351e-05
3.76060716e-05
1.76051933e-05
3.7305346e-05
2.46286596e-05
3.65253355e-05
3.3122183e-05
3.51787122e-05
4.33190185e-05
3.31654714e-05
5.55039272e-05
3.03596848e-05
6.99677159e-05
2.66578652e-05
8.7080709e-05
2.18768893e-05
0.000107024208
1.60830379e-05
0.000130470018
8.6261276e-06
0.000157965671
-5.16708566e-07
0.000190125147
-1.13317993e-05
0.000227658805
-2.46355214e-05
0.000271370663
-4.05752196e-05
0.00032241916
-5.9474396e-05
0.000381489051
-8.17582067e-05
0.000449549215
-0.00010788925
0.000527711096
-0.000138371449
0.000617174714
-0.000173743501
0.000719200954
-0.000214578897
0.000835104317
-0.00026148733
0.000966230191
-0.000315088006
0.00111390276
-0.00037599851
0.0012794003
-0.000444854668
0.00146392249
-0.000522278171
0.00166861448
-0.000608951071
0.00189426637
-0.000705283951
0.00214115481
-0.000811607677
0.00240882206
-0.000927750003
0.00269576084
-0.00105307402
0.00299910476
-0.00118598442
0.00331492337
-0.00132560574
0.0036389063
-0.00147213721
0.00396743253
-0.00162489452
0.00429658838
-0.001780682
0.00461684934
-0.0019297705
0.00490457302
-0.00206655191
0.00515134691
-0.00219028717
0.00535851007
-0.0023024928
0.00552671909
-0.00239946321
0.00565707016
-0.00248919346
0.00577270968
-0.00257692155
0.00587165568
-0.00266424038
0.00595591323
-0.00275782772
0.00603004057
-0.00285501803
0.00609992676
-0.00295229816
0.00616899686
-0.00304456306
0.00624350469
-0.00313615163
0.00632847881
-0.00323629141
0.00641897447
-0.00333856083
0.00651986401
-0.00345354845
-0.00355878873
0.00662411552
-3.86489322e-08
6.33099117e-07
-1.47508708e-07
1.88073878e-06
-3.21096591e-07
3.14878056e-06
-5.53567696e-07
4.43956639e-06
-8.38601762e-07
5.75589347e-06
-1.16917206e-06
7.10052312e-06
-1.53731016e-06
8.47576273e-06
-1.9338761e-06
9.88301447e-06
-2.34873511e-06
1.13224396e-05
-2.76962093e-06
1.27922863e-05
-3.1820541e-06
1.4289622e-05
-3.56924119e-06
1.58099772e-05
-3.91178041e-06
1.73472533e-05
-4.18700243e-06
1.88933248e-05
-4.36861672e-06
2.04382952e-05
-4.42603416e-06
2.1970154e-05
-4.32412885e-06
2.34754956e-05
-4.02275189e-06
2.49375105e-05
-3.47571693e-06
2.63369454e-05
-2.62916016e-06
2.76518448e-05
-1.41964828e-06
2.88556956e-05
2.27049597e-07
2.99180029e-05
2.39520424e-06
3.08048306e-05
5.18096033e-06
3.14771878e-05
8.69409823e-06
3.18890002e-05
1.30600295e-05
3.19867941e-05
1.8421867e-05
3.17088942e-05
2.49436388e-05
3.09839731e-05
3.28194549e-05
2.97306446e-05
4.22701167e-05
2.78550656e-05
5.35545371e-05
2.52412843e-05
6.69511319e-05
2.17824708e-05
8.26809283e-05
1.74360095e-05
0.000101138535
1.19023912e-05
0.000122807544
4.98913972e-06
0.000148162665
-3.47798333e-06
0.00017776088
-1.35149592e-05
0.000212246247
-2.58590564e-05
0.000252318907
-4.05892256e-05
0.000298994327
-5.80071196e-05
0.000352880108
-7.85212462e-05
0.000414853704
-0.000102548808
0.00048592197
-0.000130542697
0.000567155199
-0.00016299152
0.000659681981
-0.000200416156
0.000764673617
-0.000243363248
0.000883311296
-0.000292381369
0.00101674897
-0.000348016788
0.00116606276
-0.000410801327
0.0013322225
-0.000481247956
0.00151603238
-0.000559808556
0.00171821344
-0.00064703585
0.00193908729
-0.00074315203
0.00217839635
-0.000848260035
0.0024351143
-0.000962001626
0.00270731027
-0.00108380322
0.00299228554
-0.00121272462
0.00328642849
-0.00134721612
0.0035850753
-0.00148463011
0.0038824444
-0.00162297349
0.00417348977
-0.00176318095
0.00444773342
-0.00189913638
0.00469009676
-0.00202304347
0.00489636201
-0.00213603355
0.00506216589
-0.00223235263
0.00519829431
-0.00232641217
0.00531503809
-0.00241923222
0.00542330094
-0.00250772126
0.00551930379
-0.0025851916
0.00560148997
-0.00265910151
0.00567954164
-0.00274228595
0.00574937871
-0.00282765746
0.00581017467
-0.00291580419
0.00587305694
-0.00301517037
0.00593804321
-0.00310953741
0.00600725648
-0.00320535313
0.00608646966
-0.00331549436
0.00618209185
-0.00343417001
0.00629231849
-0.00356376438
-0.00367752133
0.00641105695
-3.98332458e-08
6.73040551e-07
-1.49587426e-07
1.99064601e-06
-3.21051798e-07
3.32042044e-06
-5.45449843e-07
4.66416019e-06
-8.13157162e-07
6.02381505e-06
-1.11339486e-06
7.40099257e-06
-1.43390821e-06
8.7965249e-06
-1.76064131e-06
1.02100135e-05
-2.07741836e-06
1.16395001e-05
-2.36577869e-06
1.30809479e-05
-2.60410237e-06
1.4528265e-05
-2.76738338e-06
1.59735966e-05
-2.82675125e-06
1.74069791e-05
-2.74876693e-06
1.88157178e-05
-2.49484848e-06
2.01847732e-05
-2.02073222e-06
2.14964539e-05
-1.27486728e-06
2.27300671e-05
-1.98218414e-07
2.38613178e-05
1.27686148e-06
2.48623409e-05
3.22787291e-06
2.57013276e-05
5.7435688e-06
2.63405121e-05
8.92490319e-06
2.67371987e-05
1.28884426e-05
2.68418382e-05
1.77686841e-05
2.6597509e-05
2.37197043e-05
2.59385567e-05
3.09172478e-05
2.47898401e-05
3.95614949e-05
2.30652476e-05
4.98851407e-05
2.06609368e-05
6.21418176e-05
1.74745852e-05
7.65289251e-05
1.34685835e-05
9.34482309e-05
8.32260242e-06
0.000113292057
1.93926042e-06
0.000136494202
-5.76551866e-06
0.000163548149
-1.51509334e-05
0.000195029698
-2.64917875e-05
0.000231545891
-3.99935566e-05
0.000273992083
-5.59605362e-05
0.000322881863
-7.47482251e-05
0.000379019055
-9.67258088e-05
0.000443316516
-0.000122303976
0.000516720252
-0.000151924374
0.000600227183
-0.000186055132
0.00069487281
-0.000225187713
0.000801698481
-0.000269816577
0.0009217163
-0.000320433348
0.00105586539
-0.000377511702
0.00120497427
-0.00044148957
0.0013697088
-0.000512750624
0.00155051358
-0.000591605353
0.00174762346
-0.000678357017
0.00196089623
-0.000773080443
0.00218964105
-0.000875779785
0.00243241782
-0.000985927839
0.00268693437
-0.00110277556
0.00294997688
-0.00122504299
0.00321773906
-0.00135156413
0.00348547375
-0.00148045786
0.00374896621
-0.00161070697
0.00400255451
-0.00173821657
0.00423921299
-0.00185963005
0.00444559519
-0.00196956122
0.00461640936
-0.00206994849
0.00475067567
-0.00215730701
0.00485971547
-0.00224506953
0.00496013968
-0.00233277309
0.00505169305
-0.0024179623
0.0051330955
-0.00250063136
0.00520506002
-0.00257968212
0.00527428959
-0.00265441672
0.00534394527
-0.00272875103
0.00541236601
-0.0028106971
0.00548155638
-0.00289683814
0.0055548713
-0.00298911038
0.00563392831
-0.003094217
0.00571716873
-0.00319276538
0.0057995508
-0.00328772241
0.00588256201
-0.00339849478
0.00597853653
-0.00353013457
0.00607914244
-0.00366436209
-0.00378317836
0.00618480517
-3.6300713e-08
7.09434577e-07
-1.32957493e-07
2.08743596e-06
-2.7858176e-07
3.46619827e-06
-4.60732775e-07
4.84648315e-06
-6.6562396e-07
6.22889505e-06
-8.77731451e-07
7.61330488e-06
-1.07930195e-06
8.99831591e-06
-1.24991694e-06
1.0380865e-05
-1.36600115e-06
1.17558372e-05
-1.40041401e-06
1.31156303e-05
-1.32206561e-06
1.44502033e-05
-1.09500077e-06
1.57468364e-05
-6.77576759e-07
1.69898783e-05
-2.20089988e-08
1.81604919e-05
9.26385385e-07
1.92367396e-05
2.23030925e-06
2.01929101e-05
3.96141344e-06
2.09993621e-05
6.20170218e-06
2.1621447e-05
9.04511031e-06
2.20193691e-05
1.25989935e-05
2.2147899e-05
1.69859613e-05
2.19540166e-05
2.23461404e-05
2.13775082e-05
2.883907e-05
2.03494123e-05
3.66461651e-05
1.87909315e-05
4.59765249e-05
1.6608726e-05
5.70633437e-05
1.3703561e-05
7.00987359e-05
1.00304042e-05
8.54375492e-05
5.32267347e-06
0.000103426584
-5.13902201e-07
0.000124450547
-7.55482914e-06
0.000148946149
-1.61724474e-05
0.000177409826
-2.65238695e-05
0.000210483891
-3.88390438e-05
0.000248728926
-5.33954391e-05
0.000292738862
-7.05012067e-05
0.000343237885
-9.04920785e-05
0.000401015531
-0.000113737696
0.00046690151
-0.000140633736
0.000541776418
-0.000171600266
0.000626552018
-0.000207079145
0.000722145844
-0.000247517784
0.000829454121
-0.000293363005
0.000949313941
-0.000345047133
0.00108246796
-0.0004029702
0.00122951447
-0.000467479434
0.00139085081
-0.000538847602
0.00156661852
-0.00061725677
0.00175665514
-0.000702786686
0.00196045224
-0.000795401795
0.00217694818
-0.000894852251
0.00240441661
-0.00100054807
0.00264040082
-0.0011117631
0.00288169125
-0.00122721724
0.00312469852
-0.00134578168
0.00336467975
-0.00146502288
0.0035974274
-0.00158431028
0.0038182052
-0.00170123398
0.00401870999
-0.00181120996
0.00419278716
-0.00191229174
0.00433788694
-0.00200472755
0.00445504217
-0.00208671405
0.00454922906
-0.0021641326
0.00463177274
-0.00223984734
0.00470564227
-0.00231893574
0.00477183667
-0.00239896384
0.00483123804
-0.0024773599
0.00488643701
-0.00255582642
0.00494053488
-0.00263377484
0.00499973967
-0.00271361424
0.00506636241
-0.00279536534
0.00513608249
-0.00288040914
0.00520924145
-0.00296998885
0.00528869545
-0.00306855503
0.0053695152
-0.00317502641
0.00546319906
-0.00328643534
0.00556147928
-0.00338598966
0.00564864587
-0.00348565152
0.00572801189
-0.00360949045
0.00580377408
-0.00374011577
-0.00386485297
0.00588545363
-2.75664303e-08
7.37119381e-07
-9.45274245e-08
2.15456438e-06
-1.85059389e-07
3.55692219e-06
-2.81762817e-07
4.94340072e-06
-3.65203804e-07
6.31257066e-06
-4.13391004e-07
7.66174618e-06
-4.0118928e-07
8.98638735e-06
-2.9973576e-07
1.0279704e-05
-7.57905474e-08
1.15322043e-05
3.08849123e-07
1.27313234e-05
8.97954911e-07
1.38614512e-05
1.74166288e-06
1.49035039e-05
2.89728608e-06
1.58346529e-05
4.43020747e-06
1.66279914e-05
6.41488645e-06
1.72525048e-05
8.93676137e-06
1.76715031e-05
1.20932895e-05
1.78433264e-05
1.59955624e-05
1.77196913e-05
2.07700058e-05
1.72454675e-05
2.65607958e-05
1.63576754e-05
3.35309959e-05
1.49844074e-05
4.18675469e-05
1.30415718e-05
5.17823187e-05
1.04352792e-05
6.34595978e-05
7.11431561e-06
7.72096894e-05
2.85931508e-06
9.33376703e-05
-2.42372373e-06
0.000112184791
-8.81599713e-06
0.000134136963
-1.66287546e-05
0.000159630051
-2.60062268e-05
0.000189233064
-3.71570601e-05
0.000223394745
-5.03333283e-05
0.000262679489
-6.58077964e-05
0.000307721747
-8.38804663e-05
0.000359207993
-0.000104880833
0.000417870078
-0.000129162419
0.000484480179
-0.000157101289
0.000559837252
-0.00018909386
0.000644748818
-0.000225544375
0.000740008654
-0.000266859153
0.000846365547
-0.000313435064
0.000964493204
-0.000365644435
0.00109494817
-0.000423816934
0.00123812028
-0.000488218146
0.00139417694
-0.000559025726
0.00156300508
-0.000636306358
0.00174416005
-0.00072000128
0.00193685473
-0.000809950045
0.0021398389
-0.00090576941
0.00235127454
-0.00100683597
0.00256862276
-0.00111219897
0.00278867688
-0.0012206006
0.00300796214
-0.0013310467
0.00322243741
-0.00144169072
0.00342957946
-0.00155292182
0.00362375927
-0.00165920061
0.00379803309
-0.00175858199
0.00394686733
-0.00185006612
0.00406949787
-0.00193383825
0.00416909717
-0.00201188797
0.00425352773
-0.00208915494
0.00433066645
-0.00216384977
0.00439682548
-0.00223028819
0.00445282116
-0.00229583932
0.00450064889
-0.00236675965
0.00454441274
-0.00244272367
0.004587983
-0.00252092555
0.00463491852
-0.00260275601
0.00468667903
-0.0026855283
0.00474202531
-0.00276895378
0.00480125799
-0.00285459109
0.00486489097
-0.00294403313
0.00493395081
-0.00303903873
0.00500414263
-0.00313873579
0.00507145505
-0.00324232659
0.00514863404
-0.0033636021
0.00524046957
-0.00347781344
0.00533334426
-0.00357851433
0.00541316525
-0.00368929969
0.00548917547
-0.0038161166
-0.00394422324
0.00556855122
-1.25262973e-08
7.49759675e-07
-3.00335322e-08
2.1722336e-06
-3.08484164e-08
3.55792339e-06
9.00755934e-09
4.90375305e-06
1.16399864e-07
6.205407e-06
3.21776649e-07
7.45661746e-06
6.59810035e-07
8.64862112e-06
1.17008787e-06
9.76971268e-06
1.89784004e-06
1.08047584e-05
2.89463355e-06
1.17348565e-05
4.2194189e-06
1.25370138e-05
5.93951883e-06
1.31837739e-05
8.13132001e-06
1.36432442e-05
1.08824655e-05
1.38772614e-05
1.42927583e-05
1.38426517e-05
1.84755656e-05
1.34891602e-05
2.35595327e-05
1.27598488e-05
2.96903227e-05
1.15894159e-05
3.7033706e-05
9.90262402e-06
4.57783601e-05
7.6135868e-06
5.60992009e-05
4.66415853e-06
6.82655668e-05
8.75819223e-07
8.25454723e-05
-3.84399318e-06
9.9239534e-05
-9.57908668e-06
0.000118686074
-1.65865397e-05
0.000141262373
-2.49993141e-05
0.000167456369
-3.50092631e-05
0.000197667567
-4.68392018e-05
0.000232393523
-6.07314119e-05
0.000272189796
-7.69525446e-05
0.000317652358
-9.57950822e-05
0.000369419149
-0.000117573762
0.000428163456
-0.00014262393
0.000494583244
-0.000171299765
0.000569386918
-0.000203965223
0.000653275015
-0.000240988501
0.000746915004
-0.000282732948
0.000850916128
-0.000329544579
0.000965794977
-0.000381737057
0.00109193456
-0.000439573668
0.00122953783
-0.00050324669
0.00137857651
-0.000572854551
0.00153873746
-0.000648377965
0.00170937052
-0.000729657578
0.00188945256
-0.000816387062
0.0020776069
-0.000908154188
0.00227198505
-0.0010043267
0.00247021364
-0.00110399646
0.00266939665
-0.00120601736
0.00286632359
-0.0013091242
0.00305748422
-0.00141175936
0.00323917912
-0.00151273961
0.00340856224
-0.0016110718
0.00355735463
-0.00170171226
0.003684336
-0.00178617992
0.00378879022
-0.00186303362
0.00387477479
-0.00193604791
0.00394908513
-0.00200814554
0.00401488276
-0.00207768209
0.00407320617
-0.00214747495
0.00412497907
-0.00221561898
0.00417456063
-0.00227986575
0.00422268142
-0.00234395585
0.00427021001
-0.00241428435
0.00431543407
-0.00248794376
0.00435933001
-0.00256481667
0.00440447124
-0.0026478918
0.00445136361
-0.00273241422
0.00450123676
-0.00281881914
0.00455524281
-0.00290858838
0.00461223445
-0.00300101514
0.00467186128
-0.00309865493
0.00473284554
-0.00319970716
0.00479392196
-0.00330338927
0.00485066001
-0.00342032762
0.00491665917
-0.00354380025
0.00499906256
-0.00366090645
0.00508623054
-0.00377645798
0.0051706369
-0.00390051575
-0.0040243059
0.00525072336
9.51814598e-09
7.403715e-07
6.33439478e-08
2.11859202e-06
1.90480834e-07
3.43099814e-06
4.23135736e-07
4.6713347e-06
7.97419366e-07
5.83138295e-06
1.35413964e-06
6.90017881e-06
2.13959612e-06
7.86346808e-06
3.20650037e-06
8.70313399e-06
4.61489441e-06
9.39671275e-06
6.43316841e-06
9.91695463e-06
8.73876303e-06
1.02318156e-05
1.16203537e-05
1.0302605e-05
1.51785183e-05
1.00855283e-05
1.95273709e-05
9.52888559e-06
2.47967957e-05
8.57373232e-06
3.11329545e-05
7.15353621e-06
3.86873719e-05
5.20599752e-06
4.76516514e-05
2.62573506e-06
5.82424909e-05
-6.87587578e-07
7.06921388e-05
-4.83540419e-06
8.52639276e-05
-9.90693793e-06
0.000102253574
-1.61130979e-05
0.000121987469
-2.35771249e-05
0.000144880866
-3.24716843e-05
0.000171288003
-4.29928411e-05
0.000201644732
-5.5355172e-05
0.000236431553
-6.97951744e-05
0.000276164915
-8.65716168e-05
0.0003213981
-0.00010596361
0.00037271558
-0.000128268998
0.000430724694
-0.000153803131
0.000496044554
-0.000182892518
0.000569291434
-0.000215869666
0.000651058868
-0.000253066015
0.000741896733
-0.000294801859
0.000842283524
-0.00034137402
0.000952592905
-0.000393041006
0.0010730555
-0.0004500058
0.0012037162
-0.000512396321
0.00134438869
-0.000580244651
0.00149460874
-0.000653465166
0.00165358977
-0.000731833921
0.00182018481
-0.000814971231
0.0019928656
-0.000902336465
0.00216977458
-0.000993294056
0.00234866408
-0.00108704169
0.00252685195
-0.00118251253
0.0027014139
-0.00127855632
0.00286927631
-0.00137387761
0.00302820902
-0.00146805464
0.00317447615
-0.00155802414
0.00330345222
-0.00164171345
0.00341218278
-0.00171979975
0.00350007245
-0.00178959909
0.00357481955
-0.00186092442
0.0036410764
-0.00192928793
0.00370042176