/*--------------------------------*- C++ -*----------------------------------*\
  =========                 |
  \\      /  F ield         | OpenFOAM: The Open Source CFD Toolbox
   \\    /   O peration     | Website:  https://openfoam.org
    \\  /    A nd           | Version:  8
     \\/     M anipulation  |
\*---------------------------------------------------------------------------*/
FoamFile
{
    version     2.0;
    format      ascii;
    class       volScalarField;
    location    "0.008";
    object      p_rgh;
}
// * * * * * * * * * * * * * * * * * * * * * * * * * * * * * * * * * * * * * //

dimensions      [1 -1 -2 0 0 0 0];

internalField   nonuniform List<scalar> 
42400
(
101320.173
101320.157
101320.14
101320.124
101320.11
101320.096
101320.084
101320.072
101320.062
101320.053
101320.045
101320.039
101320.033
101320.029
101320.027
101320.025
101320.025
101320.026
101320.029
101320.033
101320.037
101320.043
101320.05
101320.058
101320.067
101320.076
101320.087
101320.098
101320.11
101320.123
101320.136
101320.149
101320.163
101320.178
101320.192
101320.206
101320.231
101320.27
101320.314
101320.344
101320.349
101320.343
101320.336
101320.348
101320.38
101320.415
101320.45
101320.488
101320.527
101320.563
101320.592
101320.649
101320.734
101320.844
101320.916
101320.94
101321.005
101321.111
101321.242
101321.367
101321.497
101321.647
101321.822
101322.022
101322.245
101322.509
101322.83
101323.098
101323.467
101324.137
101324.406
101324.52
101325.935
101326.381
101325.635
101327.557
101330.214
101331.549
101331.972
101332.631
101319.301
101319.287
101319.273
101319.259
101319.247
101319.236
101319.226
101319.217
101319.208
101319.201
101319.196
101319.191
101319.188
101319.186
101319.185
101319.186
101319.188
101319.191
101319.196
101319.202
101319.209
101319.217
101319.227
101319.237
101319.249
101319.261
101319.275
101319.289
101319.305
101319.321
101319.337
101319.353
101319.371
101319.397
101319.43
101319.466
101319.491
101319.496
101319.494
101319.498
101319.516
101319.544
101319.573
101319.601
101319.632
101319.66
101319.679
101319.716
101319.781
101319.87
101319.922
101319.925
101319.953
101320.017
101320.104
101320.184
101320.262
101320.349
101320.446
101320.566
101320.712
101320.874
101321.053
101321.263
101321.501
101321.782
101322.167
101322.547
101322.96
101323.693
101324.547
101324.998
101326.31
101328.991
101331.273
101331.174
101330.377
101331.739
101333.561
101335.461
101318.304
101318.293
101318.28
101318.269
101318.259
101318.25
101318.242
101318.235
101318.23
101318.225
101318.222
101318.22
101318.22
101318.221
101318.223
101318.227
101318.232
101318.239
101318.248
101318.258
101318.269
101318.282
101318.297
101318.313
101318.33
101318.349
101318.368
101318.388
101318.411
101318.437
101318.466
101318.498
101318.533
101318.558
101318.572
101318.585
101318.603
101318.632
101318.666
101318.699
101318.733
101318.767
101318.799
101318.821
101318.865
101318.948
101319.017
101319.021
101319.025
101319.069
101319.136
101319.199
101319.256
101319.314
101319.375
101319.448
101319.537
101319.641
101319.754
101319.876
101320.021
101320.199
101320.406
101320.653
101320.941
101321.284
101321.752
101322.245
101322.753
101323.175
101324.046
101326.418
101328.086
101328.808
101330.004
101330.788
101331.752
101333.338
101335.062
101336.238
101317.196
101317.186
101317.176
101317.167
101317.158
101317.152
101317.146
101317.142
101317.139
101317.137
101317.137
101317.138
101317.142
101317.146
101317.153
101317.162
101317.172
101317.184
101317.198
101317.214
101317.232
101317.252
101317.274
101317.297
101317.322
101317.348
101317.378
101317.41
101317.445
101317.477
101317.507
101317.537
101317.566
101317.602
101317.645
101317.688
101317.73
101317.773
101317.817
101317.858
101317.891
101317.942
101318.027
101318.082
101318.094
101318.127
101318.186
101318.25
101318.303
101318.353
101318.404
101318.46
101318.524
101318.597
101318.676
101318.762
101318.857
101318.965
101319.099
101319.264
101319.455
101319.689
101319.963
101320.301
101320.688
101321.173
101321.706
101322.311
101323.343
101325.615
101327.16
101327.439
101327.754
101328.814
101330.516
101332.152
101333.147
101334.031
101335.482
101336.958
101315.967
101315.958
101315.949
101315.942
101315.936
101315.931
101315.928
101315.926
101315.926
101315.928
101315.932
101315.937
101315.945
101315.955
101315.967
101315.981
101315.997
101316.016
101316.037
101316.06
101316.085
101316.111
101316.14
101316.173
101316.208
101316.246
101316.284
101316.324
101316.364
101316.409
101316.458
101316.508
101316.559
101316.61
101316.662
101316.716
101316.769
101316.814
101316.874
101316.964
101317.026
101317.051
101317.099
101317.168
101317.231
101317.289
101317.346
101317.406
101317.469
101317.536
101317.606
101317.68
101317.758
101317.847
101317.948
101318.065
101318.206
101318.373
101318.567
101318.807
101319.091
101319.451
101319.846
101320.324
101320.735
101321.378
101322.917
101324.571
101325.607
101325.971
101326.433
101327.455
101328.657
101330.201
101331.736
101332.607
101333.774
101335.199
101336.513
101337.894
101314.591
101314.584
101314.576
101314.571
101314.567
101314.565
101314.564
101314.565
101314.568
101314.574
101314.582
101314.592
101314.605
101314.621
101314.639
101314.66
101314.682
101314.706
101314.733
101314.763
101314.799
101314.838
101314.879
101314.923
101314.969
101315.017
101315.069
101315.122
101315.178
101315.235
101315.294
101315.355
101315.417
101315.48
101315.536
101315.605
101315.701
101315.771
101315.809
101315.871
101315.95
101316.022
101316.09
101316.159
101316.23
101316.302
101316.374
101316.449
101316.526
101316.608
101316.699
101316.803
101316.92
101317.052
101317.21
101317.395
101317.613
101317.873
101318.189
101318.569
101319.018
101319.543
101320.068
101320.806
101322.307
101323.835
101324.318
101324.356
101325.281
101326.376
101327.345
101328.481
101329.924
101331.252
101332.388
101333.516
101334.916
101336.261
101337.707
101339.007
101313.036
101313.029
101313.023
101313.02
101313.018
101313.018
101313.021
101313.026
101313.032
101313.041
101313.053
101313.067
101313.085
101313.107
101313.131
101313.159
101313.191
101313.227
101313.267
101313.309
101313.354
101313.402
101313.453
101313.506
101313.563
101313.622
101313.684
101313.748
101313.815
101313.884
101313.954
101314.019
101314.095
101314.195
101314.273
101314.325
101314.399
101314.488
101314.569
101314.648
101314.728
101314.809
101314.889
101314.97
101315.052
101315.139
101315.23
101315.327
101315.434
101315.554
101315.69
101315.844
101316.023
101316.231
101316.471
101316.749
101317.085
101317.471
101317.941
101318.43
101319.046
101320.037
101321.61
101322.598
101323.004
101323.616
101324.28
101325.079
101325.867
101327.007
101328.416
101329.496
101330.425
101331.444
101332.63
101334.263
101335.769
101337.082
101338.545
101339.796
101311.248
101311.243
101311.239
101311.237
101311.238
101311.241
101311.247
101311.256
101311.269
101311.285
101311.305
101311.328
101311.353
101311.382
101311.414
101311.451
101311.49
101311.534
101311.582
101311.632
101311.687
101311.744
101311.806
101311.87
101311.938
101312.009
101312.083
101312.157
101312.229
101312.31
101312.414
101312.499
101312.563
101312.646
101312.742
101312.832
101312.92
101313.01
101313.099
101313.189
101313.28
101313.373
101313.468
101313.568
101313.673
101313.786
101313.91
101314.047
101314.204
101314.381
101314.585
101314.82
101315.088
101315.396
101315.757
101316.161
101316.632
101317.163
101317.797
101318.876
101320.136
101320.949
101321.171
101321.599
101322.58
101323.586
101324.526
101325.638
101326.657
101327.823
101328.968
101330.05
101331.216
101332.226
101333.45
101334.8
101336.188
101337.648
101339.221
101340.666
101309.185
101309.182
101309.18
101309.181
101309.185
101309.192
101309.203
101309.217
101309.234
101309.255
101309.28
101309.308
101309.341
101309.377
101309.418
101309.463
101309.513
101309.566
101309.624
101309.685
101309.751
101309.82
101309.894
101309.971
101310.046
101310.123
101310.211
101310.316
101310.406
101310.48
101310.572
101310.674
101310.772
101310.869
101310.967
101311.066
101311.166
101311.267
101311.37
101311.475
101311.584
101311.697
101311.817
101311.947
101312.089
101312.247
101312.425
101312.628
101312.86
101313.125
101313.43
101313.777
101314.177
101314.64
101315.174
101315.755
101316.382
101317.343
101318.636
101319.28
101319.739
101320.502
101321.294
101322.244
101323.174
101324.105
101325.095
101325.979
101326.969
101328.265
101329.537
101330.743
101332.018
101333.676
101335.001
101336.047
101337.355
101338.752
101340.321
101341.729
101306.789
101306.788
101306.79
101306.794
101306.803
101306.814
101306.829
101306.849
101306.872
101306.899
101306.931
101306.967
101307.008
101307.053
101307.103
101307.158
101307.216
101307.28
101307.348
101307.421
101307.497
101307.575
101307.658
101307.758
101307.862
101307.946
101308.029
101308.129
101308.236
101308.341
101308.446
101308.553
101308.662
101308.771
101308.882
101308.995
101309.111
101309.23
101309.353
101309.483
101309.62
101309.769
101309.932
101310.114
101310.317
101310.549
101310.812
101311.111
101311.449
101311.826
101312.259
101312.749
101313.296
101313.92
101314.605
101315.229
101316.282
101317.567
101318.221
101318.761
101319.324
101320.091
101321.141
101322.245
101323.314
101324.267
101325.459
101326.718
101327.942
101329.032
101330.283
101331.748
101332.867
101333.881
101335.064
101336.247
101337.603
101338.862
101340.395
101342.239
101303.997
101304
101304.006
101304.016
101304.029
101304.047
101304.069
101304.095
101304.125
101304.161
101304.201
101304.246
101304.297
101304.352
101304.412
101304.477
101304.548
101304.623
101304.7
101304.785
101304.881
101304.976
101305.064
101305.162
101305.269
101305.38
101305.49
101305.602
101305.716
101305.833
101305.952
101306.073
101306.196
101306.322
101306.452
101306.586
101306.726
101306.874
101307.032
101307.202
101307.389
101307.596
101307.827
101308.088
101308.384
101308.721
101309.101
101309.529
101310.015
101310.544
101311.159
101311.847
101312.528
101313.405
101314.364
101315.205
101316.014
101316.53
101317.058
101317.913
101318.999
101320.091
101321.212
101322.178
101323.122
101324.161
101325.262
101326.82
101328.317
101329.457
101330.491
101331.599
101332.846
101334.259
101335.836
101337.489
101339.254
101341.418
101343.422
101344.933
101300.752
101300.761
101300.774
101300.79
101300.811
101300.836
101300.866
101300.901
101300.941
101300.987
101301.038
101301.094
101301.155
101301.221
101301.294
101301.369
101301.453
101301.546
101301.639
101301.731
101301.832
101301.941
101302.052
101302.166
101302.283
101302.404
101302.528
101302.655
101302.785
101302.918
101303.055
101303.196
101303.342
101303.494
101303.654
101303.824
101304.006
101304.203
101304.418
101304.654
101304.916
101305.207
101305.53
101305.888
101306.283
101306.713
101307.173
101307.666
101308.19
101308.699
101309.283
101310.278
101311.493
101312.495
101313.515
101314.636
101315.47
101316.393
101317.634
101318.642
101319.369
101320.139
101321.088
101322.156
101323.329
101324.485
101325.749
101327.142
101328.356
101329.7
101331.208
101332.77
101334.397
101336.027
101337.71
101339.426
101341.079
101342.652
101344.14
101345.697
101297.001
101297.018
101297.039
101297.065
101297.095
101297.131
101297.171
101297.217
101297.269
101297.326
101297.388
101297.456
101297.529
101297.609
101297.699
101297.79
101297.882
101297.983
101298.091
101298.203
101298.318
101298.439
101298.563
101298.691
101298.824
101298.96
101299.101
101299.246
101299.396
101299.553
101299.716
101299.888
101300.071
101300.268
101300.48
101300.712
101300.967
101301.25
101301.565
101301.916
101302.309
101302.749
101303.239
101303.785
101304.392
101305.066
101305.809
101306.636
101307.535
101308.544
101309.544
101310.231
101310.83
101311.607
101312.593
101313.718
101314.653
101315.526
101316.544
101317.49
101318.467
101319.852
101321.147
101322.507
101323.794
101325.079
101326.542
101327.936
101329.288
101330.627
101332.019
101333.488
101335.019
101336.575
101338.164
101339.844
101341.507
101343.054
101344.725
101346.448
101292.695
101292.721
101292.754
101292.791
101292.833
101292.88
101292.933
101292.992
101293.056
101293.125
101293.202
101293.286
101293.374
101293.466
101293.565
101293.671
101293.782
101293.897
101294.018
101294.143
101294.274
101294.409
101294.549
101294.694
101294.844
101295
101295.163
101295.333
101295.512
101295.702
101295.906
101296.125
101296.363
101296.623
101296.911
101297.228
101297.581
101297.973
101298.409
101298.892
101299.426
101300.013
101300.654
101301.348
101302.089
101302.873
101303.695
101304.531
101305.427
101306.338
101307.199
101308.39
101309.802
101310.851
101311.771
101312.824
101313.888
101315.186
101316.723
101318.013
101319.225
101320.427
101321.477
101322.63
101323.875
101325.155
101326.37
101327.393
101328.755
101330.574
101332.276
101333.94
101335.593
101337.196
101338.976
101340.661
101342
101343.963
101346.436
101348.139
101287.802
101287.839
101287.886
101287.936
101287.991
101288.052
101288.119
101288.192
101288.272
101288.355
101288.445
101288.542
101288.645
101288.753
101288.867
101288.986
101289.111
101289.241
101289.377
101289.518
101289.664
101289.816
101289.974
101290.14
101290.313
101290.495
101290.688
101290.893
101291.114
101291.353
101291.614
101291.899
101292.214
101292.561
101292.947
101293.374
101293.847
101294.371
101294.949
101295.584
101296.28
101297.039
101297.87
101298.771
101299.733
101300.747
101301.772
101302.782
101303.679
101304.701
101305.912
101307.03
101308.14
101309.569
101310.891
101311.964
101313.293
101315.069
101316.533
101317.64
101318.772
101320.005
101321.334
101322.585
101323.801
101325.062
101326.244
101327.695
101329.609
101331.455
101333.259
101335.052
101336.841
101338.659
101340.939
101343.321
101345.634
101347.115
101348.188
101349.297
101282.306
101282.357
101282.419
101282.485
101282.555
101282.631
101282.713
101282.801
101282.895
101282.995
101283.101
101283.213
101283.331
101283.455
101283.585
101283.721
101283.863
101284.011
101284.166
101284.327
101284.497
101284.675
101284.864
101285.064
101285.277
101285.507
101285.755
101286.026
101286.322
101286.647
101287.007
101287.404
101287.844
101288.33
101288.864
101289.451
101290.091
101290.783
101291.526
101292.316
101293.144
101293.978
101294.835
101295.831
101297.15
101298.686
101300.092
101301.393
101302.852
101304.372
101305.883
101307.21
101308.386
101309.393
101310.471
101312.015
101313.08
101313.632
101314.733
101316.678
101318.339
101319.72
101321.114
101322.837
101324.799
101326.922
101329.086
101330.836
101332.366
101333.969
101335.577
101337.322
101339.294
101341.034
101342.321
101343.425
101344.947
101346.612
101348.305
101350.682
101276.229
101276.296
101276.375
101276.457
101276.543
101276.636
101276.734
101276.839
101276.949
101277.065
101277.188
101277.317
101277.452
101277.594
101277.743
101277.899
101278.063
101278.236
101278.418
101278.611
101278.816
101279.037
101279.274
101279.531
101279.811
101280.118
101280.456
101280.829
101281.243
101281.703
101282.212
101282.776
101283.4
101284.086
101284.84
101285.664
101286.56
101287.531
101288.58
101289.713
101290.927
101292.197
101293.671
101295.592
101297.294
101298.403
101299.407
101300.457
101301.595
101302.778
101303.969
101305.1
101306.304
101307.851
101309.264
101310.645
101312.644
101314.842
101316.547
101317.874
101319.312
101321.153
101323.07
101324.678
101326.22
101327.926
101329.759
101331.401
101332.897
101334.816
101337.019
101338.572
101339.788
101341.174
101342.769
101344.851
101347.329
101349.216
101350.783
101353.076
101269.614
101269.696
101269.793
101269.892
101269.995
101270.104
101270.218
101270.339
101270.465
101270.597
101270.736
101270.882
101271.036
101271.197
101271.367
101271.547
101271.738
101271.942
101272.161
101272.397
101272.653
101272.932
101273.239
101273.577
101273.951
101274.366
101274.828
101275.342
101275.912
101276.544
101277.243
101278.012
101278.854
101279.771
101280.763
101281.83
101282.969
101284.177
101285.445
101286.768
101288.124
101289.564
101290.996
101292.184
101293.602
101295.208
101296.564
101298.033
101299.6
101301.227
101302.925
101304.699
101306.296
101307.735
101309.176
101311.015
101312.783
101314.089
101315.724
101317.935
101320.159
101322.232
101323.966
101325.449
101326.983
101328.575
101330.309
101332.173
101333.892
101335.46
101337.568
101339.787
101341.453
101343.23
101345.143
101347.264
101349.581
101351.411
101353.258
101354.803
101262.556
101262.654
101262.769
101262.884
101263.003
101263.126
101263.255
101263.39
101263.531
101263.678
101263.833
101263.996
101264.169
101264.351
101264.546
101264.755
101264.979
101265.223
101265.489
101265.781
101266.102
101266.458
101266.854
101267.293
101267.783
101268.327
101268.932
101269.601
101270.339
101271.149
101272.032
101272.99
101274.02
101275.122
101276.29
101277.517
101278.799
101280.129
101281.485
101282.868
101284.271
101285.992
101288.049
101289.971
101291.586
101293.244
101294.863
101296.378
101298.277
101300.341
101302.212
101304.104
101306.164
101308.225
101310.365
101312.044
101313.557
101315.261
101316.761
101318.219
101319.604
101320.912
101322.604
101325.009
101327.328
101329.474
101331.557
101333.858
101336.386
101338.395
101339.327
101340.66
101343.059
101345.153
101347.306
101349.493
101351.734
101352.646
101353.379
101355.07
101255.218
101255.332
101255.463
101255.593
101255.725
101255.862
101256.004
101256.152
101256.307
101256.47
101256.641
101256.823
101257.018
101257.227
101257.454
101257.701
101257.972
101258.271
101258.602
101258.972
101259.385
101259.846
101260.363
101260.941
101261.586
101262.304
101263.1
101263.977
101264.94
101265.99
101267.13
101268.358
101269.674
101271.077
101272.561
101274.114
101275.748
101277.462
101279.253
101281.16
101283.724
101286.339
101288.115
101289.447
101290.681
101292.027
101294.041
101296.724
101299.171
101300.91
101302.397
101303.923
101305.445
101306.92
101308.259
101309.678
101311.451
101313.415
101315.71
101318.358
101321.057
101323.853
101326.108
101327.947
101329.864
101331.831
101333.871
101335.894
101337.537
101339
101341.439
101343.968
101345.795
101347.691
101349.374
101350.627
101350.853
101351.781
101354.066
101356.153
101291.934
101291.936
101291.94
101291.946
101291.955
101291.965
101291.978
101291.994
101292.011
101292.031
101292.053
101292.078
101292.106
101292.136
101292.168
101292.204
101292.242
101292.283
101292.328
101292.375
101292.426
101292.479
101292.537
101292.598
101292.663
101292.732
101292.805
101292.882
101292.964
101293.051
101293.143
101293.24
101293.344
101293.453
101293.569
101293.692
101293.821
101293.959
101294.105
101294.259
101294.423
101294.596
101294.779
101294.973
101295.178
101295.396
101295.625
101295.868
101296.125
101296.396
101296.681
101296.98
101297.294
101297.621
101297.961
101298.31
101298.665
101299.018
101299.37
101299.722
101300.072
101300.42
101300.748
101301.002
101301.112
101301.02
101300.803
101300.612
101300.482
101300.334
101300.06
101299.555
101298.895
101298.131
101297.304
101296.451
101295.68
101295.159
101294.728
101293.263
101295.855
101295.858
101295.863
101295.871
101295.881
101295.893
101295.907
101295.924
101295.944
101295.966
101295.991
101296.018
101296.048
101296.081
101296.117
101296.156
101296.198
101296.243
101296.291
101296.343
101296.398
101296.457
101296.519
101296.585
101296.656
101296.73
101296.809
101296.892
101296.981
101297.074
101297.173
101297.278
101297.388
101297.504
101297.628
101297.758
101297.895
101298.041
101298.194
101298.356
101298.527
101298.708
101298.899
101299.101
101299.314
101299.539
101299.776
101300.027
101300.291
101300.569
101300.861
101301.168
101301.49
101301.825
101302.175
101302.537
101302.909
101303.289
101303.673
101304.057
101304.438
101304.811
101305.164
101305.492
101305.795
101306.08
101306.269
101306.22
101305.867
101305.455
101305.204
101305.02
101304.777
101304.466
101304.064
101303.675
101303.347
101302.723
101301.963
101300.966
101299.473
101299.477
101299.483
101299.491
101299.502
101299.516
101299.531
101299.55
101299.571
101299.595
101299.621
101299.651
101299.683
101299.718
101299.756
101299.797
101299.841
101299.888
101299.938
101299.992
101300.05
101300.111
101300.176
101300.244
101300.317
101300.394
101300.476
101300.562
101300.653
101300.749
101300.85
101300.957
101301.069
101301.187
101301.312
101301.443
101301.582
101301.728
101301.882
101302.044
101302.215
101302.395
101302.585
101302.785
101302.995
101303.216
101303.449
101303.693
101303.95
101304.22
101304.503
101304.799
101305.109
101305.433
101305.769
101306.119
101306.481
101306.854
101307.238
101307.634
101308.041
101308.452
101308.862
101309.266
101309.649
101309.995
101310.285
101310.546
101310.818
101310.974
101310.833
101310.489
101309.978
101309.41
101309.127
101308.893
101308.335
101307.54
101306.917
101306.236
101302.773
101302.778
101302.785
101302.795
101302.806
101302.821
101302.838
101302.857
101302.88
101302.904
101302.932
101302.962
101302.995
101303.031
101303.07
101303.112
101303.157
101303.205
101303.257
101303.312
101303.37
101303.431
101303.497
101303.566
101303.639
101303.717
101303.799
101303.884
101303.975
101304.069
101304.169
101304.274
101304.385
101304.501
101304.624
101304.752
101304.888
101305.03
101305.181
101305.338
101305.504
101305.678
101305.861
101306.053
101306.255
101306.467
101306.69
101306.923
101307.167
101307.423
101307.69
101307.969
101308.26
101308.562
101308.876
101309.201
101309.537
101309.885
101310.252
101310.635
101311.011
101311.376
101311.737
101312.108
101312.509
101312.935
101313.347
101313.686
101313.917
101314.01
101313.986
101313.871
101313.695
101313.357
101312.512
101311.749
101311.399
101311.389
101311.756
101311.401
101305.757
101305.762
101305.77
101305.78
101305.793
101305.808
101305.826
101305.846
101305.869
101305.894
101305.922
101305.953
101305.986
101306.023
101306.062
101306.103
101306.148
101306.196
101306.247
101306.301
101306.359
101306.42
101306.484
101306.552
101306.624
101306.699
101306.778
101306.862
101306.949
101307.041
101307.138
101307.239
101307.346
101307.458
101307.575
101307.698
101307.828
101307.965
101308.108
101308.259
101308.417
101308.583
101308.757
101308.939
101309.131
101309.332
101309.542
101309.762
101309.992
101310.233
101310.484
101310.747
101311.022
101311.31
101311.612
101311.928
101312.252
101312.584
101312.926
101313.274
101313.63
101313.994
101314.364
101314.73
101315.088
101315.423
101315.741
101316.033
101316.338
101316.709
101317.076
101317.278
101317.333
101317.283
101317.198
101316.86
101316.059
101315.043
101313.77
101313.037
101308.43
101308.436
101308.444
101308.455
101308.468
101308.484
101308.502
101308.522
101308.545
101308.57
101308.598
101308.628
101308.661
101308.696
101308.735
101308.776
101308.819
101308.866
101308.915
101308.968
101309.023
101309.082
101309.143
101309.209
101309.278
101309.349
101309.425
101309.504
101309.587
101309.675
101309.767
101309.863
101309.964
101310.07
101310.181
101310.298
101310.421
101310.549
101310.685
101310.828
101310.978
101311.134
101311.299
101311.471
101311.652
101311.841
101312.039
101312.247
101312.464
101312.692
101312.93
101313.179
101313.44
101313.714
101313.999
101314.296
101314.601
101314.916
101315.243
101315.578
101315.923
101316.282
101316.655
101317.04
101317.42
101317.785
101318.119
101318.422
101318.696
101318.913
101319.084
101319.282
101319.511
101319.742
101319.836
101319.769
101319.443
101318.97
101318.691
101318.153
101310.807
101310.814
101310.823
101310.833
101310.846
101310.861
101310.879
101310.899
101310.921
101310.945
101310.972
101311.001
101311.033
101311.067
101311.103
101311.142
101311.184
101311.228
101311.275
101311.325
101311.377
101311.432
101311.491
101311.552
101311.616
101311.684
101311.754
101311.829
101311.907
101311.988
101312.074
101312.164
101312.258
101312.357
101312.461
101312.571
101312.686
101312.807
101312.935
101313.069
101313.209
101313.357
101313.511
101313.673
101313.844
101314.022
101314.21
101314.407
101314.614
101314.831
101315.057
101315.294
101315.541
101315.799
101316.068
101316.348
101316.638
101316.941
101317.256
101317.583
101317.924
101318.277
101318.644
101319.023
101319.411
101319.805
101320.202
101320.598
101320.966
101321.268
101321.485
101321.677
101321.786
101321.788
101321.737
101321.665
101321.617
101321.598
101321.435
101321.103
101312.907
101312.913
101312.921
101312.931
101312.944
101312.958
101312.974
101312.993
101313.013
101313.036
101313.061
101313.088
101313.118
101313.15
101313.184
101313.22
101313.258
101313.299
101313.343
101313.389
101313.437
101313.488
101313.542
101313.599
101313.658
101313.72
101313.785
101313.853
101313.924
101313.999
101314.077
101314.16
101314.248
101314.341
101314.439
101314.541
101314.648
101314.76
101314.879
101315.004
101315.136
101315.275
101315.421
101315.574
101315.735
101315.905
101316.084
101316.271
101316.468
101316.675
101316.892
101317.119
101317.356
101317.606
101317.866
101318.138
101318.423
101318.721
101319.033
101319.359
101319.7
101320.056
101320.43
101320.82
101321.226
101321.646
101322.077
101322.515
101322.953
101323.384
101323.802
101324.14
101324.375
101324.491
101324.558
101324.506
101324.307
101323.882
101323.308
101322.973
101314.754
101314.758
101314.765
101314.774
101314.784
101314.797
101314.811
101314.827
101314.846
101314.866
101314.888
101314.912
101314.939
101314.967
101314.998
101315.03
101315.065
101315.102
101315.141
101315.182
101315.225
101315.271
101315.319
101315.369
101315.422
101315.477
101315.536
101315.597
101315.663
101315.733
101315.807
101315.884
101315.965
101316.049
101316.138
101316.232
101316.332
101316.436
101316.547
101316.664
101316.788
101316.919
101317.057
101317.203
101317.357
101317.52
101317.691
101317.872
101318.062
101318.262
101318.472
101318.693
101318.925
101319.169
101319.426
101319.696
101319.98
101320.279
101320.593
101320.924
101321.273
101321.639
101322.025
101322.433
101322.861
101323.31
101323.779
101324.264
101324.762
101325.266
101325.768
101326.255
101326.72
101327.15
101327.469
101327.652
101327.642
101327.431
101327.056
101326.676
101316.359
101316.362
101316.367
101316.373
101316.381
101316.39
101316.402
101316.415
101316.43
101316.447
101316.465
101316.486
101316.509
101316.533
101316.559
101316.587
101316.617
101316.649
101316.683
101316.719
101316.757
101316.798
101316.841
101316.887
101316.935
101316.986
101317.041
101317.098
101317.157
101317.218
101317.283
101317.352
101317.425
101317.503
101317.584
101317.669
101317.761
101317.86
101317.966
101318.077
101318.194
101318.319
101318.45
101318.589
101318.736
101318.892
101319.056
101319.23
101319.413
101319.606
101319.81
101320.025
101320.252
101320.498
101320.76
101321.035
101321.322
101321.624
101321.943
101322.281
101322.639
101323.018
101323.42
101323.847
101324.3
101324.78
101325.286
101325.817
101326.371
101326.942
101327.525
101328.111
101328.685
101329.232
101329.73
101330.153
101330.469
101330.673
101330.74
101330.514
101317.757
101317.757
101317.758
101317.761
101317.766
101317.772
101317.78
101317.789
101317.801
101317.813
101317.828
101317.844
101317.862
101317.882
101317.903
101317.927
101317.952
101317.979
101318.008
101318.039
101318.072
101318.106
101318.142
101318.181
101318.222
101318.265
101318.31
101318.359
101318.41
101318.464
101318.522
101318.583
101318.647
101318.715
101318.79
101318.87
101318.955
101319.045
101319.14
101319.242
101319.351
101319.468
101319.593
101319.726
101319.869
101320.022
101320.186
101320.361
101320.549
101320.749
101320.96
101321.183
101321.413
101321.647
101321.891
101322.151
101322.427
101322.721
101323.049
101323.41
101323.789
101324.188
101324.609
101325.054
101325.526
101326.029
101326.566
101327.135
101327.736
101328.367
101329.023
101329.698
101330.381
101331.06
101331.715
101332.324
101332.86
101333.287
101333.585
101333.662
101318.945
101318.941
101318.938
101318.937
101318.938
101318.939
101318.943
101318.948
101318.954
101318.963
101318.972
101318.984
101318.997
101319.011
101319.028
101319.045
101319.065
101319.086
101319.109
101319.134
101319.16
101319.189
101319.219
101319.252
101319.286
101319.323
101319.363
101319.405
101319.45
101319.497
101319.546
101319.6
101319.66
101319.724
101319.791
101319.862
101319.94
101320.023
101320.112
101320.206
101320.308
101320.416
101320.533
101320.658
101320.791
101320.933
101321.085
101321.247
101321.42
101321.605
101321.804
101322.02
101322.256
101322.51
101322.782
101323.076
101323.392
101323.726
101324.05
101324.371
101324.72
101325.097
101325.504
101325.949
101326.455
101327.01
101327.592
101328.203
101328.845
101329.518
101330.222
101330.96
101331.724
101332.502
101333.279
101334.032
101334.726
101335.32
101335.769
101335.989
101319.939
101319.932
101319.925
101319.919
101319.915
101319.913
101319.912
101319.912
101319.914
101319.918
101319.922
101319.929
101319.937
101319.947
101319.958
101319.971
101319.985
101320.001
101320.018
101320.038
101320.059
101320.082
101320.107
101320.133
101320.163
101320.194
101320.227
101320.262
101320.299
101320.34
101320.387
101320.436
101320.486
101320.542
101320.603
101320.667
101320.736
101320.811
101320.891
101320.978
101321.072
101321.173
101321.282
101321.399
101321.525
101321.66
101321.804
101321.959
101322.125
101322.302
101322.491
101322.695
101322.912
101323.144
101323.391
101323.654
101323.936
101324.244
101324.589
101324.971
101325.382
101325.831
101326.315
101326.817
101327.299
101327.785
101328.323
101328.905
101329.526
101330.189
101330.94
101331.762
101332.611
101333.489
101334.395
101335.315
101336.177
101336.926
101337.502
101337.846
101320.733
101320.722
101320.71
101320.7
101320.692
101320.685
101320.679
101320.675
101320.672
101320.671
101320.671
101320.673
101320.676
101320.681
101320.687
101320.695
101320.705
101320.716
101320.729
101320.744
101320.761
101320.779
101320.798
101320.819
101320.842
101320.866
101320.893
101320.925
101320.96
101320.995
101321.033
101321.074
101321.118
101321.166
101321.218
101321.275
101321.336
101321.403
101321.475
101321.553
101321.638
101321.73
101321.83
101321.937
101322.053
101322.179
101322.314
101322.459