/*--------------------------------*- C++ -*----------------------------------*\
  =========                 |
  \\      /  F ield         | OpenFOAM: The Open Source CFD Toolbox
   \\    /   O peration     | Website:  https://openfoam.org
    \\  /    A nd           | Version:  8
     \\/     M anipulation  |
\*---------------------------------------------------------------------------*/
FoamFile
{
    version     2.0;
    format      ascii;
    class       volScalarField;
    location    "0.008";
    object      T;
}
// * * * * * * * * * * * * * * * * * * * * * * * * * * * * * * * * * * * * * //

dimensions      [0 0 0 1 0 0 0];

internalField   nonuniform List<scalar> 
42400
(
471.935725
469.784551
467.578768
465.318499
463.00404
460.635884
458.214752
455.741615
453.217733
450.644688
448.024416
445.359245
442.651932
439.905698
437.124262
434.311874
431.47334
428.614047
425.739976
422.857711
419.974436
417.097922
414.236497
411.399012
408.594779
405.833506
403.125209
400.480111
397.90853
395.42075
393.026891
390.73677
388.559764
386.504677
384.579617
382.791906
381.147995
379.653445
378.312908
377.130105
376.107761
375.247642
374.550529
374.016257
373.643749
373.431132
373.376461
373.473303
373.719441
374.108881
374.634607
375.289157
376.06079
376.935019
377.89313
378.914196
379.959265
380.991342
381.990664
382.990222
383.625338
383.820077
383.568563
382.874673
381.864294
380.437816
378.442657
375.751134
372.230031
367.877021
363.037573
357.227427
350.528477
344.314435
338.081099
330.877094
323.60832
317.802096
312.432258
307.791076
471.977225
469.909956
467.790258
465.618295
463.394406
461.119132
458.793244
456.417773
453.994041
451.523697
449.008751
446.451612
443.855123
441.222594
438.557837
435.865197
433.149577
430.416457
427.671912
424.922616
422.175839
419.439437
416.72182
414.031921
411.37914
408.773281
406.22447
403.743059
401.339526
399.024348
396.80788
394.700222
392.711098
390.849743
389.12482
387.544295
386.115305
384.844038
383.735637
382.794058
382.021952
381.42062
380.989952
380.728343
380.632858
380.697594
380.916305
381.280738
381.779548
382.398175
383.118252
383.919983
384.773711
385.646661
386.516608
387.392306
388.022584
388.323199
388.251204
387.621942
386.743151
385.525893
383.88696
381.655565
378.722749
375.031745
370.564854
365.413949
359.582114
353.086125
346.418032
339.689302
332.607956
325.827572
319.885484
314.40367
309.589817
305.30413
302.005487
300.337137
472.031458
470.073819
468.066569
466.009905
463.904211
461.750077
459.548335
457.300085
455.006733
452.67002
450.292064
447.875391
445.422971
442.938253
440.425198
437.888302
435.332624
432.763802
430.188063
427.612229
425.043708
422.490478
419.96106
417.464477
415.010197
412.608074
410.268258
408.001111
405.817104
403.726712
401.740316
399.86806
398.11971
396.504505
395.031016
393.706919
392.538803
391.531967
390.690255
390.015883
389.509241
389.168692
388.990175
388.967058
389.086757
389.343139
389.717309
390.190241
390.735448
391.322566
391.923974
392.524451
393.006735
393.219841
393.122706
392.553325
391.727536
390.623993
389.164994
387.245444
384.730062
381.565995
377.694015
373.109938
367.850823
361.979359
355.595837
348.884334
342.025128
335.089012
328.349571
322.169889
316.514705
311.510197
307.280661
304.076853
301.47079
300.223867
299.950122
299.905561
472.09773
470.274037
468.404147
466.488282
464.52686
462.520521
460.470157
458.376946
456.242384
454.068324
451.857004
449.611092
447.333712
445.028482
442.69954
440.351569
437.989818
435.620114
433.248868
430.883068
428.530272
426.198576
423.89658
421.633342
419.418318
417.261291
415.172286
413.161469
411.239025
409.415031
407.699308
406.101227
404.629508
403.291997
402.095421
401.045148
400.144928
399.3966
398.79983
398.35171
398.046511
397.876201
397.828438
397.882353
398.022825
398.224541
398.463147
398.720667
398.886438
398.862336
398.607292
398.001549
397.112625
395.995207
394.58239
392.800481
390.525846
387.694831
384.266005
380.213004
375.5131
370.198024
364.337548
358.028548
351.396783
344.583155
337.759195
331.099306
324.816459
319.03952
313.888638
309.497074
305.957362
303.340164
301.420319
300.23002
299.965624
299.900141
299.878888
299.876773
472.174109
470.504782
468.793182
467.039557
465.24436
463.40828
461.532271
459.617589
457.66582
455.67892
453.659248
451.609599
449.533237
447.433923
445.315944
443.184125
441.043847
438.901051
436.762232
434.634425
432.525182
430.442534
428.394938
426.391207
424.440431
422.551873
420.734848
418.998575
417.352009
415.803645
414.361292
413.031838
411.820982
410.732928
409.770062
408.932654
408.218431
407.62221
407.136069
406.747761
406.441525
406.200118
406.003611
405.833347
405.588184
405.218736
404.668685
403.872492
402.870275
401.66959
400.214913
398.444491
396.268479
393.618415
390.458526
386.762725
382.518798
377.733002
372.405203
366.590039
360.374283
353.868997
347.207987
340.531147
333.982184
327.710618
321.873335
316.591952
312.001518
308.164237
305.139558
302.882454
301.377442
300.377071
300.011504
299.921876
299.893593
299.882453
299.872197
299.865323
472.256216
470.752835
469.211419
467.632249
466.01582
464.362869
462.674408
460.951751
459.19655
457.410825
455.596995
453.757912
451.896881
450.017689
448.124616
446.22245
444.316483
442.412506
440.516785
438.63603
436.777346
434.948168
433.156174
431.409182
429.715025
428.081393
426.515659
425.024676
423.614553
422.290389
421.055989
419.913581
418.863489
417.903764
417.029849
416.234668
415.507929
414.836449
414.204681
413.569187
412.893828
412.138852
411.259751
410.207727
409.023379
407.665743
406.090895
404.248078
402.065986
399.488627
396.482195
393.019986
389.086517
384.679101
379.807622
374.496861
368.768602
362.687708
356.344213
349.844769
343.311797
336.882505
330.694074
324.874848
319.528621
314.75422
310.642708
307.256019
304.61862
302.68237
301.35777
300.553592
300.103931
299.956085
299.917247
299.899436
299.884402
299.870193
299.852686
299.841466
472.336635
470.995794
469.621101
468.212875
466.771652
465.2982
463.793555
462.25904
460.696293
459.107297
457.494401
455.860338
454.208248
452.541684
450.864613
449.181415
447.496859
445.816077
444.144515
442.48787
440.852011
439.24287
437.666321
436.128025
434.633257
433.186703
431.792235
430.452659
429.169441
427.94241
426.769444
425.646152
424.565793
423.518732
422.490511
421.459469
420.400199
419.284388
418.083015
416.792578
415.385461
413.83053
412.092069
410.126471
407.875799
405.305051
402.382607
399.081678
395.38297
391.276529
386.76272
381.853418
376.57252
370.954034
365.035897
358.874819
352.558073
346.190657
339.882006
333.75061
327.911601
322.483301
317.562583
313.231851
309.548256
306.537058
304.197438
302.487747
301.328496
300.608437
300.208159
300.012116
299.945891
299.914276
299.886694
299.864099
299.847652
299.835004
299.833574
299.832282
472.405652
471.204318
469.972737
468.711258
467.42042
466.100974
464.753897
463.380416
461.982018
460.560471
459.117835
457.656462
456.179008
454.688416
453.187901
451.680923
450.171145
448.66237
447.158472
445.663295
444.180542
442.713635
441.265555
439.838659
438.43447
437.053454
435.694756
434.355949
433.032763
431.718891
430.405632
429.080824
427.729823
426.336398
424.881566
423.347629
421.713454
419.954005
418.038942
415.92985
413.596791
411.009788
408.139848
404.961768
401.455036
397.605097
393.404557
388.854252
383.963975
378.753461
373.252364
367.499987
361.544438
355.430082
349.238641
343.061856
336.99742
331.153294
325.637094
320.55068
315.973897
311.982655
308.617888
305.90196
303.813844
302.293967
301.253387
300.594011
300.213611
300.01588
299.918275
299.876773
299.853643
299.841576
299.838638
299.837017
299.834596
299.83351
299.832924
299.833054
472.453521
471.348951
470.216622
469.056864
467.870156
466.657133
465.418597
464.155525
462.869068
461.560558
460.231499
458.88356
457.518554
456.138409
454.745136
453.340771
451.92731
450.506634
449.080402
447.649936
446.216088
444.77908
443.338332
441.892278
440.43817
438.972296
437.489248
435.981364
434.439291
432.851824
431.205607
429.485974
427.675947
425.754745
423.701144
421.492572
419.10547
416.515848
413.699942
410.634934
407.301202
403.682516
399.76707
395.548457
391.026547
386.208242
381.108073
375.748728
370.161411
364.386618
358.472744
352.47169
346.444552
340.478305
334.666041
329.10037
323.873048
319.075707
314.790311
311.076912
307.971153
305.475676
303.559768
302.164927
301.210189
300.600698
300.237166
300.033647
299.925039
299.870953
299.854568
299.847683
299.842363
299.839044
299.837374
299.836067
299.834494
299.833524
299.833607
299.833798
472.473169
471.408291
470.316585
469.198272
468.053661
466.883149
465.68722
464.466439
463.22144
461.952917
460.661604
459.348246
458.013571
456.658244
455.282811
453.887637
452.472818
451.038098
449.582774
448.105566
446.604455
445.076471
443.517449
441.921693
440.281668
438.589525
436.836055
435.011064
433.102578
431.096821
428.97856
426.731288
424.337438
421.778691
419.036412
416.092095
412.927787
409.527691
405.8784
401.969604
397.794876
393.352442
388.645928
383.68505
378.486207
373.072957
367.476538
361.736394
355.900701
350.026184
344.171332
338.408815
332.825921
327.512164
322.554468
318.032708
314.011315
310.5379
307.639548
305.314831
303.52911
302.219737
301.305365
300.70032
300.322598
300.100377
299.976797
299.908165
299.874485
299.860231
299.851567
299.846531
299.84218
299.838047
299.836456
299.83619
299.834735
299.832561
299.832416
299.831897
472.463919
471.380304
470.269252
469.130827
467.965122
466.772246
465.552313
464.30542
463.031625
461.730919
460.403203
459.048249
457.665647
456.254757
454.814633
453.343946
451.839833
450.298204
448.715209
447.086863
445.408402
443.674246
441.877998
440.01268
438.070834
436.042446
433.916381
431.680494
429.32169
426.826062
424.179093
421.365922
418.371637
415.181582
411.78238
408.162299
404.3117
400.223661
395.89464
391.325176
386.520599
381.491771
376.255802
370.836715
365.265975
359.582927
353.835263
348.079161
342.378798
336.802218
331.421925
326.327242
321.598227
317.305621
313.504556
310.237738
307.514918
305.321122
303.618448
302.351094
301.4481
300.832855
300.430662
300.176238
300.02144
299.931967
299.884339
299.863478
299.854057
299.848237
299.843559
299.839909
299.836842
299.832919
299.832582
299.832704
299.832675
299.829726
299.8241
299.821988
472.429094
471.275059
470.091673
468.87884
467.63642
466.364212
465.06193
463.729184
462.365081
460.967742
459.535838
458.067713
456.561334
455.014235
453.423465
451.785534
450.097417
448.356133
446.557138
444.694543
442.761734
440.751315
438.655043
436.463864
434.167911
431.756542
429.218422
426.541652
423.713934
420.722772
417.555686
414.20082
410.647411
406.886057
402.909218
398.711797
394.291761
389.650833
384.795232
379.736459
374.492094
369.086579
363.55189
357.927982
352.262926
346.612947
341.041767
335.619155
330.418187
325.508378
320.9628
316.847939
313.211662
310.08444
307.475451
305.370368
303.727468
302.48469
301.575511
300.934274
300.49951
300.216799
300.041875
299.933693
299.87788
299.852828
299.843248
299.839019
299.835677
299.833338
299.832126
299.832048
299.831782
299.830273
299.828093
299.826812
299.825661
299.822414
299.819062
299.81631
472.370925
471.099232
469.794928
468.457636
467.086842
465.681871
464.241254
462.763517
461.247319
459.69177
458.094816
456.454022
454.766534
453.029034
451.237703
449.388186
447.475535
445.494198
443.437962
441.299888
439.072346
436.747007
434.31488
431.766352
429.091266
426.279024
423.318723
420.199312
416.909904
413.440318
409.78121
405.924495
401.863831
397.595174
393.117409
388.433045
383.548988
378.477334
373.236197
367.850479
362.35253
356.782603
351.188931
345.627245
340.159886
334.854443
329.781222
325.009687
320.603864
316.617774
313.093354
310.051774
307.500235
305.425521
303.794022
302.55508
301.644892
300.998274
300.5531
300.257029
300.067782
299.953867
299.889665
299.867646
299.856587
299.84934
299.843748
299.839306
299.835913
299.833287
299.830796
299.828747
299.827568
299.825833
299.823572
299.821289
299.821447
299.821912
299.819896
299.817846
472.296666
470.874785
469.416218
467.920325
466.386253
464.812806
463.198754
461.542581
459.842355
458.095779
456.300146
454.452303
452.548608
450.584888
448.556424
446.457913
444.283433
442.026443
439.679777
437.235654
434.685704
432.02101
429.232177
426.309423
423.2427
420.021836
416.637053
413.079061
409.339384
405.410769
401.287665
396.966782
392.447715
387.733656
382.832152
377.755902
372.523542
367.160375
361.698946
356.179391
350.649416
345.163803
339.783277
334.572565
329.597991
324.924466
320.611863
316.710988
313.259104
310.276714
307.765055
305.701719
304.053274
302.775651
301.819283
301.129162
300.649227
300.328999
300.124767
300.000619
299.929118
299.89187
299.874215
299.863276
299.85467
299.848896
299.842545
299.837669
299.833817
299.830744
299.827396
299.82321
299.81931
299.817611
299.817285
299.818659
299.820688
299.821562
299.820255
299.818984
472.21187
470.618516
468.983905
467.307179
465.5872
463.822531
462.011675
460.152604
458.242895
456.279695
454.25968
452.179028
450.033378
447.817805
445.5268
443.154259
440.693482
438.137181
435.477505
432.706087
429.814101
426.792361
423.631433
420.321902
416.854636
413.220984
409.413107
405.424386
401.249899
396.886968
392.335791
387.600127
382.688043
377.612668
372.392937
367.054247
361.62895
356.156598
350.683815
345.263706
339.954671
334.8186
329.918371
325.314886
321.062894
317.20825
313.784366
310.810096
308.287093
306.200635
304.518834
303.198929
302.190336
301.438824
300.896715
300.51924
300.265761
300.100434
299.997111
299.93508
299.89877
299.87653
299.861741
299.85136
299.844596
299.839643
299.835585
299.832708
299.82925
299.825702
299.822533
299.818919
299.814846
299.811616
299.811146
299.81257
299.816735
299.817603
299.81647
299.812512
472.119184
470.338408
468.511408
466.637113
464.714132
462.740849
460.715334
458.635139
456.497371
454.298648
452.035067
449.702179
447.294962
444.807813
442.234541
439.568374
436.801987
433.927542
430.936755
427.820985
424.571348
421.179053
417.635507
413.932595
410.063003
406.020621
401.801011
397.401942
392.823998
388.071244
383.151928
378.0792
372.871796
367.554629
362.15922
356.723869
351.293476
345.918903
340.655807
335.562854
330.699367
326.122415
321.883623
318.027041
314.582864
311.567751
308.984035
306.820342
305.050943
303.639278
302.541612
301.710836
301.099703
300.662051
300.357045
300.152278
300.021027
299.934954
299.889047
299.863948
299.849812
299.840992
299.834925
299.831297
299.829178
299.827144
299.824548
299.819941
299.815952
299.812682
299.809278
299.806609
299.803996
299.80116
299.797457
299.797067
299.802814
299.811369
299.812446
299.807103
472.020152
470.039116
468.006565
465.921275
463.781687
461.585835
459.331328
457.015306
454.634408
452.184739
449.661843
447.060693
444.375675
441.6006
438.728722
435.752783
432.66507
429.457508
426.121812
422.64972
419.033144
415.264441
411.336732
407.244289
402.982985
398.550807
393.948439
389.179889
384.253153
379.180885
373.981038
368.677399
363.299984
357.885178
352.47555
347.119246
341.868885
336.779924
331.908473
327.308664
323.029832
319.113332
315.589896
312.477985
309.783722
307.500205
305.608201
304.077575
302.870484
301.944151
301.254091
300.756567
300.410234
300.177875
300.027609
299.933372
299.879443
299.861559
299.851752
299.845655
299.840949
299.836706
299.832544
299.828118
299.823524
299.820863
299.818286
299.815406
299.811438
299.806354
299.801232
299.79845
299.797094
299.796544
299.794648
299.791331
299.791571
299.80286
299.811991
299.813491
471.916025
469.724425
467.475747
465.168554
462.80101
460.370834
457.87527
455.311044
452.674342
449.960786
447.16542
444.282715
441.306582
438.230412
435.047127
431.749271
428.329163
424.779076
421.091416
417.258965
413.275197
409.13464
404.8333
400.369153
395.742689
390.957503
386.02092
380.944623
375.745251
370.444913
365.071554
359.659112
354.24737
348.881436
343.610783
338.487803
333.565905
328.897221
324.530009
320.506078
316.858693
313.610168
310.771208
308.339746
306.302716
304.636114
303.306496
302.273821
301.494726
300.925552
300.524495
300.253511
300.07928
299.973381
299.913472
299.884797
299.871324
299.86207
299.85459
299.846965
299.840718
299.835694
299.831513
299.827457
299.823745
299.820856
299.818185
299.81555
299.811816
299.807899
299.802306
299.798744
299.797495
299.79828
299.797967
299.793999
299.791025
299.796253
299.809131
299.817205
471.807784
469.397287
466.923898
464.385954
461.781347
459.107481
456.361243
453.538972
450.636445
447.648868
444.570891
441.396627
438.119709
434.733362
431.230536
427.604077
423.846884
419.95215
415.913644
411.726059
407.385405
402.889472
398.238333
393.434912
388.485561
383.400665
378.195211
372.889287
367.508466
362.08399
356.652703
351.256652
345.942299
340.759321
335.758971
330.992078
326.506784
322.346251
318.546195
315.133032
312.122746
309.519401
307.314372
305.487467
304.008773
302.841695
301.945871
301.278394
300.796264
300.45928
300.231772
300.083573
299.990599
299.934341
299.901011
299.880101
299.865321
299.854926
299.847435
299.841925
299.836787
299.832068
299.828711
299.825217
299.821373
299.817427
299.814228
299.811731
299.809778
299.806279
299.802888
299.800303
299.800383
299.803594
299.809439
299.814867
299.812442
299.802829
299.805293
299.814677
471.696527
469.061022
466.356628
463.581452
460.733114
457.808718
454.804826
451.717445
448.542028
445.273487
441.906235
438.434248
434.851167
431.150456
427.325551
423.37007
419.278076
415.044395
410.66498
406.13734
401.461016
396.638102
391.673805
386.577012
381.360848
376.043177
370.647007
365.20073
359.738146
354.298197
348.924364
343.663673
338.565328
333.678965
329.052631
324.730527
320.750762
317.143473
313.928605
311.11511
308.700292
306.668906
304.996991
303.65184
302.595649
301.787296
301.185005
300.74882
300.441864
300.23146
300.090878
299.99902
299.939804
299.901697
299.8768
299.860474
299.850045
299.843134
299.839188
299.836125
299.83288
299.827566
299.82193
299.816566
299.811124
299.806179
299.803444
299.801485
299.800894
299.801701
299.802768
299.804309
299.806774
299.812257
299.817062
299.819974
299.823182
299.820401
299.814458
299.815751
472.52708
471.571035
470.590444
469.585107
468.554821
467.49938
466.418561
465.312125
464.179807
463.021314
461.836316
460.624444
459.385278
458.118348
456.82312
455.498995
454.145296
452.761268
451.346062
449.898736
448.418245
446.903433
445.35303
443.765646
442.139764
440.473743
438.765806
437.014046
435.216423
433.370761
431.474755
429.525972
427.521853
425.459727
423.33682
421.150259
418.897086
416.574296
414.178828
411.707594
409.157492
406.525428
403.80827
401.002756
398.105443
395.113084
392.02243
388.830301
385.533676
382.129836
378.616653
374.993098
371.260084
367.421816
363.487766
359.475403
355.413585
351.346238
347.335432
343.462427
339.824918
336.528475
333.672169
331.320314
329.498731
328.195807
327.354894
326.891035
326.669927
326.605706
326.626559
326.706018
326.784832
326.868388
326.958724
327.056952
327.138049
327.254816
327.471293
327.770642
472.519537
471.548259
470.552082
469.530829
468.484325
467.412385
466.314814
465.191397
464.041899
462.866051
461.663556
460.434073
459.177222
457.892569
456.579627
455.237844
453.866601
452.465207
451.032887
449.568782
448.071939
446.541313
444.975754
443.374013
441.734731
440.056446
438.337589
436.576485
434.771358
432.920333
431.021447
429.072648
427.071817
425.016777
422.905314
420.735209
418.504235
416.210212
413.851022
411.424599
408.928976
406.362336
403.723022
401.009544
398.220584
395.354541
392.409485
389.383468
386.274675
383.081095
379.800625
376.431251
372.971431
369.420837
365.781586
362.060142
358.269992
354.435064
350.593553
346.801328
343.133458
339.681348
336.537214
333.771121
331.441038
329.582692
328.203863
327.278882
326.744093
326.518597
326.459188
326.506938
326.632156
326.787607
326.963899
327.163991
327.374048
327.647856
327.99737
328.439002
472.507252
471.511174
470.489637
469.442513
468.369679
467.271007
466.146359
464.995579
463.818494
462.614904
461.384579
460.127254
458.842627
457.53035
456.190026
454.821201
453.423362
451.995929
450.538248
449.049588
447.529138
445.975999
444.389181
442.767608
441.11011
439.415427
437.682217
435.909055
434.09444
432.236808
430.334543
428.385985
426.38944
424.343195
422.245517
420.094658
417.888873
415.626367
413.305346
410.924043
408.480986
405.975681
403.407616
400.776432
398.082104
395.325007
392.505855
389.625007
386.682035
383.676044
380.606389
377.471965
374.271288
371.00276
367.665239
364.259093
360.787906
357.260907
353.69624
350.12446
346.592072
343.163862
339.9092
336.893325
334.183818
331.841698
329.913046
328.421222
327.36171
326.701238
326.414734
326.345399
326.38678
326.581335
326.846523
327.160524
327.556467
328.026336
328.50805
329.006551
472.489503
471.457598
470.399423
469.314926
468.20406
467.066781
465.903039
464.712774
463.495912
462.252362
460.982011
459.684717
458.360312
457.008592
455.629312
454.222185
452.786871
451.322976
449.830044
448.307549
446.754893
445.171401
443.556315
441.908789
440.227893
438.512608
436.76183
434.974371
433.148965
431.284279
429.37892
427.431458
425.440437
423.404394
421.32189
419.191532
417.012015
414.782148
412.500906
410.167458
407.780977
405.34005
402.843664
400.291065
397.682822
395.022136
392.310642
389.550559
386.744797
383.895808
381.004712
378.071139
375.09497
372.075509
369.011347
365.900831
362.742935
359.538768
356.293966
353.021278
349.743809
346.498748
343.332924
340.292822
337.432194
334.807636
332.47482
330.483306
328.870805
327.655939
326.833073
326.395811
326.307977
326.334984
326.484161
326.811683
327.261725
327.791113
328.361067
329.015554
472.465634
471.385542
470.278087
469.143309
467.981263
466.792015
465.575632
464.332181
463.061723
461.764313
460.439994
459.088796
457.710731
456.305791
454.873941
453.415118
451.929223
450.416116
448.875608
447.307458
445.71136
444.086943
442.433761
440.751285
439.038903
437.295911
435.521515
433.714826
431.874862
430.000556
428.090761
426.144264
424.159801
422.136079
420.071808
417.965718
415.816616
413.623414
411.385183
409.101189
406.770923
404.394165
401.971073
399.502295
396.987984
394.42673
391.819332
389.167683
386.480668
383.762061
381.016372
378.249004
375.461585
372.654443
369.826118
366.97578
364.10158
361.201512
358.274765
355.323345
352.354633
349.384669
346.440344
343.549726
340.746499
338.071266
335.569374
333.289651
331.277874
329.57316
328.204957
327.191681
326.531282
326.301913
326.284725
326.370739
326.652921
327.148639
327.823977
328.649152
472.435058
471.293231
470.122616
468.923359
467.69563
466.439618
465.155527
463.843572
462.503974
461.136961
459.742767
458.321625
456.873771
455.399437
453.898851
452.37223
450.819777
449.241674
447.638077
446.009105
444.354833
442.675284
440.970419
439.240124
437.484205
435.702375
433.894252
432.059343
430.197046
428.306644
426.387308
424.438104
422.458002
420.445891
418.400608
416.320963
414.20578
412.053944
409.864449
407.636477
405.369424
403.062969
400.71716
398.332475
395.909871
393.450857
390.957721
388.432916
385.873985
383.284013
380.666415
378.037647
375.402916
372.768417
370.137243
367.50962
364.881791
362.250781
359.613621
356.967411
354.311047
351.647385
348.985387
346.340858
343.732875
341.186866
338.732533
336.403232
334.232839
332.256932
330.511244
329.030624
327.837894
326.93958
326.409875
326.309898
326.333414
326.487299
326.881655
327.587734
472.397402
471.179533
469.931086
468.652312
467.343499
466.004966
464.637061
463.240154
461.814643
460.360949
458.879514
457.370806
455.835314
454.273549
452.686045
451.073348
449.436021
447.774633
446.089752
444.381936
442.651728
440.899634
439.126122
437.331597
435.516394
433.68076
431.824839
429.948658
428.052111
426.134947
424.196767
422.237015
420.254985
418.249829
416.220571
414.166132
412.085363
409.977094
407.840184
405.673596
403.47649
401.248225
398.988491
396.6974
394.375567
392.024189
389.6451
387.240807
384.814482
382.370352
379.913583
377.439515
374.953724
372.460937
369.98509
367.53061
365.103199
362.699684
360.315632
357.942396
355.576114
353.21333
350.852782
348.497409
346.155621
343.839776
341.566343
339.355474
337.230719
335.218108
333.344494
331.636705
330.117034
328.810818
327.746582
326.903
326.430091
326.398605
326.449098
326.65825
472.352748
471.044682
469.703874
468.330672
466.925471
465.488717
464.020896
462.522539
460.994223
459.436567
457.850239
456.235955
454.594482
452.926639
451.233297
449.515376
447.773843
446.009708
444.224017
442.417837
440.592252
438.748343
436.887173
435.009769
433.117099
431.210055
429.289424
427.355867
425.409899
423.45186
421.481904
419.499979
417.505812
415.498919
413.478603
411.443975
409.393977
407.327428
405.243077
403.139657
401.016023
398.871158
396.704272
394.514935
392.303171
390.069562
387.815332
385.54242
383.253523
380.952121
378.642413
376.329148
374.018276
371.716949
369.416788
367.125008
364.846208
362.61075
360.420787
358.272499
356.160146
354.072837
352.000148
349.938201
347.885734
345.845764
343.825463
341.834803
339.886507
337.995802
336.180079
334.458572
332.850789
331.377411
330.054956
328.894049
327.925771
327.100161
326.61468
326.598265
472.301775
470.890729
469.444425
467.96329
466.447814
464.898552
463.316122
461.701206
460.054553
458.376985
456.669397
454.932763
453.168141
451.376678
449.559605
447.718247
445.854014
443.968397
442.062968
440.139359
438.199259
436.244391
434.276493
432.297296
430.308497
428.311726
426.308517
424.30027
422.288219
420.273399
418.256614
416.238413
414.21906
412.198531
410.176504
408.152367
406.125241
404.094011
402.05737
400.013893
397.962123
395.900667
393.828247
391.743844
389.646813
387.536992
385.414811
383.281376
381.138546
378.988973
376.836108
374.684164
372.53804
370.403128
368.284905
366.190054
364.12637
362.079724
360.057235
358.060709
356.125814
354.250576
352.422304
350.631731
348.864209
347.111173
345.370931
343.646684
341.944037
340.270457
338.635187
337.049013
335.524279
334.07348
332.708817
331.444102
330.294369
329.260775
328.379994
327.577337
472.245829
470.721737
469.159581
467.559845
465.923091
464.249966
462.541199
460.79761
459.020109
457.20971
455.36753
453.494802
451.59288
449.663243
447.707505
445.727411
443.724839
441.701801
439.660426
437.60296
435.53174
433.449181
431.357749
429.259933
427.15821
425.055007
422.952663
420.853377
418.759169
416.671832
414.592892
412.523563
410.46472
408.41687
406.380141
404.35427
402.338618
400.3322
398.333722
396.341665
394.354335
392.36999
390.386911
388.403538
386.418583
384.431157
382.440883
380.448004
378.45346
376.458954
374.46697
372.480763
370.504308
368.542215
366.599555
364.681708
362.794011
360.941104
359.128818
357.364065
355.624619
353.916383
352.237055
350.627724
349.083601
347.58559
346.122477
344.6794
343.250416
341.837936
340.446196
339.080646
337.747743
336.454657
335.208962
334.01962
332.894918
331.840912
330.871113
329.976926
472.186811
470.543443
468.859008
467.134018
465.369084
463.564917
461.722338
459.842281
457.925803
455.974091
453.988476
451.97044
449.921625
447.843846
445.739094
443.609541
441.457545
439.285642
437.096542
434.893118
432.678384
430.455475
428.227616
425.998087
423.770181
421.547158
419.332195
417.128331
414.938407
412.765012
410.610428
408.476576
406.36497
404.276677
402.212291
400.171921
398.155197
396.161316
394.189031
392.236758
390.302619
388.384557
386.480442
384.588192
382.705901
380.831971
378.965238
377.105093
375.251581
373.405484
371.568377
369.742617
367.931317
366.138279
364.367817
362.624615
360.913498
359.239187
357.606048
356.017716
354.476312
352.98564
351.551227
350.14222
348.764862
347.415371
346.122312
344.897443
343.718043
342.571525
341.444745
340.334606
339.244543
338.178791
337.141984
336.139162
335.17553
334.25544
333.382035
332.535902
472.127008
470.362759
468.554355
466.70231
464.807251
462.869928
460.891226
458.872166
456.813926
454.71785
452.585458
450.418464
448.218788
445.988563
443.730151
441.446144
439.139373
436.812899
434.470011
432.114213
429.749199
427.378834
425.007113
422.638122
420.275987
417.92482
415.588658
413.27139
410.9767
408.707983
406.468279
404.260207
402.085909
399.947005
397.844573
395.779088
393.750433
391.757979
389.800534
387.876457
385.98371
384.119971
382.282738
380.46946
378.677667
376.905108
375.149877
373.410544
371.686257
369.976834
368.282825
366.605542
364.947062
363.310202
361.69842
360.115696
358.566365
357.054935
355.585797
354.162968
352.789577
351.467906
350.198992
348.981558
347.816488
346.70711
345.629589
344.579001
343.557743
342.565752
341.641405
340.758689
339.900916
339.066614
338.258229
337.479127
336.732822
336.021137
335.337242
334.633501
472.068998
470.187472
468.258755
466.283332
464.261821
462.19498
460.083723
457.929133
455.732475
453.495216
451.219038
448.905856
446.557837
444.177409
441.767277
439.330435
436.870162
434.39003
431.893891
429.385867
426.870324
424.351843
421.835179
419.325216
416.826908
414.345209
411.885003
409.451019
407.047753
404.679376
402.349663
400.061915
397.818892
395.622752
393.475047
391.376622
389.32764
387.327629
385.37548
383.469518
381.607583
379.78713
378.005345
376.259275
374.545964
372.862595
371.206624
369.575913
367.968846
366.384421
364.822327
363.282977
361.767511
360.277766
358.81621
357.385833
355.98999
354.632251
353.316208
352.045445
350.823212
349.652232
348.534543
347.471445
346.463398
345.509072
344.604926
343.749217
342.943636
342.192864
341.467954
340.762093
340.105017
339.505678
338.966507
338.49403
338.094545
337.761762
337.447507
337.023899
472.015377
470.025426
467.985438
465.895844
463.75722
461.570306
459.336014
457.055456
454.729951
452.361054
449.950572
447.500585
445.013464
442.491895
439.938887
437.35779
434.752298
432.126451
429.484627
426.831528
424.172155
421.51177
418.855854
416.210047
413.580085
410.971724
408.39066
405.842439
403.332377
400.865435
398.446146
396.078514
393.765931
391.51111
389.31606
387.182017
385.109448
383.09806
381.146842
379.254126
377.417674
375.634782
373.9024
372.217272
370.576074
368.97556
367.412705
365.884839
364.389766
362.925867
361.492179
360.088444