/*--------------------------------*- C++ -*----------------------------------*\
  =========                 |
  \\      /  F ield         | OpenFOAM: The Open Source CFD Toolbox
   \\    /   O peration     | Website:  https://openfoam.org
    \\  /    A nd           | Version:  8
     \\/     M anipulation  |
\*---------------------------------------------------------------------------*/
FoamFile
{
    version     2.0;
    format      ascii;
    class       volScalarField;
    location    "0.065";
    object      p;
}
// * * * * * * * * * * * * * * * * * * * * * * * * * * * * * * * * * * * * * //

dimensions      [1 -1 -2 0 0 0 0];

internalField   nonuniform List<scalar> 
42400
(
101543.284
101543.274
101543.264
101543.255
101543.248
101543.241
101543.235
101543.23
101543.226
101543.224
101543.222
101543.221
101543.222
101543.223
101543.226
101543.23
101543.236
101543.242
101543.25
101543.259
101543.27
101543.281
101543.295
101543.309
101543.325
101543.342
101543.361
101543.382
101543.404
101543.427
101543.453
101543.48
101543.509
101543.54
101543.573
101543.609
101543.653
101543.709
101543.77
101543.822
101543.865
101543.911
101543.965
101544.032
101544.111
101544.196
101544.288
101544.386
101544.49
101544.6
101544.729
101544.882
101545.045
101545.191
101545.345
101545.534
101545.743
101545.961
101546.19
101546.428
101546.672
101546.922
101547.182
101547.449
101547.708
101547.951
101548.17
101548.303
101548.461
101548.669
101548.225
101547.799
101548.885
101548.16
101546.063
101544.312
101546.629
101552.682
101552.05
101552.417
101542.889
101542.882
101542.874
101542.868
101542.862
101542.857
101542.854
101542.851
101542.848
101542.847
101542.847
101542.848
101542.85
101542.853
101542.857
101542.862
101542.869
101542.877
101542.885
101542.896
101542.907
101542.919
101542.933
101542.948
101542.965
101542.982
101543.001
101543.022
101543.043
101543.067
101543.091
101543.117
101543.145
101543.179
101543.22
101543.265
101543.301
101543.329
101543.357
101543.396
101543.446
101543.499
101543.556
101543.617
101543.682
101543.749
101543.825
101543.919
101544.029
101544.131
101544.224
101544.34
101544.479
101544.63
101544.788
101544.96
101545.146
101545.347
101545.565
101545.807
101546.073
101546.355
101546.649
101546.958
101547.28
101547.619
101547.989
101548.319
101548.61
101549.211
101549.514
101549.431
101550.389
101550.641
101550.358
101553.469
101556.465
101556.373
101558.043
101559.635
101542.384
101542.379
101542.374
101542.369
101542.365
101542.362
101542.36
101542.359
101542.359
101542.359
101542.361
101542.363
101542.367
101542.371
101542.377
101542.384
101542.391
101542.4
101542.411
101542.422
101542.435
101542.449
101542.464
101542.48
101542.497
101542.516
101542.536
101542.557
101542.579
101542.603
101542.632
101542.663
101542.697
101542.726
101542.748
101542.772
101542.802
101542.841
101542.881
101542.924
101542.969
101543.015
101543.061
101543.118
101543.197
101543.282
101543.337
101543.391
101543.476
101543.578
101543.686
101543.801
101543.928
101544.068
101544.225
101544.405
101544.614
101544.846
101545.102
101545.382
101545.693
101546.038
101546.421
101546.847
101547.303
101547.799
101548.338
101548.95
101549.427
101550.175
101550.545
101550.702
101552.358
101556.109
101559.181
101558.783
101558.331
101560.641
101563.066
101564.722
101541.799
101541.795
101541.791
101541.788
101541.785
101541.784
101541.783
101541.782
101541.783
101541.785
101541.788
101541.791
101541.796
101541.802
101541.809
101541.817
101541.826
101541.837
101541.848
101541.861
101541.876
101541.891
101541.908
101541.926
101541.945
101541.966
101541.988
101542.013
101542.04
101542.066
101542.091
101542.115
101542.14
101542.17
101542.204
101542.24
101542.276
101542.315
101542.353
101542.389
101542.436
101542.5
101542.554
101542.592
101542.643
101542.711
101542.787
101542.863
101542.945
101543.037
101543.14
101543.261
101543.403
101543.566
101543.753
101543.966
101544.214
101544.502
101544.834
101545.212
101545.643
101546.123
101546.662
101547.272
101547.942
101548.692
101549.463
101550.394
101551.034
101552.192
101555.631
101558.249
101558.978
101558.748
101559.546
101561.476
101562.815
101564.378
101566.276
101567.811
101541.136
101541.132
101541.129
101541.126
101541.125
101541.124
101541.123
101541.124
101541.125
101541.128
101541.131
101541.136
101541.142
101541.149
101541.158
101541.168
101541.179
101541.191
101541.205
101541.221
101541.237
101541.254
101541.273
101541.293
101541.316
101541.341
101541.366
101541.393
101541.42
101541.449
101541.481
101541.514
101541.548
101541.583
101541.619
101541.655
101541.689
101541.731
101541.788
101541.834
101541.865
101541.909
101541.966
101542.023
101542.082
101542.146
101542.216
101542.296
101542.389
101542.496
101542.618
101542.76
101542.927
101543.127
101543.367
101543.654
101543.992
101544.388
101544.85
101545.381
101545.989
101546.674
101547.443
101548.324
101549.278
101550.38
101551.568
101553.3
101556.078
101557.237
101557.253
101558.433
101560.344
101561.766
101563.149
101564.326
101565.987
101568.368
101569.904
101571.548
101540.406
101540.403
101540.399
101540.397
101540.395
101540.394
101540.394
101540.395
101540.397
101540.4
101540.404
101540.409
101540.416
101540.425
101540.435
101540.446
101540.458
101540.471
101540.487
101540.505
101540.525
101540.548
101540.572
101540.598
101540.625
101540.653
101540.683
101540.715
101540.747
101540.781
101540.816
101540.853
101540.89
101540.926
101540.967
101541.022
101541.068
101541.1
101541.142
101541.194
101541.247
101541.3
101541.357
101541.419
101541.487
101541.564
101541.649
101541.746
101541.859
101541.992
101542.151
101542.342
101542.572
101542.849
101543.181
101543.573
101544.033
101544.572
101545.199
101545.924
101546.745
101547.686
101548.742
101549.976
101551.096
101552.571
101554.709
101555.688
101556.37
101558.089
101559.787
101561.281
101562.881
101564.266
101565.81
101567.554
101568.988
101570.577
101572.582
101574.373
101539.59
101539.586
101539.582
101539.579
101539.577
101539.576
101539.577
101539.578
101539.581
101539.585
101539.591
101539.597
101539.605
101539.614
101539.626
101539.64
101539.657
101539.676
101539.696
101539.717
101539.741
101539.766
101539.794
101539.823
101539.854
101539.887
101539.922
101539.959
101539.997
101540.037
101540.075
101540.116
101540.17
101540.221
101540.258
101540.299
101540.354
101540.408
101540.463
101540.521
101540.583
101540.649
101540.721
101540.8
101540.889
101540.992
101541.11
101541.25
101541.414
101541.611
101541.845
101542.126
101542.459
101542.851
101543.306
101543.834
101544.444
101545.138
101545.925
101546.809
101547.753
101548.673
101549.839
101551.685
101553.853
101555.058
101555.926
101557.348
101558.889
101560.295
101561.977
101563.874
101565.551
101567.024
101568.698
101570.573
101571.877
101573.455
101575.337
101577.502
101538.675
101538.671
101538.667
101538.664
101538.663
101538.663
101538.664
101538.666
101538.67
101538.675
101538.682
101538.691
101538.703
101538.716
101538.731
101538.747
101538.766
101538.787
101538.81
101538.836
101538.864
101538.894
101538.926
101538.961
101538.997
101539.036
101539.077
101539.118
101539.161
101539.216
101539.271
101539.313
101539.359
101539.417
101539.476
101539.535
101539.597
101539.662
101539.732
101539.807
101539.89
101539.981
101540.084
101540.201
101540.335
101540.492
101540.677
101540.894
101541.152
101541.457
101541.817
101542.235
101542.717
101543.268
101543.898
101544.611
101545.418
101546.302
101547.273
101548.322
101549.622
101551.569
101553.379
101554.301
101555.135
101556.675
101558.222
101559.882
101562.013
101564.112
101565.634
101566.766
101568.464
101570.839
101572.713
101574.002
101575.656
101577.842
101579.525
101580.958
101537.631
101537.627
101537.624
101537.623
101537.623
101537.624
101537.627
101537.631
101537.638
101537.646
101537.657
101537.669
101537.683
101537.699
101537.718
101537.739
101537.763
101537.789
101537.817
101537.848
101537.882
101537.918
101537.956
101537.997
101538.038
101538.084
101538.139
101538.194
101538.24
101538.29
101538.351
101538.414
101538.478
101538.544
101538.615
101538.69
101538.771
101538.858
101538.954
101539.06
101539.179
101539.314
101539.47
101539.649
101539.86
101540.106
101540.396
101540.736
101541.136
101541.6
101542.135
101542.748
101543.445
101544.23
101545.109
101546.092
101547.19
101548.403
101549.753
101551.528
101553.139
101554.099
101555.037
101556.635
101558.434
101560.062
101561.584
101563.44
101564.88
101565.985
101567.389
101569.757
101571.912
101573.495
101574.906
101576.482
101578.243
101579.593
101580.984
101582.953
101536.447
101536.445
101536.445
101536.445
101536.448
101536.452
101536.458
101536.466
101536.475
101536.487
101536.501
101536.518
101536.537
101536.558
101536.582
101536.609
101536.638
101536.671
101536.706
101536.744
101536.784
101536.826
101536.873
101536.928
101536.981
101537.031
101537.086
101537.149
101537.215
101537.282
101537.352
101537.427
101537.506
101537.591
101537.682
101537.78
101537.888
101538.008
101538.142
101538.293
101538.466
101538.666
101538.897
101539.167
101539.482
101539.85
101540.279
101540.776
101541.347
101542
101542.741
101543.575
101544.501
101545.522
101546.629
101547.831
101549.093
101550.441
101551.831
101553.031
101554.286
101555.828
101557.353
101558.987
101560.667
101562.333
101564.031
101565.254
101566.713
101568.88
101570.935
101572.576
101573.869
101575.21
101576.887
101578.866
101580.791
101582.397
101584.36
101586.178
101535.086
101535.088
101535.091
101535.095
101535.101
101535.11
101535.12
101535.133
101535.148
101535.166
101535.186
101535.209
101535.235
101535.264
101535.295
101535.33
101535.368
101535.408
101535.451
101535.499
101535.554
101535.607
101535.659
101535.719
101535.784
101535.852
101535.922
101535.996
101536.074
101536.157
101536.245
101536.339
101536.44
101536.549
101536.669
101536.802
101536.95
101537.116
101537.306
101537.523
101537.774
101538.064
101538.399
101538.788
101539.237
101539.754
101540.345
101541.014
101541.767
101542.609
101543.539
101544.559
101545.666
101546.847
101548.113
101549.413
101550.79
101552.216
101553.674
101555.102
101556.471
101558.131
101560.036
101561.869
101563.669
101565.557
101567.673
101569.408
101570.499
101571.815
101572.963
101574.33
101576.676
101578.393
101580.135
101582.475
101584.935
101587.131
101588.641
101589.872
101533.531
101533.536
101533.544
101533.554
101533.566
101533.58
101533.597
101533.617
101533.639
101533.664
101533.693
101533.724
101533.759
101533.797
101533.838
101533.883
101533.931
101533.987
101534.042
101534.097
101534.16
101534.228
101534.298
101534.372
101534.449
101534.531
101534.618
101534.71
101534.807
101534.912
101535.024
101535.146
101535.279
101535.426
101535.589
101535.773
101535.981
101536.219
101536.491
101536.804
101537.165
101537.579
101538.055
101538.599
101539.217
101539.915
101540.695
101541.561
101542.514
101543.554
101544.677
101545.884
101547.168
101548.523
101549.953
101551.457
101553.038
101554.729
101556.479
101558.265
101560.19
101562.076
101563.61
101565.121
101566.758
101568.407
101570.061
101571.65
101573.142
101574.412
101576.267
101578.186
101579.45
101581.769
101584.08
101585.212
101586.443
101588.294
101590.522
101592.474
101531.734
101531.745
101531.76
101531.777
101531.796
101531.819
101531.844
101531.872
101531.904
101531.94
101531.978
101532.02
101532.066
101532.116
101532.172
101532.23
101532.289
101532.355
101532.425
101532.499
101532.577
101532.659
101532.745
101532.837
101532.933
101533.036
101533.144
101533.261
101533.386
101533.521
101533.669
101533.832
101534.014
101534.217
101534.446
101534.706
101535.003
101535.342
101535.73
101536.174
101536.68
101537.255
101537.906
101538.637
101539.453
101540.355
101541.343
101542.416
101543.569
101544.8
101546.088
101547.436
101548.813
101550.174
101551.516
101553.205
101555.321
101557.052
101558.69
101560.926
101562.768
101564.377
101565.73
101566.871
101568.438
101570.038
101571.714
101573.349
101575.162
101577.23
101578.638
101580.296
101582.991
101584.476
101585.884
101587.92
101589.897
101592.171
101594.608
101596.073
101529.66
101529.679
101529.702
101529.728
101529.757
101529.789
101529.825
101529.865
101529.908
101529.955
101530.007
101530.064
101530.122
101530.185
101530.253
101530.326
101530.403
101530.484
101530.57
101530.661
101530.757
101530.858
101530.964
101531.078
101531.198
101531.327
101531.465
101531.615
101531.779
101531.958
101532.158
101532.38
101532.63
101532.913
101533.234
101533.598
101534.013
101534.485
101535.019
101535.623
101536.302
101537.059
101537.9
101538.825
101539.836
101540.93
101542.105
101543.358
101544.684
101546.08
101547.537
101549.067
101550.677
101552.62
101554.791
101556.34
101557.488
101559.561
101561.42
101562.364
101563.788
101565.458
101566.888
101568.76
101570.573
101572.478
101574.381
101576.338
101577.955
101579.291
101581.321
101583.756
101585.195
101587.114
101589.874
101592.145
101593.913
101595.561
101597.721
101600.447
101527.259
101527.288
101527.323
101527.36
101527.4
101527.444
101527.492
101527.545
101527.602
101527.663
101527.728
101527.798
101527.874
101527.953
101528.037
101528.126
101528.221
101528.32
101528.425
101528.535
101528.652
101528.777
101528.909
101529.05
101529.201
101529.366
101529.545
101529.742
101529.959
101530.202
101530.474
101530.78
101531.126
101531.518
101531.962
101532.464
101533.032
101533.669
101534.383
101535.176
101536.052
101537.013
101538.059
101539.189
101540.403
101541.695
101543.066
101544.531
101546.07
101547.695
101549.397
101551.124
101552.97
101554.46
101555.825
101557.803
101559.841
101561.128
101562.644
101564.573
101566.127
101567.498
101568.961
101570.819
101572.734
101574.819
101576.981
101579.129
101581.864
101584.517
101585.874
101587.13
101589.053
101590.972
101592.51
101594.703
101597.786
101599.672
101601.093
101603.083
101524.499
101524.539
101524.587
101524.637
101524.691
101524.749
101524.811
101524.878
101524.95
101525.026
101525.107
101525.194
101525.285
101525.381
101525.483
101525.591
101525.704
101525.824
101525.951
101526.085
101526.228
101526.381
101526.546
101526.724
101526.918
101527.131
101527.367
101527.629
101527.922
101528.251
101528.622
101529.04
101529.513
101530.045
101530.644
101531.314
101532.061
101532.887
101533.796
101534.786
101535.857
101537.002
101538.216
101539.485
101540.798
101542.109
101543.368
101544.96
101546.935
101548.811
101550.658
101552.527
101554.436
101556.514
101558.598
101560.127
101561.482
101563.215
101565.101
101567.003
101569.036
101570.618
101572.186
101573.88
101575.58
101577.507
101579.729
101581.907
101583.99
101585.897
101588.165
101590.596
101592.278
101593.991
101595.931
101597.967
101599.552
101601.211
101603.782
101604.884
101521.358
101521.412
101521.475
101521.54
101521.609
101521.682
101521.76
101521.843
101521.931
101522.024
101522.122
101522.226
101522.335
101522.45
101522.571
101522.7
101522.835
101522.979
101523.132
101523.296
101523.472
101523.663
101523.871
101524.1
101524.352
101524.632
101524.945
101525.296
101525.69
101526.135
101526.635
101527.198
101527.83
101528.536
101529.322
101530.191
101531.148
101532.196
101533.335
101534.568
101535.895
101537.318
101538.842
101540.467
101542.219
101544.107
101546.109
101547.904
101549.681
101551.51
101553.08
101554.552
101556.113
101557.722
101559.327
101560.797
101562.795
101565.334
101567.158
101568.551
101570.07
101572.075
101574.413
101576.515
101578.751
101580.989
101583.18
101585.348
101586.926
101588.303
101590.059
101592.174
101594.518
101596.518
101598.75
101600.686
101602.77
101605.056
101606.161
101607.503
101517.842
101517.91
101517.99
101518.071
101518.156
101518.246
101518.34
101518.44
101518.544
101518.654
101518.77
101518.892
101519.021
101519.157
101519.3
101519.453
101519.615
101519.789
101519.977
101520.18
101520.402
101520.645
101520.914
101521.213
101521.547
101521.92
101522.34
101522.812
101523.342
101523.936
101524.602
101525.343
101526.166
101527.073
101528.068
101529.151
101530.323
101531.582
101532.924
101534.348
101535.851
101537.429
101539.079
101540.779
101542.497
101544.222
101545.927
101548.095
101549.999
101551.439
101553.173
101554.979
101556.826
101558.75
101560.819
101563.005
101565.103
101567.076
101568.893
101570.959
101573.527
101575.679
101577.361
101579.084
101581.126
101582.821
101584.196
101585.923
101588.502
101591.302
101593.773
101596.079
101598.478
101600.997
101602.688
101604.057
101605.781
101607.696
101609.71
101612.038
101514.019
101514.103
101514.2
101514.299
101514.4
101514.507
101514.618
101514.735
101514.858
101514.986
101515.122
101515.265
101515.416
101515.576
101515.747
101515.931
101516.128
101516.343
101516.577
101516.835
101517.119
101517.435
101517.787
101518.181
101518.623
101519.118
101519.673
101520.294
101520.986
101521.754
101522.603
101523.534
101524.55
101525.65
101526.832
101528.09
101529.42
101530.812
101532.245
101533.723
101535.234
101536.725
101538.35
101540.339
101542.567
101544.863
101547.215
101549.129
101550.839
101552.739
101554.589
101556.506
101558.439
101560.373
101562.329
101564.332
101566.151
101567.959
101569.966
101571.853
101573.911
101576.606
101579.246
101581.454
101583.805
101586.601
101589.071
101590.93
101592.715
101594.532
101596.309
101598.067
101599.821
101601.856
101604.619
101607.72
101610.035
101611.271
101612.854
101615.082
101509.919
101510.019
101510.134
101510.249
101510.367
101510.49
101510.619
101510.753
101510.894
101511.042
101511.199
101511.366
101511.543
101511.734
101511.94
101512.164
101512.409
101512.679
101512.978
101513.311
101513.682
101514.098
101514.565
101515.089
101515.677
101516.334
101517.066
101517.88
101518.778
101519.764
101520.84
101522.006
101523.26
101524.599
101526.018
101527.512
101529.075
101530.697
101532.362
101534.33
101536.802
101539.601
101542.175
101544.061
101545.693
101547.498
101549.318
101550.796
101552.534
101554.703
101556.779
101558.792
101560.948
101563.241
101565.684
101567.692
101569.733
101572.062
101574.49
101577.383
101579.227
101580.484
101582.098
101583.966
101585.872
101587.578
101589.461
101592.242
101594.764
101596.795
101599.105
101601.872
101604.71
101607.351
101609.067
101610.64
101611.699
101612.914
101615.576
101617.607
101563.805
101563.805
101563.806
101563.805
101563.805
101563.803
101563.802
101563.8
101563.797
101563.794
101563.79
101563.786
101563.781
101563.776
101563.769
101563.762
101563.755
101563.746
101563.737
101563.727
101563.716
101563.704
101563.69
101563.676
101563.661
101563.645
101563.627
101563.608
101563.588
101563.567
101563.544
101563.52
101563.494
101563.466
101563.437
101563.407
101563.376
101563.343
101563.309
101563.273
101563.236
101563.197
101563.157
101563.115
101563.072
101563.028
101562.982
101562.935
101562.886
101562.834
101562.779
101562.721
101562.658
101562.587
101562.506
101562.409
101562.29
101562.14
101561.948
101561.697
101561.372
101560.953
101560.42
101559.755
101558.944
101557.986
101556.884
101555.648
101554.288
101552.809
101551.199
101549.443
101547.543
101545.492
101543.258
101540.765
101537.826
101534.334
101530.791
101527.777
101560.563
101560.564
101560.564
101560.564
101560.562
101560.56
101560.557
101560.553
101560.548
101560.542
101560.534
101560.526
101560.517
101560.506
101560.494
101560.481
101560.467
101560.451
101560.433
101560.414
101560.394
101560.371
101560.347
101560.321
101560.293
101560.263
101560.231
101560.197
101560.16
101560.12
101560.079
101560.034
101559.987
101559.937
101559.884
101559.828
101559.769
101559.707
101559.641
101559.572
101559.499
101559.422
101559.342
101559.257
101559.169
101559.075
101558.977
101558.874
101558.765
101558.649
101558.525
101558.393
101558.248
101558.087
101557.905
101557.695
101557.449
101557.156
101556.803
101556.375
101555.853
101555.218
101554.447
101553.526
101552.441
101551.191
101549.774
101548.191
101546.435
101544.498
101542.362
101540.011
101537.428
101534.58
101531.408
101527.78
101523.589
101518.719
101513.28
101508.089
101557.482
101557.484
101557.485
101557.484
101557.482
101557.479
101557.475
101557.469
101557.461
101557.453
101557.442
101557.43
101557.417
101557.402
101557.385
101557.366
101557.345
101557.322
101557.297
101557.27
101557.24
101557.208
101557.174
101557.137
101557.097
101557.054
101557.008
101556.959
101556.906
101556.85
101556.791
101556.727
101556.66
101556.588
101556.512
101556.431
101556.346
101556.255
101556.159
101556.058
101555.951
101555.838
101555.719
101555.592
101555.459
101555.317
101555.168
101555.008
101554.839
101554.658
101554.463
101554.251
101554.017
101553.756
101553.463
101553.129
101552.745
101552.3
101551.78
101551.168
101550.445
101549.593
101548.594
101547.432
101546.097
101544.584
101542.882
101540.972
101538.836
101536.467
101533.877
101531.041
101527.915
101524.435
101520.547
101516.019
101509.777
101503.521
101496.031
101489.304
101554.614
101554.617
101554.618
101554.618
101554.616
101554.612
101554.607
101554.599
101554.59
101554.579
101554.566
101554.551
101554.534
101554.515
101554.494
101554.47
101554.444
101554.415
101554.383
101554.349
101554.311
101554.271
101554.227
101554.18
101554.13
101554.076
101554.017
101553.955
101553.889
101553.817
101553.742
101553.661
101553.575
101553.483
101553.386
101553.282
101553.172
101553.056
101552.932
101552.801
101552.662
101552.514
101552.357
101552.191
101552.015
101551.827
101551.628
101551.415
101551.188
101550.944
101550.68
101550.391
101550.074
101549.723
101549.333
101548.894
101548.399
101547.834
101547.185
101546.436
101545.566
101544.555
101543.382
101542.031
101540.489
101538.745
101536.778
101534.55
101532.008
101529.106
101525.848
101522.266
101518.339
101513.968
101509.068
101503.49
101496.312
101488.87
101482.756
101476.384
101552.013
101552.016
101552.018
101552.018
101552.017
101552.013
101552.007
101551.999
101551.988
101551.976
101551.961
101551.944
101551.924
101551.902
101551.877
101551.85
101551.819
101551.786
101551.75
101551.71
101551.667
101551.62
101551.569
101551.515
101551.456
101551.393
101551.326
101551.254
101551.177
101551.094
101551.006
101550.912
101550.812
101550.706
101550.593
101550.472
101550.345
101550.209
101550.065
101549.912
101549.749
101549.577
101549.393
101549.198
101548.991
101548.77
101548.534
101548.281
101548.011
101547.718
101547.4
101547.05
101546.664
101546.236
101545.757
101545.217
101544.605
101543.906
101543.103
101542.181
101541.119
101539.899
101538.502
101536.913
101535.12
101533.118
101530.897
101528.432
101525.685
101522.612
101519.18
101515.361
101511.067
101506.126
101500.346
101493.511
101485.461
101477.118
101469.696
101462.198
101549.71
101549.714
101549.717
101549.718
101549.716
101549.712
101549.706
101549.698
101549.687
101549.674
101549.658
101549.639
101549.618
101549.594
101549.567
101549.537
101549.504
101549.467
101549.427
101549.383
101549.336
101549.285
101549.229
101549.169
101549.105
101549.036
101548.962
101548.882
101548.797
101548.706
101548.609
101548.506
101548.396
101548.278
101548.153
101548.02
101547.879
101547.729
101547.57
101547.4
101547.22
101547.029
101546.825
101546.608
101546.376
101546.13
101545.867
101545.586
101545.286
101544.961
101544.61
101544.229
101543.813
101543.357
101542.856
101542.301
101541.686
101540.998
101540.225
101539.35
101538.359
101537.219
101535.886
101534.334
101532.533
101530.46
101528.087
101525.381
101522.291
101518.752
101514.703
101510.091
101505.044
101499.622
101493.923
101488.677
101481.894
101471.245
101460.718
101450.339
101547.742
101547.747
101547.751
101547.752
101547.752
101547.748
101547.743
101547.735
101547.724
101547.711
101547.695
101547.676
101547.654
101547.63
101547.602
101547.571
101547.537
101547.5
101547.458
101547.413
101547.364
101547.311
101547.254
101547.192
101547.125
101547.054
101546.977
101546.895
101546.807
101546.713
101546.612
101546.505
101546.391
101546.27
101546.141
101546.004
101545.858
101545.703
101545.539
101545.364
101545.179
101544.983
101544.772
101544.548
101544.311
101544.059
101543.792
101543.506
101543.199
101542.865
101542.502
101542.102
101541.657
101541.159
101540.597
101539.957
101539.221
101538.374
101537.397
101536.256
101535.077
101533.859
101532.467
101530.866
101529.017
101526.923
101524.587
101522.011
101519.188
101516.131
101512.971
101509.374
101504.59
101498.84
101492.28
101484.485
101475.294
101465.786
101456.126
101446.181
101546.112
101546.118
101546.123
101546.126
101546.125
101546.123
101546.118
101546.111
101546.101
101546.088
101546.072
101546.054
101546.033
101546.009
101545.982
101545.951
101545.917
101545.88
101545.839
101545.794
101545.745
101545.692
101545.635
101545.573
101545.506
101545.435
101545.358
101545.276
101545.188
101545.094
101544.994
101544.887
101544.773
101544.652
101544.523
101544.386
101544.24
101544.085
101543.92
101543.746
101543.56
101543.362
101543.15
101542.924
101542.686
101542.435
101542.168
101541.883
101541.577
101541.246
101540.891
101540.506
101540.091
101539.648
101539.173
101538.669
101538.111
101537.482
101536.778
101535.995
101534.988
101533.694
101532.212
101530.521
101528.617
101526.458
101523.994
101521.142
101517.785
101513.727
101508.606
101504.044
101499.88
101495.162
101490.033
101483.323
101474.726
101465.637
101455.809
101445.315
101544.835
101544.842
101544.847
101544.851
101544.851
101544.85
101544.846
101544.839
101544.83
101544.819
101544.805
101544.788
101544.768
101544.745
101544.719
101544.69
101544.658
101544.623
101544.584
101544.541
101544.495
101544.445
101544.39
101544.331
101544.268
101544.2
101544.127
101544.049
101543.966
101543.877
101543.782
101543.681
101543.573
101543.459
101543.337
101543.209
101543.072
101542.928
101542.775
101542.613
101542.442
101542.261
101542.07
101541.869
101541.656
101541.432
101541.195
101540.943
101540.674
101540.386
101540.073
101539.724
101539.335
101538.905
101538.425
101537.881
101537.297
101536.668
101535.96
101535.159
101534.243
101533.176
101531.942
101530.531
101528.911
101527.052
101524.919
101522.481
101519.707
101516.569
101513.056
101508.604
101503.227
101497.169
101490.163
101483.247
101476.277
101468.004
101459.215
101451.751
101543.887
101543.894
101543.9
101543.903
101543.905
101543.904
101543.901
101543.895
101543.888
101543.877
101543.865
101543.849
101543.831
101543.811
101543.787
101543.761
101543.732
101543.699
101543.663
101543.624
101543.582
101543.536
101543.486
101543.432
101543.374
101543.311
101543.244
101543.173
101543.096
101543.015
101542.928
101542.836
101542.738
101542.635
101542.525
101542.408
101542.285
101542.155
101542.018
101541.873
101541.72
101541.559
101541.389
101541.211
101541.023
101540.825
101540.617
101540.397
101540.165
101539.918
101539.654
101539.37
101539.061
101538.724
101538.354
101537.944
101537.486
101536.974
101536.397
101535.74
101534.981
101534.103
101533.083
101531.899
101530.526
101528.934
101527.094
101524.974
101522.54
101519.748
101516.545
101512.882
101508.496
101503.337
101497.401
101490.67
101483.066
101476.397
101470.059
101461.248
101543.256
101543.263
101543.268
101543.272
101543.273
101543.273
101543.27
101543.266
101543.259
101543.251
101543.24
101543.226
101543.211
101543.193
101543.172
101543.149
101543.123
101543.094
101543.063
101543.029
101542.991
101542.95
101542.906
101542.859
101542.808
101542.753
101542.694
101542.632
101542.565
101542.495
101542.42
101542.34
101542.255
101542.166
101542.072
101541.973
101541.869
101541.759
101541.644
101541.524
101541.399
101541.268
101541.131
101540.989
101540.841
101540.688
101540.528
101540.361
101540.187
101540.005
101539.814
101539.609
101539.389
101539.151
101538.89
101538.602
101538.281
101537.918
101537.504
101537.028
101536.475
101535.828
101535.067
101534.171
101533.116
101531.872
101530.411
101528.701
101526.704
101524.38
101521.678
101518.525
101514.827
101510.48
101505.445
101499.704
101493.242
101485.966
101477.444
101470.129
101542.897
101542.902
101542.906
101542.909
101542.911
101542.91
101542.908
101542.904
101542.898
101542.891
101542.881
101542.87
101542.856
101542.841
101542.823
101542.803
101542.781
101542.757
101542.73
101542.701
101542.67
101542.636
101542.599
101542.56
101542.517
101542.472
101542.424
101542.372
101542.317
101542.259
101542.198
101542.133
101542.065
101541.993
101541.918
101541.839
101541.758
101541.672
101541.584
101541.492
101541.397
101541.299
101541.199
101541.097
101540.992
101540.886
101540.779
101540.67
101540.559
101540.448
101540.334
101540.217
101540.094
101539.964
101539.825
101539.671
101539.499
101539.302
101539.073
101538.801
101538.476
101538.084
101537.606
101537.026
101536.32
101535.464
101534.43
101533.189
101531.705
101529.943
101527.851
101525.36
101522.409
101518.916
101514.807
101509.995
101504.376
101497.354
101488.83
101481.603
101542.777
101542.78
101542.783
101542.784
101542.785
101542.783
101542.781
101542.777
101542.772
101542.765
101542.757
101542.748
101542.737
101542.724
101542.709
101542.693
101542.676
101542.656
101542.635
101542.612
101542.587
101542.56
101542.531
101542.499
101542.466
101542.43
101542.393
101542.353
101542.311
101542.267
101542.221
101542.172
101542.121
101542.068
101542.013
101541.955
101541.894
101541.832
101541.77
101541.709
101541.648
101541.587
101541.526
101541.465
101541.407
101541.351
101541.298
101541.249
101541.204
101541.165
101541.131
101541.103
101541.08
101541.061
101541.043
101541.024
101541.002
101540.97
101540.924
101540.855
101540.754
101540.61
101540.408
101540.131
101539.762
101539.277
101538.653
101537.861
101536.87
101535.645
101534.147
101532.321
101530.109
101527.455
101524.281
101520.543
101516.09
101510.875
101504.201
101496.6
101542.832
101542.833
101542.833
101542.833
101542.832
101542.829
101542.826
101542.822
101542.817
101542.811
101542.803
101542.795
101542.786
101542.775
101542.764
101542.751
101542.737
101542.723
101542.706
101542.689
101542.671
101542.651
101542.629
101542.606
101542.583
101542.558
101542.532
101542.505
101542.476
101542.446
101542.415
101542.384
101542.352
101542.319
101542.287
101542.256
101542.225
101542.194
101542.16
101542.124
101542.09
101542.056
101542.024
101542.003
101541.993
101541.989
101541.99
101541.999
101542.017
101542.046
101542.088