/*--------------------------------*- C++ -*----------------------------------*\
  =========                 |
  \\      /  F ield         | OpenFOAM: The Open Source CFD Toolbox
   \\    /   O peration     | Website:  https://openfoam.org
    \\  /    A nd           | Version:  8
     \\/     M anipulation  |
\*---------------------------------------------------------------------------*/
FoamFile
{
    version     2.0;
    format      ascii;
    class       volScalarField;
    location    "0.065";
    object      p_rgh;
}
// * * * * * * * * * * * * * * * * * * * * * * * * * * * * * * * * * * * * * //

dimensions      [1 -1 -2 0 0 0 0];

internalField   nonuniform List<scalar> 
42400
(
101542.071
101542.061
101542.051
101542.042
101542.035
101542.028
101542.022
101542.018
101542.014
101542.011
101542.01
101542.009
101542.01
101542.012
101542.015
101542.019
101542.024
101542.031
101542.039
101542.049
101542.059
101542.072
101542.085
101542.1
101542.116
101542.134
101542.153
101542.174
101542.197
101542.221
101542.247
101542.275
101542.305
101542.337
101542.371
101542.408
101542.454
101542.511
101542.573
101542.627
101542.671
101542.719
101542.775
101542.845
101542.927
101543.014
101543.109
101543.21
101543.318
101543.431
101543.565
101543.722
101543.888
101544.039
101544.2
101544.395
101544.61
101544.834
101545.069
101545.314
101545.565
101545.823
101546.092
101546.367
101546.636
101546.892
101547.123
101547.278
101547.473
101547.656
101547.255
101547.074
101548.078
101547.125
101545.323
101543.968
101545.973
101551.276
101550.835
101551.424
101541.704
101541.697
101541.689
101541.683
101541.677
101541.673
101541.669
101541.666
101541.664
101541.663
101541.663
101541.664
101541.666
101541.67
101541.674
101541.68
101541.687
101541.695
101541.704
101541.714
101541.726
101541.739
101541.753
101541.769
101541.785
101541.804
101541.823
101541.844
101541.867
101541.891
101541.916
101541.942
101541.972
101542.008
101542.05
101542.096
101542.134
101542.163
101542.193
101542.233
101542.285
101542.34
101542.399
101542.463
101542.531
101542.6
101542.679
101542.776
101542.89
101542.996
101543.092
101543.213
101543.356
101543.511
101543.674
101543.851
101544.041
101544.247
101544.47
101544.717
101544.989
101545.276
101545.577
101545.893
101546.223
101546.575
101546.953
101547.289
101547.62
101548.204
101548.436
101548.459
101549.452
101549.614
101549.606
101552.612
101555.212
101555.576
101557.356
101558.973
101541.231
101541.226
101541.22
101541.216
101541.212
101541.209
101541.208
101541.206
101541.206
101541.207
101541.209
101541.211
101541.215
101541.22
101541.226
101541.233
101541.241
101541.251
101541.261
101541.273
101541.286
101541.301
101541.316
101541.333
101541.352
101541.371
101541.392
101541.413
101541.436
101541.462
101541.491
101541.524
101541.558
101541.587
101541.611
101541.636
101541.669
101541.709
101541.751
101541.795
101541.842
101541.891
101541.939
101541.999
101542.08
101542.167
101542.225
101542.283
101542.371
101542.477
101542.588
101542.707
101542.838
101542.982
101543.142
101543.326
101543.538
101543.774
101544.034
101544.318
101544.633
101544.984
101545.375
101545.809
101546.275
101546.785
101547.34
101547.959
101548.475
101549.254
101549.644
101549.857
101551.567
101555.227
101558.017
101557.813
101557.955
101560.301
101562.381
101563.794
101540.681
101540.677
101540.673
101540.67
101540.668
101540.666
101540.665
101540.665
101540.666
101540.668
101540.671
101540.675
101540.68
101540.686
101540.693
101540.702
101540.711
101540.722
101540.735
101540.748
101540.763
101540.779
101540.797
101540.816
101540.835
101540.857
101540.88
101540.906
101540.933
101540.961
101540.986
101541.011
101541.038
101541.069
101541.104
101541.141
101541.179
101541.219
101541.259
101541.297
101541.346
101541.412
101541.468
101541.508
101541.562
101541.633
101541.712
101541.791
101541.876
101541.971
101542.077
101542.202
101542.347
101542.514
101542.704
101542.921
101543.172
101543.463
101543.799
101544.181
101544.616
101545.102
101545.65
101546.268
101546.947
101547.708
101548.494
101549.419
101550.058
101551.236
101554.573
101557.267
101558.113
101558.01
101558.888
101560.563
101561.974
101563.637
101565.515
101567.146
101540.057
101540.054
101540.05
101540.048
101540.046
101540.045
101540.045
101540.046
101540.047
101540.05
101540.054
101540.059
101540.065
101540.073
101540.082
101540.092
101540.104
101540.117
101540.131
101540.147
101540.164
101540.181
101540.201
101540.222
101540.245
101540.271
101540.297
101540.324
101540.352
101540.383
101540.416
101540.45
101540.485
101540.521
101540.558
101540.596
101540.631
101540.674
101540.733
101540.78
101540.813
101540.86
101540.918
101540.978
101541.039
101541.105
101541.178
101541.261
101541.357
101541.467
101541.593
101541.738
101541.909
101542.113
101542.358
101542.649
101542.992
101543.392
101543.859
101544.395
101545.009
101545.699
101546.477
101547.36
101548.321
101549.417
101550.618
101552.388
101555.19
101556.418
101556.508
101557.678
101559.582
101560.968
101562.303
101563.742
101565.492
101567.577
101569.129
101570.927
101539.371
101539.367
101539.364
101539.361
101539.36
101539.359
101539.359
101539.36
101539.362
101539.365
101539.37
101539.375
101539.382
101539.391
101539.402
101539.413
101539.426
101539.439
101539.455
101539.474
101539.495
101539.518
101539.543
101539.569
101539.597
101539.626
101539.657
101539.689
101539.722
101539.757
101539.793
101539.83
101539.869
101539.905
101539.947
101540.004
101540.051
101540.084
101540.128
101540.182
101540.236
101540.291
101540.349
101540.413
101540.483
101540.562
101540.65
101540.749
101540.865
101541.001
101541.164
101541.359
101541.593
101541.876
101542.213
101542.612
101543.08
101543.628
101544.265
101545
101545.832
101546.785
101547.854
101549.099
101550.25
101551.806
101553.946
101554.922
101555.61
101557.392
101559.127
101560.588
101562.146
101563.533
101565.149
101566.882
101568.362
101570.163
101572.195
101574.064
101538.602
101538.598
101538.594
101538.591
101538.589
101538.589
101538.589
101538.591
101538.594
101538.598
101538.604
101538.61
101538.618
101538.628
101538.64
101538.655
101538.671
101538.691
101538.711
101538.733
101538.757
101538.783
101538.811
101538.841
101538.872
101538.906
101538.941
101538.979
101539.018
101539.058
101539.098
101539.14
101539.194
101539.246
101539.283
101539.326
101539.381
101539.437
101539.493
101539.552
101539.615
101539.682
101539.755
101539.836
101539.927
101540.03
101540.151
101540.292
101540.459
101540.658
101540.896
101541.18
101541.518
101541.916
101542.379
101542.917
101543.54
101544.251
101545.058
101545.963
101546.929
101547.909
101549.11
101550.934
101553.042
101554.239
101555.153
101556.625
101558.199
101559.67
101561.323
101563.128
101564.833
101566.401
101568.122
101569.967
101571.373
101572.966
101574.922
101576.988
101537.738
101537.734
101537.73
101537.727
101537.726
101537.726
101537.727
101537.729
101537.733
101537.739
101537.746
101537.755
101537.767
101537.78
101537.795
101537.812
101537.831
101537.852
101537.876
101537.902
101537.93
101537.961
101537.993
101538.028
101538.066
101538.105
101538.146
101538.187
101538.231
101538.287
101538.342
101538.385
101538.432
101538.49
101538.55
101538.61
101538.672
101538.738
101538.809
101538.885
101538.968
101539.06
101539.164
101539.281
101539.417
101539.575
101539.76
101539.979
101540.238
101540.545
101540.906
101541.327
101541.812
101542.368
101543.003
101543.722
101544.536
101545.427
101546.41
101547.462
101548.73
101550.644
101552.579
101553.585
101554.45
101555.964
101557.512
101559.206
101561.249
101563.273
101564.865
101566.194
101567.952
101570.167
101571.945
101573.345
101575.131
101577.306
101579.011
101580.64
101536.748
101536.744
101536.741
101536.74
101536.74
101536.741
101536.744
101536.748
101536.755
101536.764
101536.774
101536.787
101536.801
101536.817
101536.836
101536.858
101536.881
101536.908
101536.936
101536.968
101537.001
101537.038
101537.077
101537.118
101537.16
101537.205
101537.261
101537.316
101537.363
101537.414
101537.475
101537.538
101537.603
101537.67
101537.741
101537.817
101537.898
101537.986
101538.083
101538.189
101538.309
101538.445
101538.601
101538.782
101538.993
101539.24
101539.531
101539.873
101540.273
101540.739
101541.275
101541.889
101542.588
101543.375
101544.256
101545.24
101546.334
101547.533
101548.892
101550.732
101552.416
101553.441
101554.362
101555.886
101557.715
101559.383
101561.021
101562.838
101564.279
101565.48
101566.959
101569.19
101571.248
101572.853
101574.448
101576.157
101577.876
101579.414
101580.986
101582.883
101535.62
101535.618
101535.618
101535.618
101535.621
101535.625
101535.631
101535.639
101535.649
101535.661
101535.675
101535.691
101535.71
101535.732
101535.756
101535.783
101535.813
101535.845
101535.881
101535.919
101535.959
101536.001
101536.049
101536.104
101536.158
101536.208
101536.264
101536.327
101536.393
101536.461
101536.532
101536.607
101536.686
101536.771
101536.863
101536.962
101537.071
101537.191
101537.326
101537.478
101537.653
101537.853
101538.086
101538.358
101538.675
101539.045
101539.475
101539.975
101540.549
101541.205
101541.951
101542.79
101543.723
101544.754
101545.874
101547.097
101548.385
101549.775
101551.186
101552.365
101553.626
101555.155
101556.645
101558.296
101559.966
101561.603
101563.315
101564.769
101566.336
101568.397
101570.362
101572.003
101573.389
101574.801
101576.57
101578.54
101580.382
101581.988
101583.892
101585.743
101534.317
101534.318
101534.321
101534.326
101534.332
101534.34
101534.351
101534.364
101534.379
101534.397
101534.417
101534.44
101534.466
101534.495
101534.527
101534.561
101534.599
101534.64
101534.683
101534.731
101534.786
101534.84
101534.892
101534.952
101535.017
101535.085
101535.156
101535.23
101535.309
101535.392
101535.48
101535.575
101535.676
101535.786
101535.907
101536.04
101536.189
101536.356
101536.547
101536.766
101537.018
101537.309
101537.646
101538.037
101538.489
101539.009
101539.602
101540.275
101541.033
101541.88
101542.816
101543.842
101544.953
101546.139
101547.406
101548.706
101550.092
101551.524
101552.988
101554.434
101555.843
101557.489
101559.321
101561.132
101562.955
101564.892
101566.962
101568.611
101569.841
101571.204
101572.501
101574.072
101576.204
101577.852
101579.677
101582.066
101584.405
101586.488
101588.052
101589.339
101532.818
101532.824
101532.832
101532.842
101532.854
101532.868
101532.885
101532.905
101532.927
101532.952
101532.981
101533.013
101533.047
101533.085
101533.127
101533.171
101533.22
101533.275
101533.331
101533.387
101533.449
101533.517
101533.587
101533.661
101533.739
101533.821
101533.908
101534
101534.098
101534.203
101534.315
101534.437
101534.57
101534.718
101534.882
101535.066
101535.275
101535.513
101535.786
101536.1
101536.461
101536.876
101537.353
101537.898
101538.518
101539.217
101540
101540.868
101541.825
101542.868
101543.996
101545.206
101546.491
101547.843
101549.262
101550.746
101552.302
101553.955
101555.648
101557.375
101559.345
101561.346
101563.068
101564.721
101566.355
101567.984
101569.595
101571.129
101572.565
101573.993
101575.863
101577.584
101579.058
101581.479
101583.647
101584.865
101586.365
101588.287
101590.394
101592.344
101531.078
101531.089
101531.104
101531.121
101531.14
101531.163
101531.188
101531.216
101531.248
101531.284
101531.322
101531.365
101531.41
101531.461
101531.517
101531.574
101531.634
101531.699
101531.77
101531.844
101531.922
101532.004
101532.09
101532.182
101532.278
101532.381
101532.49
101532.606
101532.731
101532.867
101533.015
101533.179
101533.36
101533.563
101533.793
101534.053
101534.35
101534.689
101535.078
101535.522
101536.029
101536.604
101537.256
101537.988
101538.804
101539.707
101540.697
101541.772
101542.93
101544.166
101545.466
101546.833
101548.234
101549.636
101551.041
101552.693
101554.654
101556.358
101558.104
101560.39
101562.298
101563.869
101565.192
101566.418
101568.001
101569.602
101571.325
101573.012
101574.82
101576.777
101578.274
101580.097
101582.516
101584.057
101585.708
101587.803
101589.737
101591.949
101594.226
101595.766
101529.057
101529.076
101529.1
101529.126
101529.155
101529.187
101529.223
101529.262
101529.305
101529.352
101529.405
101529.461
101529.52
101529.582
101529.651
101529.724
101529.801
101529.882
101529.968
101530.059
101530.155
101530.256
101530.363
101530.476
101530.597
101530.726
101530.865
101531.015
101531.178
101531.358
101531.558
101531.781
101532.031
101532.314
101532.635
101533
101533.416
101533.888
101534.423
101535.028
101535.707
101536.465
101537.306
101538.232
101539.242
101540.334
101541.506
101542.754
101544.07
101545.452
101546.885
101548.385
101549.94
101551.77
101553.892
101555.65
101557.104
101559.26
101561.019
101562.013
101563.37
101564.954
101566.525
101568.346
101570.099
101571.949
101573.805
101575.716
101577.434
101579.044
101581.145
101583.309
101584.941
101587.057
101589.562
101591.688
101593.451
101595.225
101597.499
101600.054
101526.707
101526.735
101526.77
101526.807
101526.848
101526.892
101526.94
101526.993
101527.05
101527.11
101527.176
101527.246
101527.322
101527.401
101527.485
101527.575
101527.669
101527.769
101527.874
101527.984
101528.102
101528.226
101528.358
101528.5
101528.652
101528.816
101528.996
101529.193
101529.411
101529.654
101529.926
101530.233
101530.579
101530.972
101531.416
101531.92
101532.488
101533.126
101533.84
101534.635
101535.512
101536.475
101537.523
101538.655
101539.871
101541.165
101542.539
101544.001
101545.539
101547.161
101548.861
101550.597
101552.458
101554.058
101555.539
101557.488
101559.361
101560.621
101562.22
101564.162
101565.703
101567.083
101568.528
101570.397
101572.353
101574.428
101576.651
101578.943
101581.603
101583.918
101585.262
101586.712
101588.654
101590.482
101592.261
101594.697
101597.527
101599.319
101600.974
101603.145
101523.99
101524.031
101524.078
101524.129
101524.182
101524.24
101524.303
101524.37
101524.442
101524.518
101524.6
101524.686
101524.778
101524.874
101524.977
101525.084
101525.198
101525.318
101525.445
101525.58
101525.723
101525.877
101526.042
101526.22
101526.415
101526.629
101526.865
101527.127
101527.421
101527.751
101528.122
101528.542
101529.015
101529.548
101530.148
101530.819
101531.567
101532.394
101533.304
101534.296
101535.37
101536.52
101537.741
101539.022
101540.354
101541.694
101543.014
101544.583
101546.414
101548.234
101550.108
101551.972
101553.923
101556.039
101558.027
101559.595
101561.083
101562.871
101564.773
101566.563
101568.419
101570.017
101571.666
101573.45
101575.244
101577.24
101579.452
101581.568
101583.611
101585.713
101588.035
101590.222
101591.885
101593.687
101595.719
101597.738
101599.44
101601.342
101603.702
101605.058
101520.887
101520.941
101521.004
101521.069
101521.138
101521.211
101521.289
101521.372
101521.46
101521.553
101521.652
101521.756
101521.865
101521.981
101522.102
101522.231
101522.367
101522.511
101522.665
101522.829
101523.006
101523.198
101523.407
101523.636
101523.889
101524.17
101524.484
101524.836
101525.231
101525.676
101526.178
101526.741
101527.373
101528.079
101528.865
101529.733
101530.688
101531.73
101532.863
101534.084
101535.396
101536.796
101538.286
101539.865
101541.551
101543.338
101545.256
101547.172
101549.197
101551.126
101552.73
101554.295
101555.921
101557.523
101559.071
101560.519
101562.461
101564.778
101566.504
101568.094
101569.881
101571.965
101574.197
101576.21
101578.317
101580.503
101582.578
101584.614
101586.327
101587.946
101589.821
101592.034
101594.371
101596.326
101598.464
101600.504
101602.596
101604.651
101605.977
101607.577
101517.4
101517.469
101517.548
101517.63
101517.715
101517.804
101517.899
101517.999
101518.103
101518.214
101518.33
101518.452
101518.581
101518.717
101518.861
101519.014
101519.177
101519.352
101519.54
101519.744
101519.966
101520.211
101520.481
101520.781
101521.115
101521.49
101521.911
101522.385
101522.917
101523.514
101524.182
101524.926
101525.752
101526.664
101527.664
101528.753
101529.933
101531.201
101532.556
101533.995
101535.515
101537.113
101538.786
101540.514
101542.288
101544.1
101545.905
101547.938
101549.709
101551.191
101552.928
101554.71
101556.532
101558.449
101560.537
101562.688
101564.727
101566.657
101568.524
101570.662
101573.067
101575.046
101576.696
101578.447
101580.482
101582.236
101583.851
101585.953
101588.528
101591.109
101593.472
101595.78
101598.047
101600.32
101602.126
101603.703
101605.527
101607.517
101609.516
101611.609
101513.597
101513.681
101513.778
101513.877
101513.979
101514.085
101514.197
101514.314
101514.436
101514.565
101514.701
101514.844
101514.996
101515.156
101515.328
101515.512
101515.71
101515.926
101516.161
101516.419
101516.705
101517.022
101517.375
101517.771
101518.215
101518.712
101519.27
101519.894
101520.589
101521.362
101522.215
101523.153
101524.176
101525.284
101526.476
101527.748
101529.094
101530.508
101531.971
101533.49
101535.053
101536.618
101538.286
101540.202
101542.274
101544.42
101546.555
101548.483
101550.347
101552.253
101554.145
101556.091
101558.053
101560.008
101561.977
101563.983
101565.84
101567.671
101569.625
101571.582
101573.839
101576.491
101578.938
101581.016
101583.333
101586.039
101588.469
101590.401
101592.223
101594.107
101595.989
101597.783
101599.663
101601.939
101604.561
101607.316
101609.397
101610.829
101612.49
101614.648
101509.511
101509.611
101509.726
101509.842
101509.96
101510.082
101510.211
101510.345
101510.486
101510.634
101510.791
101510.957
101511.135
101511.325
101511.531
101511.755
101512
101512.27
101512.569
101512.901
101513.273
101513.689
101514.155
101514.679
101515.267
101515.924
101516.656
101517.469
101518.367
101519.353
101520.427
101521.591
101522.841
101524.175
101525.585
101527.066
101528.608
101530.195
101531.81
101533.703
101536.071
101538.718
101541.188
101543.172
101544.993
101546.967
101548.947
101550.544
101552.283
101554.385
101556.408
101558.398
101560.507
101562.703
101565.053
101567.099
101569.129
101571.451
101573.881
101576.452
101578.19
101579.717
101581.678
101583.851
101585.929
101587.674
101589.522
101592.123
101594.647
101596.712
101598.882
101601.496
101604.234
101606.607
101608.289
101609.995
101611.433
101612.831
101615.272
101617.266
101563.41
101563.41
101563.411
101563.411
101563.41
101563.409
101563.408
101563.406
101563.403
101563.401
101563.397
101563.394
101563.389
101563.384
101563.379
101563.373
101563.366
101563.358
101563.35
101563.341
101563.331
101563.32
101563.308
101563.296
101563.282
101563.267
101563.252
101563.235
101563.217
101563.198
101563.177
101563.156
101563.133
101563.108
101563.082
101563.055
101563.028
101562.999
101562.969
101562.937
101562.905
101562.871
101562.836
101562.8
101562.764
101562.726
101562.687
101562.647
101562.606
101562.563
101562.518
101562.469
101562.416
101562.357
101562.289
101562.205
101562.101
101561.968
101561.793
101561.563
101561.26
101560.864
101560.354
101559.712
101558.924
101557.985
101556.902
101555.684
101554.341
101552.875
101551.271
101549.512
101547.607
101545.553
101543.325
101540.857
101537.978
101534.51
101530.945
101527.863
101560.102
101560.103
101560.104
101560.103
101560.102
101560.1
101560.097
101560.093
101560.088
101560.082
101560.076
101560.068
101560.059
101560.049
101560.038
101560.025
101560.012
101559.997
101559.98
101559.962
101559.943
101559.921
101559.899
101559.874
101559.847
101559.819
101559.788
101559.756
101559.721
101559.684
101559.644
101559.602
101559.557
101559.51
101559.46
101559.407
101559.351
101559.293
101559.231
101559.166
101559.097
101559.026
101558.95
101558.871
101558.788
101558.701
101558.609
101558.513
101558.411
101558.304
101558.189
101558.065
101557.93
101557.781
101557.611
101557.414
101557.182
101556.904
101556.568
101556.158
101555.654
101555.038
101554.289
101553.387
101552.323
101551.094
101549.699
101548.139
101546.407
101544.492
101542.369
101540.024
101537.45
101534.622
101531.488
101527.943
101523.856
101519.085
101513.744
101508.44
101556.948
101556.949
101556.95
101556.95
101556.948
101556.945
101556.94
101556.935
101556.928
101556.919
101556.909
101556.897
101556.884
101556.87
101556.853
101556.835
101556.814
101556.792
101556.768
101556.742
101556.713
101556.682
101556.649
101556.613
101556.574
101556.532
101556.488
101556.44
101556.389
101556.335
101556.277
101556.216
101556.15
101556.08
101556.007
101555.929
101555.846
101555.759
101555.666
101555.568
101555.465
101555.356
101555.241
101555.119
101554.99
101554.854
101554.71
101554.557
101554.393
101554.219
101554.032
101553.828
101553.603
101553.352
101553.069
101552.746
101552.374
101551.942
101551.435
101550.837
101550.129
101549.292
101548.307
101547.16
101545.841
101544.344
101542.661
101540.774
101538.662
101536.311
101533.722
101530.879
101527.747
101524.276
101520.405
101515.965
101509.947
101503.632
101496.556
101489.84
101554
101554.002
101554.003
101554.003
101554.001
101553.997
101553.992
101553.985
101553.976
101553.965
101553.952
101553.937
101553.92
101553.901
101553.88
101553.857
101553.831
101553.802
101553.771
101553.738
101553.701
101553.661
101553.618
101553.572
101553.522
101553.469
101553.412
101553.351
101553.285
101553.215
101553.141
101553.061
101552.977
101552.887
101552.791
101552.69
101552.582
101552.468
101552.346
101552.218
101552.081
101551.937
101551.783
101551.62
101551.447
101551.264
101551.068
101550.86
101550.637
101550.398
101550.139
101549.856
101549.545
101549.201
101548.816
101548.385
101547.896
101547.338
101546.695
101545.953
101545.09
101544.086
101542.92
101541.576
101540.04
101538.303
101536.347
101534.137
101531.619
101528.742
101525.497
101521.913
101517.975
101513.596
101508.698
101503.125
101496.011
101488.563
101482.374
101475.939
101551.313
101551.316
101551.318
101551.318
101551.316
101551.312
101551.306
101551.298
101551.288
101551.275
101551.261
101551.244
101551.224
101551.202
101551.177
101551.15
101551.12
101551.086
101551.05
101551.011
101550.968
101550.921
101550.871
101550.817
101550.759
101550.696
101550.629
101550.558
101550.481
101550.399
101550.312
101550.219
101550.12
101550.014
101549.902
101549.783
101549.656
101549.522
101549.379
101549.227
101549.067
101548.896
101548.714
101548.521
101548.315
101548.096
101547.863
101547.613
101547.345
101547.056
101546.741
101546.395
101546.014
101545.59
101545.116
101544.582
101543.975
101543.282
101542.485
101541.568
101540.511
101539.295
101537.9
101536.311
101534.516
101532.509
101530.283
101527.813
101525.061
101521.981
101518.537
101514.704
101510.408
101505.487
101499.761
101493.096
101485.68
101477.254
101468.685
101460.859
101548.923
101548.927
101548.93
101548.93
101548.929
101548.925
101548.919
101548.91
101548.899
101548.886
101548.87
101548.851
101548.83
101548.806
101548.778
101548.748
101548.715
101548.678
101548.638
101548.594
101548.547
101548.496
101548.44
101548.38
101548.316
101548.246
101548.172
101548.093
101548.008
101547.917
101547.82
101547.716
101547.606
101547.489
101547.364
101547.231
101547.09
101546.94
101546.78
101546.611
101546.431
101546.24
101546.036
101545.819
101545.588
101545.341
101545.078
101544.798
101544.497
101544.173
101543.821
101543.438
101543.021
101542.562
101542.057
101541.499
101540.877
101540.183
101539.402
101538.518
101537.517
101536.369
101535.036
101533.485
101531.685
101529.61
101527.232
101524.515
101521.409
101517.849
101513.774
101509.132
101504.01
101498.481
101492.631
101487.379
101480.521
101469.753
101459.257
101448.813
101546.869
101546.874
101546.878
101546.879
101546.878
101546.875
101546.869
101546.861
101546.85
101546.836
101546.82
101546.801
101546.779
101546.754
101546.726
101546.695
101546.66
101546.622
101546.581
101546.535
101546.486
101546.432
101546.374
101546.312
101546.245
101546.173
101546.095
101546.012
101545.924
101545.829
101545.728
101545.62
101545.505
101545.383
101545.253
101545.115
101544.968
101544.812
101544.647
101544.471
101544.285
101544.087
101543.875
101543.65
101543.411
101543.158
101542.889
101542.601
101542.292
101541.956
101541.59
101541.188
101540.741
101540.242
101539.679
101539.04
101538.306
101537.461
101536.483
101535.342
101534.115
101532.833
101531.413
101529.797
101527.935
101525.815
101523.44
101520.812
101517.918
101514.757
101511.427
101507.747
101503.106
101497.337
101490.596
101482.724
101473.614
101464.133
101454.388
101444.395
101545.157
101545.163
101545.167
101545.17
101545.169
101545.167
101545.162
101545.154
101545.143
101545.13
101545.115
101545.096
101545.074
101545.049
101545.022
101544.991
101544.956
101544.918
101544.876
101544.831
101544.781
101544.727
101544.669
101544.606
101544.539
101544.466
101544.388
101544.305
101544.216
101544.121
101544.019
101543.911
101543.795
101543.673
101543.542
101543.403
101543.255
101543.098
101542.932
101542.755
101542.567
101542.366
101542.152
101541.924
101541.684
101541.429
101541.157
101540.866
101540.553
101540.214
101539.85
101539.456
101539.031
101538.575
101538.085
101537.562
101536.989
101536.351
101535.639
101534.838
101533.849
101532.591
101531.104
101529.391
101527.455
101525.263
101522.766
101519.894
101516.538
101512.521
101507.524
101502.569
101497.933
101493.085
101487.884
101481.087
101472.34
101463.239
101453.438
101443.038
101543.804
101543.81
101543.815
101543.818
101543.819
101543.817
101543.813
101543.806
101543.797
101543.785
101543.77
101543.752
101543.732
101543.709
101543.682
101543.653
101543.62
101543.583
101543.543
101543.5
101543.452
101543.401
101543.345
101543.285
101543.221
101543.151
101543.077
101542.997
101542.912
101542.821
101542.724
101542.621
101542.511
101542.394
101542.27
101542.139
101542
101541.852
101541.696
101541.531
101541.356
101541.172
101540.977
101540.772
101540.555
101540.326
101540.083
101539.826
101539.55
101539.254
101538.933
101538.577
101538.184
101537.748
101537.26
101536.71
101536.107
101535.446
101534.708
101533.884
101532.949
101531.866
101530.611
101529.171
101527.521
101525.629
101523.459
101520.98
101518.159
101514.963
101511.37
101506.977
101501.607
101495.407
101488.326
101481.12
101473.721
101465.315
101456.76
101449.258
101542.788
101542.794
101542.8
101542.803
101542.804
101542.803
101542.8
101542.794
101542.786
101542.775
101542.762
101542.746
101542.727
101542.706
101542.681
101542.654
101542.624
101542.59
101542.554
101542.513
101542.469
101542.422
101542.37
101542.315
101542.255
101542.191
101542.122
101542.049
101541.97
101541.886
101541.798
101541.703
101541.603
101541.496
101541.383
101541.264
101541.137
101541.004
101540.862
101540.714
101540.557
101540.391
101540.217
101540.033
101539.839
101539.635
101539.42
101539.193
101538.953
101538.698
101538.424
101538.129
101537.809
101537.461
101537.077
101536.653
101536.181
101535.651
101535.054
101534.375
101533.597
101532.697
101531.655
101530.445
101529.044
101527.422
101525.546
101523.386
101520.907
101518.063
101514.8
101511.063
101506.645
101501.446
101495.434
101488.606
101481.043
101474.313
101467.327
101458.168
101542.098
101542.105
101542.11
101542.113
101542.115
101542.114
101542.111
101542.106
101542.099
101542.09
101542.078
101542.064
101542.048
101542.029
101542.008
101541.984
101541.957
101541.927
101541.894
101541.859
101541.82
101541.777
101541.732
101541.683
101541.63
101541.573
101541.513
101541.448
101541.379
101541.306
101541.228
101541.146
101541.058
101540.966
101540.869
101540.766
101540.658
101540.545
101540.426
101540.301
101540.171
101540.035
101539.893
101539.745
101539.591
101539.431
101539.264
101539.09
101538.908
101538.718
101538.517
101538.303
101538.072
101537.823
101537.55
101537.249
101536.914
101536.535
101536.105
101535.61
101535.037
101534.369
101533.586
101532.665
101531.583
101530.31
101528.818
101527.074
101525.041
101522.676
101519.929
101516.726
101512.972
101508.566
101503.463
101497.621
101491.007
101483.696
101475.583
101468.194
101541.691
101541.697
101541.701
101541.704
101541.705
101541.704
101541.702
101541.697
101541.691
101541.683
101541.673
101541.661
101541.646
101541.63
101541.612
101541.591
101541.568
101541.542
101541.514
101541.484
101541.451
101541.415
101541.377
101541.336
101541.292
101541.244
101541.194
101541.14
101541.083
101541.022
101540.958
101540.891
101540.819
101540.745
101540.666
101540.585
101540.499
101540.41
101540.317
101540.221
101540.122
101540.019
101539.914
101539.806
101539.696
101539.584
101539.47
101539.354
101539.236
101539.116
101538.994
101538.868
101538.736
101538.596
101538.445
101538.279
101538.094
101537.883
101537.639
101537.351
101537.008
101536.596
101536.098
101535.495
101534.765
101533.883
101532.821
101531.549
101530.034
101528.236
101526.105
101523.572
101520.574
101517.025
101512.854
101507.97
101502.267
101495.224
101486.738
101479.573
101541.535
101541.539
101541.541
101541.543
101541.543
101541.542
101541.539
101541.535
101541.529
101541.522
101541.513
101541.503
101541.491
101541.477
101541.462
101541.445
101541.427
101541.406
101541.383
101541.359
101541.333
101541.304
101541.273
101541.241
101541.206
101541.168
101541.129
101541.087
101541.043
101540.997
101540.948
101540.897
101540.843
101540.787
101540.728
101540.667
101540.603
101540.537
101540.471
101540.406
101540.341
101540.275
101540.209
101540.144
101540.08
101540.019
101539.96
101539.905
101539.854
101539.807
101539.767
101539.731
101539.7
101539.671
101539.644
101539.616
101539.582
101539.539
101539.48
101539.398
101539.282
101539.122
101538.902
101538.607
101538.217
101537.71
101537.061
101536.243
101535.224
101533.97
101532.44
101530.578
101528.327
101525.631
101522.414
101518.634
101514.133
101508.886
101502.246
101494.732
101541.566
101541.567
101541.567
101541.567
101541.565
101541.562
101541.559
101541.554
101541.549
101541.542
101541.535
101541.526
101541.516
101541.505
101541.492
101541.479
101541.464
101541.448
101541.431
101541.413
101541.393
101541.372
101541.349
101541.324
101541.299
101541.273
101541.245
101541.216
101541.185
101541.153
101541.12
101541.086
101541.052
101541.017
101540.982
101540.948
101540.914
101540.88
101540.843
101540.804
101540.766
101540.728
101540.693
101540.666
101540.651
101540.642
101540.639
101540.644
101540.657
101540.681
101540.717