/*--------------------------------*- C++ -*----------------------------------*\
  =========                 |
  \\      /  F ield         | OpenFOAM: The Open Source CFD Toolbox
   \\    /   O peration     | Website:  https://openfoam.org
    \\  /    A nd           | Version:  8
     \\/     M anipulation  |
\*---------------------------------------------------------------------------*/
FoamFile
{
    version     2.0;
    format      ascii;
    class       surfaceScalarField;
    location    "0.065";
    object      phi;
}
// * * * * * * * * * * * * * * * * * * * * * * * * * * * * * * * * * * * * * //

dimensions      [1 0 -1 0 0 0 0];

internalField   nonuniform List<scalar> 
84340
(
-5.28327373e-08
2.92420942e-07
-2.4011759e-07
-2.10841475e-07
8.94123589e-07
-7.36970815e-07
-4.7896556e-07
1.53496455e-06
-1.2678979e-06
-8.6390215e-07
2.21737352e-06
-1.83366861e-06
-1.37331436e-06
2.94202897e-06
-2.43400271e-06
-2.01539076e-06
3.70947408e-06
-3.06892715e-06
-2.79841128e-06
4.52036166e-06
-3.73901103e-06
-3.73041586e-06
5.37535084e-06
-4.4451591e-06
-4.81895698e-06
6.27499116e-06
-5.18841231e-06
-6.07092804e-06
7.21966172e-06
-5.96981154e-06
-7.49244989e-06
8.20954644e-06
-6.79031536e-06
-9.08879573e-06
9.2446235e-06
-7.6507511e-06
-1.08643389e-05
1.03246688e-05
-8.551796e-06
-1.2822508e-05
1.14492708e-05
-9.49398429e-06
-1.49657302e-05
1.26178433e-05
-1.04777324e-05
-1.72953719e-05
1.38296485e-05
-1.15033646e-05
-1.98116436e-05
1.5083801e-05
-1.25711528e-05
-2.25134918e-05
1.63792672e-05
-1.36813284e-05
-2.53984543e-05
1.77148538e-05
-1.48341085e-05
-2.8462488e-05
1.90891807e-05
-1.60296953e-05
-3.16997655e-05
2.05006443e-05
-1.72682713e-05
-3.51024373e-05
2.19473714e-05
-1.85499872e-05
-3.8660354e-05
2.34271555e-05
-1.98749381e-05
-4.236076e-05
2.49373914e-05
-2.12431272e-05
-4.61879315e-05
2.64749822e-05
-2.2654428e-05
-5.01227741e-05
2.80362386e-05
-2.4108524e-05
-5.41423712e-05
2.96167463e-05
-2.56048254e-05
-5.82194822e-05
3.1211229e-05
-2.71423829e-05
-6.23220016e-05
3.28133764e-05
-2.87197528e-05
-6.64124459e-05
3.44157103e-05
-3.03348389e-05
-7.04476004e-05
3.60095151e-05
-3.19846532e-05
-7.43779947e-05
3.75843249e-05
-3.3664992e-05
-7.8146243e-05
3.91266128e-05
-3.53702532e-05
-8.16865507e-05
4.06210733e-05
-3.70935801e-05
-8.49204733e-05
4.20467878e-05
-3.88266822e-05
-8.77642283e-05
4.3387977e-05
-4.05588395e-05
-9.01350682e-05
4.46291088e-05
-4.22737056e-05
-9.19378608e-05
4.57319491e-05
-4.39458417e-05
-9.3038779e-05
4.66413319e-05
-4.55584468e-05
-9.32454401e-05
4.72887178e-05
-4.71013369e-05
-9.23572945e-05
4.76220426e-05
-4.85307408e-05
-9.01714489e-05
4.75747117e-05
-4.97825412e-05
-8.64624376e-05
4.70596738e-05
-5.07923149e-05
-8.09695316e-05
4.59784884e-05
-5.1496737e-05
-7.3412492e-05
4.42320535e-05
-5.18161357e-05
-6.34718479e-05
4.16928282e-05
-5.16623063e-05
-5.0777709e-05
3.81930624e-05
-5.09179366e-05
-3.497789e-05
3.36229483e-05
-4.94555412e-05
-1.56071808e-05
2.7737986e-05
-4.71436367e-05
7.66324966e-06
2.05510399e-05
-4.38588418e-05
3.56341629e-05
1.13460466e-05
-3.93565786e-05
6.90966557e-05
-2.83422167e-08
-3.34755636e-05
0.000108916386
-1.3799172e-05
-2.60643589e-05
0.000156177861
-3.04643271e-05
-1.68447815e-05
0.000212175807
-5.0929353e-05
-5.12017733e-06
0.000278111822
-7.53076697e-05
9.31631165e-06
0.000355604647
-0.000104222133
2.66698005e-05
0.000445990923
-0.000138411808
4.79612435e-05
0.00055087139
-0.000178589573
7.36396059e-05
0.000672186479
-0.000225557923
0.000104167086
0.00081189569
-0.000280117848
0.000140326354
0.00097191151
-0.000343082241
0.000182977445
0.00115417933
-0.00041527895
0.000232914947
0.00136048513
-0.000497477258
0.000291068091
0.00159221428
-0.000590094848
0.000358262257
0.0018511925
-0.000694730306
0.00043565327
0.00213888527
-0.000810983053
0.000523196347
0.00245147743
-0.000933977027
0.000621296339
0.00279344564
-0.00108309999
0.000741049236
0.00318653125
-0.00125017929
0.000857015956
0.00358825695
-0.00135878845
0.000956990832
0.00393676933
-0.00153704385
0.00118846564
0.00440153185
-0.00187910318
0.00141428102
0.00504739181
-0.0020188401
0.00137292746
0.00551696286
-0.00201188194
0.00154226715
0.00578581547
-0.00234748117
0.00207858628
0.00617211879
-0.00273316012
0.00234682603
0.00681441297
-0.00289519096
0.00225288198
0.00734693244
-0.00291577797
0.00238326322
-0.00304797573
0.00282777986
0.00756714435
-4.14798116e-08
3.33211399e-07
-1.64774866e-07
1.01644173e-06
-3.73508382e-07
1.74257376e-06
-6.72902823e-07
2.51550684e-06
-1.06902703e-06
3.3367623e-06
-1.56832706e-06
4.20725538e-06
-2.1773683e-06
5.12775363e-06
-2.90244683e-06
6.09864341e-06
-3.74933697e-06
7.11994991e-06
-4.72310428e-06
8.1913415e-06
-5.82796796e-06
9.31215422e-06
-7.06719731e-06
1.0481415e-05
-8.44302538e-06
1.16978625e-05
-9.95656526e-06
1.29599639e-05
-1.16077279e-05
1.42659297e-05
-1.33951097e-05
1.56137068e-05
-1.53158711e-05
1.70009725e-05
-1.73655812e-05
1.84251007e-05
-1.95380299e-05
1.98831177e-05
-2.18250106e-05
2.13716456e-05
-2.42160667e-05
2.28868296e-05
-2.66981932e-05
2.44242466e-05
-2.92555067e-05
2.59788102e-05
-3.1868856e-05
2.75446463e-05
-3.45153821e-05
2.91149483e-05
-3.71680435e-05
3.06818432e-05
-3.97950964e-05
3.22362126e-05
-4.23595403e-05
3.37675235e-05
-4.48183554e-05
3.52634383e-05
-4.71211668e-05
3.67091206e-05
-4.92111294e-05
3.808944e-05
-5.10246249e-05
3.93871145e-05
-5.24930545e-05
4.05835749e-05
-5.35453363e-05
4.16610848e-05
-5.40877616e-05
4.25761307e-05
-5.39982178e-05
4.32844814e-05
-5.31147308e-05
4.37307451e-05
-5.12603031e-05
4.38616725e-05
-4.82514077e-05
4.36154796e-05
-4.38963946e-05
4.29155678e-05
-3.79773017e-05
4.16836499e-05
-3.02429613e-05
3.98198315e-05
-2.04162404e-05
3.72111138e-05
-8.15896077e-06
3.36979921e-05
6.88368169e-06
2.9164805e-05
2.49786983e-05
2.35717126e-05
4.64595512e-05
1.66844176e-05
7.21566111e-05
7.8966217e-06
0.000102759534
-2.89562031e-06
0.000139066026
-1.57883867e-05
0.000182006193
-3.16295209e-05
0.000232623403
-5.06833798e-05
0.000292157623
-7.33738631e-05
0.000361946103
-0.000100296282
0.000443069523
-0.000132099466
0.000537173557
-0.000169462119
0.000645995247
-0.000213098428
0.000771280798
-0.000263756442
0.000914802509
-0.000322174636
0.00107833973
-0.000389163456
0.00126349741
-0.00046534921
0.0014717045
-0.000551367077
0.00170431539
-0.000647966446
0.00196255686
-0.000755791647
0.00224684897
-0.000874455774
0.00255734716
-0.00100529404
0.00289656988
-0.00115026767
0.00326143708
-0.00129890338
0.00363525186
-0.00145697039
0.00404415403
-0.00165913459
0.0045138253
-0.00182850936
0.00492813025
-0.00195139558
0.00526035301
-0.00221136851
0.00574134539
-0.00249986869
0.00631290246
-0.0025834679
0.00665134439
-0.00268594911
0.00680205996
-0.00288389461
0.00697612804
-0.00306927521
0.0072697772
-0.00320943906
-0.00331579146
0.00753759299
-3.06285306e-08
3.62992478e-07
-1.20968701e-07
1.10557748e-06
-2.73379239e-07
1.89359625e-06
-4.9147954e-07
2.73205025e-06
-7.79636206e-07
3.62320321e-06
-1.14252737e-06
4.56827608e-06
-1.58467587e-06
5.56787598e-06
-2.11018387e-06
6.62196443e-06
-2.722672e-06
7.73008215e-06
-3.42494994e-06
8.8910846e-06
-4.21886073e-06
1.01033395e-05
-5.10515561e-06
1.1364781e-05
-6.0833849e-06
1.26729455e-05
-7.15178738e-06
1.40249878e-05
-8.30716935e-06
1.5417685e-05
-9.54476942e-06
1.68474155e-05
-1.08580898e-05
1.83101188e-05
-1.2238705e-05
1.98012403e-05
-1.36760286e-05
2.13156441e-05
-1.51570427e-05
2.28475197e-05
-1.66659728e-05
2.43902541e-05
-1.81838859e-05
2.59362645e-05
-1.96882267e-05
2.74768404e-05
-2.11523017e-05
2.90019698e-05
-2.25447049e-05
3.05001308e-05
-2.38293741e-05
3.19587882e-05
-2.49653665e-05
3.33639369e-05
-2.59066146e-05
3.46999473e-05
-2.66021266e-05
3.59495722e-05
-2.69974032e-05
3.70943965e-05
-2.70202427e-05
3.81015877e-05
-2.65829135e-05
3.89383786e-05
-2.55804177e-05
3.95689112e-05
-2.38785663e-05
3.99462695e-05
-2.13339222e-05
4.00176888e-05
-1.77881277e-05
3.97239362e-05
-1.30674053e-05
3.89942595e-05
-6.98371769e-06
3.77611984e-05
6.78834228e-07
3.59350712e-05
1.01613037e-05
3.34141118e-05
2.1765164e-05
3.00596393e-05
3.57975854e-05
2.57659966e-05
5.24582755e-05
2.05276197e-05
7.22797913e-05
1.38524669e-05
9.58101397e-05
5.60966579e-06
0.000123659193
-4.30337766e-06
0.000156572248
-1.62567479e-05
0.000195438851
-3.10001983e-05
0.000241134876
-4.86237249e-05
0.000294873762
-6.95613755e-05
0.000357579896
-9.43718962e-05
0.000430493409
-0.000123635503
0.000515055241
-0.000157976884
0.000612780032
-0.00019806529
0.00072525844
-0.000244625085
0.000854169185
-0.000298423045
0.00100114462
-0.000360126999
0.00116778175
-0.000430450258
0.00135560332
-0.000510056763
0.00156584226
-0.000599465169
0.00179954703
-0.000699114771
0.00205725674
-0.00080913442
0.00233939604
-0.000930160011
0.00264600202
-0.00106244932
0.00297652036
-0.00120502307
0.00332752297
-0.00135634371
0.00369768235
-0.00152047183
0.00409208259
-0.00169334713
0.00448869132
-0.00185362083
0.00487574736
-0.00204623136
0.00529784017
-0.00225064001
0.00574123943
-0.0023948289
0.00605691135
-0.00252706977
0.00627254977
-0.0027155373
0.00654029474
-0.00285124994
0.00681906393
-0.00296475103
0.00700854742
-0.00307339802
0.00712075061
-0.0031814985
0.00721674695
-0.00330545333
-0.003417435
0.00731838051
-2.33787477e-08
3.85676924e-07
-9.15609411e-08
1.17278237e-06
-2.05658285e-07
2.00657412e-06
-3.67748634e-07
2.8928888e-06
-5.80382109e-07
3.83445861e-06
-8.46289398e-07
4.83268031e-06
-1.16791719e-06
5.88787226e-06
-1.54723477e-06
6.99951552e-06
-1.98523137e-06
8.16616884e-06
-2.48185517e-06
9.38564445e-06
-3.03610508e-06
1.06553595e-05
-3.64569994e-06
1.19719667e-05
-4.30692866e-06
1.33315716e-05
-5.01451379e-06
1.47297619e-05
-5.76146073e-06
1.61615965e-05
-6.53887455e-06
1.76215525e-05
-7.33574186e-06
1.91034503e-05
-8.13863886e-06
2.06003239e-05
-8.93139949e-06
2.21042941e-05
-9.69475274e-06
2.36064456e-05
-1.04059833e-05
2.50967198e-05
-1.10391784e-05
2.65643322e-05
-1.15647414e-05
2.7996889e-05
-1.19492873e-05
2.93806039e-05
-1.21555617e-05
3.07000741e-05
-1.21363735e-05
3.19328213e-05
-1.18367329e-05
3.30570487e-05
-1.11920133e-05
3.40474738e-05
-1.01256487e-05
3.48749147e-05
-8.54413383e-06
3.55040262e-05
-6.34468134e-06
3.58926973e-05
-3.40947658e-06
3.59931275e-05
4.00356649e-07
3.5748352e-05
5.24286312e-06
3.50923174e-05
1.12836934e-05
3.39646916e-05
1.87118063e-05
3.22829011e-05
2.77396825e-05
2.99526753e-05
3.86347928e-05
2.68515672e-05
5.16770509e-05
2.28774226e-05
6.7052231e-05
1.80226107e-05
8.52577164e-05
1.18370895e-05
0.000106776876
4.22902864e-06
0.000132173166
-4.8875955e-06
0.000162084274
-1.60787997e-05
0.000197257186
-2.95845813e-05
0.000238649781
-4.5718618e-05
0.000287260212
-6.4891199e-05
0.000343829745
-8.75952602e-05
0.000409515732
-0.000114336845
0.000485606728
-0.000145681326
0.000573457509
-0.000182253663
0.000674518675
-0.000224729812
0.000790278203
-0.000273771591
0.000922265416
-0.000330089852
0.00107199345
-0.000394392688
0.00124088774
-0.000467359596
0.0014303532
-0.000549637664
0.00164152695
-0.000641670821
0.00187518134
-0.000743756519
0.00213158192
-0.000855909011
0.00241049155
-0.000978065431
0.00271078262
-0.00110946483
0.0030309193
-0.0012503342
0.00336850906
-0.00140007541
0.00372177574
-0.00155832464
0.00408582655
-0.0017204287
0.00445222439
-0.00188690285
0.00482147852
-0.00206263415
0.00519368722
-0.00222585995
0.00552059353
-0.00237316552
0.00578561915
-0.00251569303
0.00603451977
-0.00264375826
0.00626197986
-0.00275456267
0.00642038596
-0.00287397438
0.00655338482
-0.00298426912
0.00667954636
-0.0030909414
0.0068004403
-0.00319431906
0.00691747555
-0.00329855151
0.00701696046
-0.00340495443
-0.00350851923
0.00710803473
-2.08685694e-08
4.0564163e-07
-8.07876673e-08
1.23143027e-06
-1.79798053e-07
2.1041297e-06
-3.18491356e-07
3.02995826e-06
-4.97571937e-07
4.0117569e-06
-7.17546677e-07
5.05071892e-06
-9.78538585e-07
6.14677317e-06
-1.2799237e-06
7.29865034e-06
-1.61992217e-06
8.50374994e-06
-1.99556411e-06
9.75869282e-06
-2.40216856e-06
1.10591845e-05
-2.83349141e-06
1.24003131e-05
-3.28168958e-06
1.37765841e-05
-3.73697097e-06
1.51816355e-05
-4.18737152e-06
1.66083534e-05
-4.61852615e-06
1.80488138e-05
-5.01343576e-06
1.94942019e-05
-5.35238197e-06
2.09348286e-05
-5.6126851e-06
2.2359854e-05
-5.76725143e-06
2.37559596e-05
-5.78458406e-06
2.51086743e-05
-5.62799501e-06
2.64020114e-05
-5.25488068e-06
2.76176704e-05
-4.61543572e-06
2.87346614e-05
-3.65130488e-06
2.97290293e-05
-2.29790095e-06
3.05720575e-05
-4.78992092e-07
3.12303118e-05
1.8953195e-06
3.16648424e-05
4.93108551e-06
3.18302791e-05
8.75185057e-06
3.16738058e-05
1.34890934e-05
3.11454046e-05
1.92936259e-05
3.017791e-05
2.63359388e-05
2.86946856e-05
3.48074081e-05
2.66087888e-05
4.49474041e-05
2.38119039e-05
5.70128405e-05
2.02038754e-05
7.11948367e-05
1.5756243e-05
8.79207843e-05
1.0110482e-05
0.000107641042
3.14131748e-06
0.000130855173
-5.20842376e-06
0.000158133711
-1.54594946e-05
0.000190145592
-2.78020043e-05
0.000227776614
-4.25389267e-05
0.000271717222
-6.00409511e-05
0.000322836784
-8.07269879e-05
0.000382153957
-0.000105060047
0.000450793865
-0.000133556879
0.000529956664
-0.000166785545
0.000620922014
-0.000205331404
0.000725039886
-0.0002498301
0.00084369042
-0.000300936739
0.000978240223
-0.000359313887
0.00113005515
-0.000425622529
0.00130039728
-0.000500470081
0.00149036676
-0.000584402574
0.00170079046
-0.000677824759
0.00193207574
-0.000780962818
0.00218412234
-0.000893755115
0.00245624028
-0.00101590993
0.00274702735
-0.00114672978
0.00305432118
-0.0012853912
0.00337492079
-0.00143009516
0.00370449489
-0.00157993769
0.00403807534
-0.00173368455
0.00437027429
-0.00189055143
0.00469837876
-0.00204856052
0.00500975271
-0.0021983019
0.00528145115
-0.00233435781
0.00551473444
-0.00245917101
0.00570785483
-0.00256631312
0.00586614354
-0.00267400691
0.00600296276
-0.00278060652
0.00613341759
-0.00288505059
0.00624869626
-0.00298928285
0.00635186959
-0.00308747126
0.00644613391
-0.00318523071
0.00653235431
-0.00328055621
0.00661771509
-0.00338393204
0.00671448133
-0.00350173717
-0.00360922876
0.00681518051
-2.19217582e-08
4.26933208e-07
-8.43657778e-08
1.29299222e-06
-1.86213815e-07
2.20497086e-06
-3.26494784e-07
3.1691155e-06
-5.03945595e-07
4.18797197e-06
-7.16713116e-07
5.26213922e-06
-9.62035683e-07
6.39063403e-06
-1.23594685e-06
7.57097936e-06
-1.5332635e-06
8.79935531e-06
-1.84716112e-06
1.00707398e-05
-2.16877636e-06
1.13787984e-05
-2.48715138e-06
1.27165242e-05
-2.78885298e-06
1.4075947e-05
-3.05794035e-06
1.54481951e-05
-3.27570852e-06
1.68233899e-05
-3.42030826e-06
1.81904686e-05
-3.46616801e-06
1.95368895e-05
-3.38368895e-06
2.0848924e-05
-3.13882645e-06
2.21112948e-05
-2.693051e-06
2.33062108e-05
-2.0020781e-06
2.4413435e-05
-1.0142496e-06
2.5409602e-05
3.30916945e-07
2.62675919e-05
2.10450022e-06
2.69558035e-05
4.3899483e-06
2.74379199e-05
7.27912048e-06
2.76768272e-05
1.08766962e-05
2.76262614e-05
1.53019421e-05
2.72326812e-05
2.06905354e-05
2.64343092e-05
2.71958522e-05
2.51606302e-05
3.50009879e-05
2.33319064e-05
4.43182242e-05
2.08517898e-05
5.53983208e-05
1.76051506e-05
6.84321685e-05
1.35649144e-05
8.37580209e-05
8.47552682e-06
0.000101809039
2.1418448e-06
0.000123027213
-5.47362919e-06
0.000147919675
-1.47944556e-05
0.000177079206
-2.60314351e-05
0.000211291948
-3.943516e-05
0.000251160662
-5.53430122e-05
0.000297472932
-7.41299511e-05
0.000351129505
-9.62121035e-05
0.000413119803
-0.000122048876
0.000484515802
-0.000152141737
0.000566467773
-0.000187031974
0.00066018506
-0.0002272953
0.00076690998
-0.000273532824
0.000887918002
-0.000326363042
0.00102445116
-0.000386388235
0.00117766514
-0.000454177093
0.00134855213
-0.000530228937
0.00153784784
-0.000614948164
0.00174594389
-0.00070859721
0.00197278801
-0.000811277075
0.00221781447
-0.000922880285
0.00247988078
-0.00104305677
0.00275709062
-0.00117099146
0.00304678595
-0.00130563057
0.00334539725
-0.00144536556
0.00364872914
-0.00158874667
0.00395159325
-0.00173298233
0.00424835048
-0.00187671728
0.00453268048
-0.00201803644
0.00479643989
-0.00215433158
0.00502780255
-0.00227994347
0.00522149704
-0.00239201816
0.00537866869
-0.00249155539
0.00550795254
-0.00258847799
0.00562547863
-0.00268385844
0.00573294754
-0.00278149634
0.00583096508
-0.00287864684
0.00591934329
-0.00297345125
0.00599977872
-0.00306974293
0.0060785751
-0.00316628806
0.00615724847
-0.00326392578
0.00624293762
-0.00336626617
0.00632485832
-0.00346586954
0.00640661844
-0.00358351315
-0.00369749196
0.00649487227
-2.4713989e-08
4.50810293e-07
-9.42001441e-08
1.36130789e-06
-2.05948094e-07
2.31538434e-06
-3.57077032e-07
3.31875888e-06
-5.43920667e-07
4.37318827e-06
-7.61724588e-07
5.47817823e-06
-1.00431859e-06
6.63132531e-06
-1.26380595e-06
7.8284227e-06
-1.5302806e-06
9.06363901e-06
-1.79160683e-06
1.03297201e-05
-2.03346914e-06
1.16181504e-05
-2.23869118e-06
1.29190628e-05
-2.38678465e-06
1.42211714e-05
-2.45395278e-06
1.55122962e-05
-2.41249632e-06
1.67786593e-05
-2.23037215e-06
1.80048571e-05
-1.87088061e-06
1.91736854e-05
-1.29167827e-06
2.02657608e-05
-4.43210565e-07
2.12586037e-05
7.30885832e-07
2.21276185e-05
2.29486057e-06
2.28446774e-05
4.32251269e-06
2.33768633e-05
6.89769242e-06
2.3686999e-05
1.01158438e-05
2.37318927e-05
1.40854962e-05
2.34621438e-05
1.89349874e-05
2.28208267e-05
2.48115876e-05
2.17427444e-05
3.18832656e-05
2.01536541e-05
4.03443153e-05
1.79654582e-05
5.04219966e-05
1.50746585e-05
6.23072297e-05
1.14378456e-05
7.62928658e-05
6.85684617e-06
9.27588047e-05
1.12946864e-06
0.000112094486
-5.78111037e-06
0.000134752493
-1.41935659e-05
0.000161260001
-2.4377492e-05
0.000192296941
-3.65231419e-05
0.000228421085
-5.09319667e-05
0.000270313363
-6.79379229e-05
0.00031877391
-8.79108246e-05
0.000374676764
-0.000111261952
0.000438971466
-0.000138441809
0.000512678459
-0.000169937378
0.000596880448
-0.000206270276
0.000692706063
-0.000247987877
0.000801302725
-0.000295650327
0.000923801888
-0.000349817332
0.00106127171
-0.000411026748
0.00121464971
-0.00047976639
0.00138466934
-0.000556434655
0.00157176776
-0.00064130391
0.00177597231
-0.000734463031
0.0019968052
-0.000835810055
0.00223323644
-0.000945056034
0.00248363713
-0.00106170386
0.00274566113
-0.00118492913
0.00301633898
-0.00131375823
0.00329188624
-0.00144656138
0.00356814827
-0.00158191432
0.0038396313
-0.00171686977
0.00410267218
-0.00185180807
0.00435110409
-0.00198143392
0.00457704279
-0.00210267393
0.00477297617
-0.00221398811
0.0049355336
-0.00231691023
0.00506517387
-0.00240960418
0.00517380075
-0.00250066487
0.00527281531
-0.00259059008
0.00536755767
-0.00268323731
0.00545812957
-0.00277444803
0.00554256404
-0.00286594808
0.00561885423
-0.00295495554
0.00569065135
-0.00304526732
0.00576222172
-0.00314133175
0.00583794452
-0.00324202656
0.00591598338
-0.00334197757
0.00599272937
-0.00344302459
0.00607685606
-0.00355000893
0.00615765946
-0.00366432484
-0.00377883206
0.00623899339
-2.56950632e-08
4.75981542e-07
-9.69332279e-08
1.43181485e-06
-2.09324967e-07
2.42694276e-06
-3.5755213e-07
3.4660567e-06
-5.34921111e-07
4.54953542e-06
-7.3304619e-07
5.67518906e-06
-9.4151024e-07
6.83857964e-06
-1.14754291e-06
8.03314482e-06
-1.33567555e-06
9.25035344e-06
-1.48739241e-06
1.04799028e-05
-1.58073794e-06
1.17098354e-05
-1.59009743e-06
1.29266247e-05
-1.4858524e-06
1.41149801e-05
-1.23344559e-06
1.52577825e-05
-7.92916995e-07
1.6335853e-05
-1.18518682e-07
1.73279975e-05
8.42172292e-07
1.82103355e-05
2.14914176e-06
1.89559217e-05
3.8705728e-06
1.95340803e-05
6.08489552e-06
1.99099651e-05
8.88201319e-06
2.00439732e-05
1.23648685e-05
1.98901505e-05
1.66514232e-05
1.93963019e-05
2.18762775e-05
1.8502595e-05
2.81930369e-05
1.71406235e-05
3.57787602e-05
1.52300108e-05
4.48380478e-05
1.26780109e-05
5.55530419e-05
9.43282929e-06
6.81920624e-05
5.32025394e-06
8.30872328e-05
1.72986106e-07
0.000100583914
-6.06574684e-06
0.00012108342
-1.36500722e-05
0.000145033289
-2.28283096e-05
0.00017302379
-3.37800182e-05
0.000205593774
-4.67724785e-05
0.000243310768
-6.21039668e-05
0.000286880232
-8.01026677e-05
0.000337071759
-0.000101134177
0.00039472315
-0.000125600668
0.000460737986
-0.000153937738
0.000536075174
-0.000186611937
0.000621734879
-0.000224115044
0.000718738279
-0.000266955061
0.000828097392
-0.000315644474
0.000950777139
-0.000370683539
0.00108764869
-0.000432538684
0.00123942939
-0.000501615751
0.00140661062
-0.000578226737
0.00158937323
-0.000662548957
0.00178748436
-0.000754566958
0.00200019902
-0.000854039891
0.00222618975
-0.000960474348
0.00246352158
-0.00107316163
0.00270959362
-0.00119114713
0.0029611492
-0.00131327776
0.00321424783
-0.00143804554
0.003464516
-0.0015640436
0.00370720163
-0.00168926395
0.00393829355
-0.00181302285
0.00415269695
-0.00193128892
0.0043432563
-0.00204238162
0.00450587039
-0.00214406309
0.00464049091
-0.00223731263
0.00475286811
-0.00232638182
0.00484988406
-0.00241394011
0.0049385676
-0.002498306
0.00502090616
-0.002583019
0.00509696493
-0.0026666612
0.00517169541
-0.00275798172
0.0052413691
-0.00284413938
0.00530683983
-0.00293143885
0.00537510291
-0.00302323575
0.0054480288
-0.00311820745
0.00551953701
-0.00321285466
0.00558955717
-0.00331206294
0.0056638757
-0.00341631052
0.0057388555
-0.00351801481
0.00581292222
-0.00362408545
0.00588388777
-0.00373529773
-0.00385234176
0.00595739159
-2.29840123e-08
4.98246184e-07
-8.40519703e-08
1.49187915e-06
-1.76200619e-07
2.51794903e-06
-2.90801124e-07
3.57938695e-06
-4.17164081e-07
4.67450826e-06
-5.42169808e-07
5.79868848e-06
-6.49863546e-07
6.94464998e-06
-7.21058498e-07
8.1025962e-06
-7.32895398e-07
9.26032256e-06
-6.58414638e-07
1.04034238e-05
-4.66073846e-07
1.15153571e-05
-1.19136154e-07
1.25774016e-05
4.24766041e-07
1.35686371e-05
1.21418096e-06
1.44657624e-05
2.30456534e-06
1.52426893e-05
3.75935561e-06
1.58702448e-05
5.65114861e-06
1.63153866e-05
8.06281784e-06
1.65408897e-05
1.1088975e-05
1.65043409e-05
1.48376654e-05
1.61574607e-05
1.94323609e-05
1.54452183e-05
2.501338e-05
1.43048118e-05
3.17419052e-05
1.26631833e-05
3.97980296e-05
1.04415813e-05
4.93530659e-05
7.58037386e-06
6.06625057e-05
3.91505255e-06
7.40045824e-05
-6.69871809e-07
8.9685562e-05
-6.25432176e-06
0.00010805788
-1.30586732e-05
0.000129514474
-2.1290662e-05
0.000154560764
-3.11195484e-05
0.000183685427
-4.27827394e-05
0.000217392814
-5.65442224e-05
0.000256299045
-7.26953376e-05
0.00030107705
-9.15601695e-05
0.000352457866
-0.000113495122
0.000411231408
-0.00013888725
0.000478237577
-0.000168152108
0.000554353973
-0.000201729543
0.000640479431
-0.000240076425
0.000737510685
-0.000283657189
0.000846311232
-0.000332930391
0.000967671908
-0.000388331355
0.0011022618
-0.000450250839
0.00125057035
-0.000519009409
0.00141284078
-0.000594827345
0.00158899544
-0.000677789659
0.00177855749
-0.000767809236
0.00198057119
-0.000864583548
0.00219353925
-0.000967555306
0.0024154041
-0.00107592413
0.00264352553
-0.0011886144
0.00287462911
-0.00130428304
0.00310488502
-0.00142142027
0.00333006099
-0.00153847033
0.00354573864
-0.00165373942
0.00374726196
-0.00176558273
0.0039311789
-0.00187319612
0.00409248167
-0.00197433983
0.00422900214
-0.00206782434
0.00434050558
-0.00215390244
0.00443434745
-0.00223792062
0.00451743945
-0.00232041747
0.00459183804
-0.00240079475
0.00466095822
-0.0024830748
0.00472675338
-0.00256411589
0.00478800469
-0.00264428282
0.00484596378
-0.00272463351
0.00489849623
-0.00281053259
0.00495736847
-0.00290302744
0.00501913246
-0.00299321236
0.00508133191
-0.00308544578
0.00514540056
-0.00318228773
0.00521404336
-0.0032815101
0.0052828808
-0.00338091245
0.00535388312
-0.00348732176
0.00542878071
-0.00359292066
0.00550870777
-0.0037040204
0.00558559874
-0.00381219201
-0.00393077958
0.00566403515
-1.49817837e-08
5.12810204e-07
-4.95334194e-08
1.52584789e-06
-9.27559633e-08
2.56050719e-06
-1.31370117e-07
3.61725973e-06
-1.49193143e-07
4.69151555e-06
-1.26687308e-07
5.7752922e-06
-4.04694664e-08
6.85746378e-06
1.37209167e-07
7.92386644e-06
4.38947468e-07
8.95744452e-06
9.02679161e-07
9.93845635e-06
1.57225346e-06
1.08444429e-05
2.498064e-06
1.16501381e-05
3.73787283e-06
1.2327253e-05
5.35766357e-06
1.28442647e-05
7.43290469e-06
1.31655996e-05
1.00496116e-05
1.32515351e-05
1.330577e-05
1.30570595e-05
1.7312787e-05
1.25315269e-05
2.21970902e-05
1.16175028e-05
2.81028945e-05
1.02489202e-05
3.51924815e-05
8.35267849e-06
4.36253951e-05
5.86871121e-06
5.36340638e-05
2.65110003e-06
6.54594362e-05
-1.38743673e-06
7.93722256e-05
-6.33633602e-06
9.56810829e-05
-1.23980284e-05
0.000114730351
-1.97236704e-05
0.00013695621
-2.84850352e-05
0.000162783458
-3.88911166e-05
0.00019266151
-5.11742688e-05
0.000227127803
-6.55917752e-05
0.000266768345
-8.24296157e-05
0.000312219724
-0.000102002361
0.000364169539
-0.000124652373
0.000423349765
-0.000150748079
0.000490527357
-0.000180680861
0.000566490989
-0.000214859503
0.000652032298
-0.000253702528
0.000747920541
-0.000297627398
0.000854870357
-0.00034703637
0.000973501436
-0.000402298924
0.00110429056
-0.000463730724
0.00124751643
-0.000531568988
0.00140319822
-0.000605944979
0.00157102966
-0.000686853817
0.00175031047
-0.000774121897
0.00193988461
-0.00086737819
0.00213809596
-0.000966035028
0.00234278144
-0.00106928297
0.00255131867
-0.00117610605
0.00276064044
-0.00128525895
0.00296729807
-0.00139528475
0.00316756717
-0.00150456448
0.0033576275
-0.00161149271
0.00353381754
-0.00171467223
0.00369310003
-0.00181303363
0.00383325953
-0.00190575371
0.00395253929
-0.00199248761
0.00405155415
-0.00207336717
0.00413512425
-0.00215140554
0.0042090919
-0.00222788002
0.00427664868
-0.0023054893
0.0043393898
-0.00238316915
0.00439875146
-0.00246016725
0.00445549084
-0.00253982486
0.00450991721
-0.00261855229
0.00456351865
-0.00269789793
0.00461741662
-0.00277854432
0.00466538473
-0.00285851029
0.00470802884
-0.00294568213
0.00475652834
-0.00304172314
0.00480903984
-0.00313796934
0.00486561873
-0.00323887658
0.00492623944
-0.00334213914
0.00499006224
-0.00344474251
0.00505741103
-0.00355467625
0.00512721644
-0.00366272939
0.00519763945
-0.00377444573
0.0052712618
-0.00388581397
-0.00400545506
0.00534593819
-1.13561633e-09
5.13354637e-07
9.63785427e-09
1.51425199e-06
4.85503987e-08
2.52066006e-06
1.35202278e-07
3.52956948e-06
2.93082648e-07
4.53249915e-06
5.50095627e-07
5.51704804e-06
9.391221e-07
6.46711055e-06
1.49858833e-06
7.36297524e-06
2.27305024e-06
8.1814552e-06
3.31392825e-06
8.89594299e-06
4.68027957e-06
9.476342e-06
6.43956118e-06
9.88898702e-06
8.66892518e-06
1.00958924e-05
1.14561623e-05
1.0054894e-05
1.4901052e-05
9.71843051e-06
1.91167849e-05
9.03336872e-06
2.42319304e-05
7.93931745e-06
3.03921272e-05
6.36855787e-06
3.77453083e-05
4.26136074e-06
4.64931054e-05
1.49797713e-06
5.68473314e-05
-2.00488761e-06
6.90463558e-05
-6.33388414e-06
8.33600644e-05
-1.16664274e-05
0.000100093499
-1.81249467e-05
0.000119620909
-2.58680951e-05
0.000142298328
-3.50800915e-05
0.000168535113
-4.59654131e-05
0.000198796026
-5.87512431e-05
0.000233588647
-7.36893928e-05
0.000273464967
-9.10566341e-05
0.000319021249
-0.000111154524
0.000370893177
-0.000134308455
0.000429748707
-0.000160865251
0.00049627761
-0.000191189107
0.000571176757
-0.00022565554
0.000655129871
-0.000264642795
0.000748781645
-0.000308520615
0.000852705155
-0.000357635914
0.000967362843
-0.000412295507
0.00109306117
-0.000472745683
0.00122989986
-0.00053914916
0.00137771699
-0.00061155997
0.00153603269
-0.000689897371
0.00170399455
-0.000773920181
0.00188032739
-0.000863200721
0.00206329514
-0.000957104145
0.00225069542
-0.00105479272
0.00243991166
-0.00115526505
0.00262800208
-0.00125738668
0.00281180169
-0.00135991857
0.0029880959
-0.00146156567
0.00315385578
-0.00156105685
0.00330647901
-0.00165719962
0.00344393614
-0.00174896157
0.00356513769
-0.00183588527
0.00366962135
-0.00191752891
0.00375884877
-0.00199499266
0.00383546006
-0.00206910911
0.00390418099
-0.002142098
0.00396777776
-0.00221501222
0.00402744949
-0.00228756031
0.0040841722
-0.00236222082
0.00413921547
-0.00243822114
0.00419209743
-0.00251305785
0.00424283021
-0.00259056651
0.00429301535
-0.00266874546
0.00434363671
-0.00274852676
0.00439108772
-0.00282600453
0.00443934171
-0.0029067724
0.00448556871
-0.00299191793
0.00452989249
-0.00308605565
0.00458405084
-0.00319213451
0.00464020666
-0.00329503871
0.00469590196
-0.00339783975
0.00475818806
-0.00350703212
0.00482070498
-0.00361719507
0.00488236309
-0.00372438778
0.00493879517
-0.00383087693
0.00498536348
-0.00393237854
-0.0040543458
0.00503425797
1.9248736e-08
4.93777613e-07
9.58302853e-08
1.43721242e-06
2.53052398e-07
2.36291571e-06
5.18630716e-07
3.2634079e-06
9.25279712e-07
4.12520747e-06
1.51134896e-06
4.93027598e-06
2.32148767e-06
5.65620631e-06
3.40735645e-06
6.27627392e-06
4.82841126e-06
6.75949549e-06
6.65265133e-06
7.07071994e-06
8.95787288e-06
7.17005263e-06
1.18324735e-05
7.01322501e-06
1.53768384e-05
6.55026419e-06
1.97049127e-05
5.72544632e-06
2.49456806e-05
4.47616915e-06
3.12345518e-05
2.74287323e-06
3.87454399e-05
4.26670895e-07
4.76638584e-05
-2.55176234e-06
5.81989881e-05
-6.27583485e-06
7.05867979e-05
-1.08920764e-05
8.5092238e-05
-1.65127571e-05
0.000102035165
-2.32794399e-05
0.000121719661
-3.13537642e-05
0.000144506745
-4.09150973e-05
0.000170798356
-5.21630146e-05
0.000201033273
-6.5318573e-05
0.000235688716
-8.06246929e-05
0.000275279617
-9.83462746e-05
0.000320355584
-0.000118769797
0.000371495735
-0.000142201536
0.000429300831
-0.000168964691
0.000494381739
-0.000199394767
0.000567343736
-0.000233832989
0.000648765956
-0.000272617418
0.000739175563
-0.000316071589
0.000839016493
-0.000364490529
0.000948612818
-0.000418124104
0.00106812731
-0.000477157938
0.00119751602
-0.000541692109
0.00133648105
-0.000611718967
0.00148442385
-0.000687100575
0.00164040318
-0.000767548283
0.00180310258
-0.000852606158
0.00197081257
-0.000941640035
0.00214142675
-0.00103382496
0.002312479
-0.00112816629
0.00248124759
-0.00122357089
0.00264486811
-0.00131889491
0.00280049189
-0.00141301953
0.00294550286
-0.00150493844
0.00307778179
-0.00159385328
0.00319596739
-0.00167925102
0.00329967882
-0.00176091946
0.00338941263
-0.00183870396
0.00346653343
-0.00191301475
0.00353364579
-0.00198464896
0.00359428512