/*--------------------------------*- C++ -*----------------------------------*\
  =========                 |
  \\      /  F ield         | OpenFOAM: The Open Source CFD Toolbox
   \\    /   O peration     | Website:  https://openfoam.org
    \\  /    A nd           | Version:  8
     \\/     M anipulation  |
\*---------------------------------------------------------------------------*/
FoamFile
{
    version     2.0;
    format      ascii;
    class       volVectorField;
    location    "0.065";
    object      U;
}
// * * * * * * * * * * * * * * * * * * * * * * * * * * * * * * * * * * * * * //

dimensions      [0 1 -1 0 0 0 0];

internalField   nonuniform List<vector> 
42400
(
(-0.0163190617 0.0156164424 -7.33623097e-27)
(-0.0488133713 0.0459020731 2.37190464e-26)
(-0.0818222721 0.0756983729 2.33470255e-26)
(-0.115339498 0.104936384 0)
(-0.149275112 0.133510877 0)
(-0.18355765 0.161312562 -5.67140603e-28)
(-0.218141717 0.188250621 0)
(-0.252991668 0.21424836 6.25612057e-28)
(-0.288071443 0.23923643 0)
(-0.323339698 0.263149289 6.90063476e-28)
(-0.35874767 0.28592407 7.24706745e-28)
(-0.394238706 0.307500704 -7.6106467e-28)
(-0.429748992 0.327822845 4.15903549e-27)
(-0.465209046 0.346839323 8.36093419e-27)
(-0.500545468 0.364505792 -8.81279001e-28)
(-0.53568257 0.380786262 0)
(-0.570543609 0.395654323 0)
(-0.605051496 0.409093976 0)
(-0.639129018 0.421100085 0)
(-0.672698617 0.431678522 0)
(-0.705681824 0.44084609 0)
(-0.737998426 0.448630289 -2.48132418e-27)
(-0.769565417 0.455068992 6.02351385e-26)
(-0.800295751 0.460210034 1.3945233e-25)
(-0.830096874 0.464110731 7.99170628e-26)
(-0.858869 0.466837307 -3.02450607e-27)
(-0.886503043 0.468464224 -3.18046076e-27)
(-0.912878114 0.469073375 6.69207719e-27)
(-0.93785868 0.468753062 0)
(-0.961291421 0.467596576 0)
(-0.983001638 0.465698359 -1.49267036e-25)
(-1.00278396 0.463148013 -1.64769556e-25)
(-1.02039593 0.460033216 8.71763335e-27)
(-1.03557204 0.456449449 1.99720266e-25)
(-1.0480553 0.452498228 2.10193046e-25)
(-1.05758725 0.448286232 0)
(-1.06353815 0.444279956 0)
(-1.06570541 0.439907757 0)
(-1.06327956 0.435456317 0)
(-1.05636522 0.430360586 3.47081476e-25)
(-1.04279896 0.426318331 3.34457108e-25)
(-1.02217245 0.422073808 3.86187737e-25)
(-0.992795432 0.417519424 1.00061486e-24)
(-0.95297612 0.412660187 -3.81242179e-26)
(-0.90223591 0.407234419 -6.47592432e-25)
(-0.838687153 0.401702915 -8.07622129e-25)
(-0.760570809 0.395913327 4.74274139e-26)
(-0.666051792 0.389748054 8.72160388e-25)
(-0.553186018 0.383200464 5.40827856e-26)
(-0.420199674 0.37594186 1.14725068e-24)
(-0.263009803 0.368092214 3.45282683e-33)
(-0.0796705999 0.360769266 -2.97887843e-24)
(0.132000481 0.355441298 -1.69575197e-24)
(0.375221445 0.349505662 1.70258974e-25)
(0.670583805 0.340448902 0)
(1.01049264 0.330200251 0)
(1.40252248 0.320868882 0)
(1.85400029 0.312262469 -2.5185608e-25)
(2.37026661 0.304362296 -2.71353187e-25)
(2.95706012 0.297433699 0)
(3.61974501 0.291436677 6.29699483e-24)
(4.36267808 0.286283599 6.89017119e-24)
(5.18918757 0.282526786 -6.77052846e-24)
(6.10148099 0.281613591 -6.73168232e-24)
(7.09889615 0.28443653 0)
(8.18296177 0.28890837 0)
(9.33948172 0.30850974 -3.44468886e-24)
(10.5416354 0.339616732 -2.73362889e-24)
(11.8949706 0.278609498 -1.13882449e-25)
(13.1992671 0.341859257 0)
(14.2018273 0.792523643 0)
(15.9018677 0.360815522 1.55692619e-25)
(17.8733975 -0.605824977 3.35007231e-25)
(18.2388094 0.753566044 0)
(18.821385 2.35400097 9.60831277e-25)
(21.0061195 0.205941462 2.05999211e-24)
(22.9012171 -0.956199231 3.00028954e-23)
(23.3318687 -0.475718573 -2.60033803e-24)
(23.2009733 1.31197624 -3.42202156e-25)
(23.5778994 1.31673023 -1.31989684e-23)
(-0.0198557426 0.0175869109 0)
(-0.0590356644 0.0516805257 1.82721183e-26)
(-0.0985144395 0.085302947 1.7242488e-26)
(-0.138358892 0.118465284 0)
(-0.178502457 0.15109485 0)
(-0.218875238 0.183096063 1.07150548e-26)
(-0.259407074 0.214370259 9.35903231e-27)
(-0.300023644 0.24481804 8.85506801e-28)
(-0.340641821 0.274338895 0)
(-0.381169593 0.302832533 9.76873697e-28)
(-0.42150741 0.330201098 1.02604765e-27)
(-0.461549848 0.356351374 5.29714125e-27)
(-0.501187392 0.381196813 1.93157054e-26)
(-0.540308196 0.404659357 1.3203154e-26)
(-0.578799572 0.426670966 -1.88912855e-26)
(-0.61654903 0.447174752 -1.97802583e-26)
(-0.653444766 0.466125691 0)
(-0.689375573 0.483490929 2.91284434e-27)
(-0.724230271 0.499249773 0)
(-0.757896744 0.513393449 0)
(-0.790260692 0.525924738 0)
(-0.821204157 0.53685753 5.49882385e-26)
(-0.850603865 0.546216374 1.28047762e-25)
(-0.878329371 0.554036015 7.37292354e-26)
(-0.904240942 0.560360939 0)
(-0.928187181 0.565244778 -8.60908089e-27)
(-0.950002343 0.568749534 -4.49250945e-27)
(-0.969503917 0.570945159 9.44409911e-27)
(-0.98648733 0.571909832 1.21297561e-25)
(-1.00072127 0.5717265 1.32190208e-25)
(-1.01197007 0.570479048 -1.10869413e-26)
(-1.01996016 0.568291271 -1.14950188e-26)
(-1.02443672 0.565156425 2.1449575e-25)
(-1.02482809 0.561541039 2.33061489e-25)
(-1.02105258 0.556982347 -2.82798222e-25)
(-1.01235313 0.552095315 -2.78756632e-25)
(-0.998926789 0.546287773 0)
(-0.978604402 0.540752681 1.65105705e-26)
(-0.950894181 0.534498245 0)
(-0.913835876 0.527872268 3.8193968e-26)
(-0.867309799 0.520227439 4.30037625e-25)
(-0.809706048 0.512260674 4.28942926e-25)
(-0.739715667 0.50398715 4.33591131e-26)
(-0.655600926 0.495340907 -4.5985233e-26)
(-0.555427581 0.486233586 9.77363397e-26)
(-0.437497666 0.476349019 -5.05423747e-26)
(-0.299194576 0.465737055 5.49378412e-26)
(-0.140396222 0.454802902 8.6771367e-25)
(0.0464497627 0.445094714 1.03409568e-24)
(0.255535507 0.436844103 0)
(0.507439272 0.426243995 -7.56179557e-26)
(0.800638118 0.413510863 1.58982005e-25)
(1.13861497 0.400511204 1.32585406e-24)
(1.5284813 0.387847885 1.82549444e-24)
(1.97581486 0.375414697 1.97709554e-25)
(2.48565634 0.363417352 4.19851665e-24)
(3.06382548 0.352164285 4.63429425e-24)
(3.71563698 0.341893524 -2.14541249e-25)
(4.44545839 0.333000152 -2.14433726e-25)
(5.25642584 0.326227058 5.98268973e-24)
(6.15072237 0.323012628 6.42918266e-24)
(7.12815781 0.324706073 1.78449503e-25)
(8.18626166 0.331315588 -1.59175733e-25)
(9.31921528 0.343861924 0)
(10.5131751 0.364697253 -5.6946012e-24)
(11.7682007 0.384624125 -1.05165196e-23)
(13.0658405 0.409616536 -4.53711148e-24)
(14.3283846 0.50458508 0)
(15.6725494 0.515721541 2.31901757e-26)
(17.1386719 0.348518784 3.2288085e-25)
(18.1141274 0.72789703 1.10654947e-24)
(19.0314976 1.28462781 4.49873899e-24)
(20.8643812 0.32352279 -3.61130528e-24)
(22.1716834 -0.373023091 7.99307687e-25)
(22.4291529 1.04430825 4.23301918e-26)
(22.9359482 1.67194031 1.46940076e-23)
(23.6631835 0.714424648 1.20707774e-23)
(23.9465889 0.154152703 -2.51901272e-24)
(24.0475588 0.27110274 -1.53933125e-23)
(24.0094427 0.591989381 -8.69427571e-24)
(-0.0227802239 0.0186530958 2.02425901e-27)
(-0.0674836821 0.0548260598 4.00394364e-28)
(-0.112306212 0.0905784138 -4.23242806e-28)
(-0.157378351 0.125983888 4.43630633e-28)
(-0.202665291 0.161003603 0)
(-0.248082777 0.195549071 -6.5188387e-27)
(-0.293546819 0.22952075 9.65817321e-34)
(-0.338940999 0.262804496 1.86228727e-27)
(-0.384132529 0.295276032 -7.84487299e-28)
(-0.428975857 0.326807621 -7.41403117e-27)
(-0.473316624 0.35727326 -5.65012734e-27)
(-0.516995454 0.386552544 1.33614408e-27)
(-0.559850943 0.414533609 1.40497736e-27)
(-0.601721831 0.441115321 -1.84561409e-26)
(-0.642448356 0.466208759 -2.296606e-26)
(-0.681872793 0.489738073 4.90452479e-27)
(-0.719839247 0.511640794 2.95795967e-26)
(-0.756192794 0.531867741 7.71621931e-26)
(-0.790778135 0.550382654 4.45154397e-26)
(-0.823437897 0.567161705 4.00590443e-27)
(-0.854010686 0.582192985 -4.20826877e-27)
(-0.882328841 0.595476093 -4.41986699e-27)
(-0.908215729 0.607021759 0)
(-0.931482799 0.616851601 9.69772528e-27)
(-0.951926093 0.624997625 -8.81506561e-26)
(-0.96932214 0.631501189 5.92203763e-29)
(-0.98343229 0.636404919 1.04580379e-25)
(-0.99399845 0.639755422 1.12755077e-25)
(-1.00074875 0.641582496 1.2597014e-25)
(-1.00328534 0.642042237 -1.34577092e-25)
(-1.00147617 0.641097833 -1.33419198e-26)
(-0.994858367 0.638981723 3.49387648e-25)
(-0.982964895 0.636087107 2.14966551e-25)
(-0.965887685 0.631967217 0)
(-0.941520751 0.627265907 0)
(-0.909298842 0.621260314 -1.75835594e-26)
(-0.867574368 0.614298033 0)
(-0.816239786 0.606115702 3.88885505e-26)
(-0.753919066 0.597242307 2.98751509e-25)
(-0.679392949 0.587749882 8.50653503e-26)
(-0.591017553 0.577606893 -3.05502011e-25)
(-0.486935828 0.566748368 0)
(-0.365655653 0.554785992 0)
(-0.224112905 0.541766623 5.58684843e-25)
(-0.0606469608 0.529279118 7.23144797e-25)
(0.123389925 0.519513266 5.65229161e-26)
(0.332482392 0.509928725 0)
(0.587111909 0.496665144 0)
(0.87962359 0.4814721 8.76715468e-25)
(1.21572154 0.466846836 1.00626416e-24)
(1.60190521 0.452918628 -7.60032318e-26)
(2.04304268 0.439462574 0)
(2.54466149 0.426633166 -1.2074244e-24)
(3.11246213 0.414646823 -1.56744317e-24)
(3.7516274 0.40364637 -3.46875829e-24)
(4.46681038 0.394247975 -3.88176297e-24)
(5.2619536 0.387849569 -4.64059418e-24)
(6.13933707 0.385902847 -1.84506842e-32)
(7.09874917 0.389560299 1.99784963e-32)
(8.13682054 0.399729634 -1.26866363e-23)
(9.24758434 0.417155915 -6.46466347e-24)
(10.4209831 0.442529452 6.32706441e-24)
(11.6480125 0.474461736 6.25021767e-24)
(12.9174643 0.513273112 0)
(14.2033244 0.564539646 6.06574562e-24)
(15.4982805 0.626430829 1.15406223e-23)
(16.8032155 0.655201547 5.78709143e-24)
(18.040921 0.742085711 0)
(19.1294033 0.926199549 -2.61265702e-26)
(20.3948224 0.850817894 4.96984737e-24)
(21.5392685 0.690305782 3.08187324e-24)
(22.2355833 1.18767206 0)
(22.906372 1.44818325 0)
(23.7287994 0.843776944 1.06904751e-24)
(23.9594543 0.722991684 -1.23736056e-24)
(24.0025269 0.987476763 -3.55531117e-24)
(23.9873208 1.26741698 6.85404573e-24)
(23.9463448 1.14234559 0)
(23.9979 0.904646212 -2.82050981e-24)
(24.0231687 0.772194401 7.3786257e-24)
(-0.0251707167 0.0190213925 2.9360782e-28)
(-0.0743891018 0.0558997007 4.61815819e-28)
(-0.12358667 0.0923877571 4.29789804e-27)
(-0.172948625 0.12860653 -2.36159216e-27)
(-0.222465947 0.164547844 -2.5406051e-27)
(-0.27206203 0.200139168 0)
(-0.321601939 0.235268755 -1.30638265e-27)
(-0.370922506 0.269809745 1.63874367e-28)
(-0.419860089 0.303626523 4.38741048e-27)
(-0.46820673 0.336576155 7.44154033e-27)
(-0.515747838 0.368512213 1.37355126e-26)
(-0.562265188 0.39929454 3.77328771e-34)
(-0.607539687 0.428793239 1.64257893e-27)
(-0.651353936 0.456890961 2.21288714e-33)
(-0.693493526 0.483484261 -1.81945201e-27)
(-0.733747065 0.508484199 3.6759419e-26)
(-0.77190516 0.531816327 -4.25415982e-26)
(-0.807758515 0.553420328 -4.20422937e-27)
(-0.84109537 0.57324954 5.09900522e-26)
(-0.871698753 0.591270475 4.63506173e-27)
(-0.899343835 0.607462098 -9.77408124e-27)
(-0.923791111 0.621810353 -7.23811753e-26)
(-0.944783958 0.634304754 -7.9954329e-26)
(-0.962050439 0.644938691 5.62737506e-27)
(-0.975302442 0.653701038 0)
(-0.984255899 0.66064788 6.14337475e-27)
(-0.988624377 0.66585819 0)
(-0.98810003 0.669446869 1.42265768e-25)
(-0.98232961 0.671617787 2.867221e-25)
(-0.971103171 0.672362375 1.54725945e-25)
(-0.953098136 0.671702653 -1.39297189e-25)
(-0.927670057 0.669449515 -1.62784753e-25)
(-0.893886355 0.665555475 3.4297841e-26)
(-0.850406102 0.660212523 1.81597876e-26)
(-0.797059182 0.653506317 -2.24259247e-25)
(-0.732609576 0.645757156 -2.57649336e-25)
(-0.655841464 0.637024311 0)
(-0.565197762 0.627330225 2.90072043e-25)
(-0.458921669 0.6166837 2.70596247e-25)
(-0.335535067 0.604807235 4.57273023e-26)
(-0.192223743 0.591848219 4.94490887e-26)
(-0.0272099551 0.579631155 0)
(0.155625514 0.569092648 0)
(0.373218797 0.556900377 0)
(0.625604566 0.542774719 6.06261283e-26)
(0.916047101 0.528451583 6.89121824e-25)
(1.24966215 0.514859971 6.77408957e-25)
(1.6316384 0.501934935 0)
(2.06628251 0.489565909 0)
(2.55904401 0.478099228 9.34874438e-25)
(3.11550394 0.4677755 1.02170377e-24)
(3.74091377 0.459084555 1.31690738e-24)
(4.44024777 0.452953413 1.53827755e-24)
(5.21744615 0.450441983 -1.50676467e-25)
(6.07488487 0.452460734 -2.17305165e-24)
(7.01286421 0.459801107 -2.22062331e-24)
(8.02926542 0.473310486 -5.3869396e-24)
(9.11926728 0.494081323 -6.09888419e-24)
(10.2751397 0.52332451 0)
(11.4844323 0.562314581 -3.61375042e-27)
(12.7336148 0.612316176 -6.52377105e-24)
(14.0033478 0.673400183 -1.30174126e-23)
(15.2824785 0.741066577 1.16619364e-25)
(16.5542985 0.811278781 1.53364411e-25)
(17.7943226 0.883245952 -7.15216054e-24)
(18.9702979 0.982688822 6.6786563e-24)
(20.0865824 1.05273124 6.78559398e-24)
(21.18065 1.08483281 -6.91613069e-25)
(22.0166175 1.19763704 -4.23338459e-24)
(22.8678804 1.32097342 -1.31528545e-23)
(23.5197203 1.23088825 8.03851553e-26)
(23.830499 1.16593828 -1.18741928e-23)
(23.9271903 1.37246179 -2.17471155e-24)
(23.9743068 1.38701859 0)
(23.9622473 1.33915961 -6.22851808e-24)
(23.9653709 1.25844964 -1.2719093e-23)
(23.9911148 1.16632081 3.08748311e-24)
(23.9962842 1.23123828 7.63517041e-24)
(23.9984899 1.20174839 8.47396857e-24)
(23.9818 1.13797697 1.19920012e-23)
(-0.027295054 0.0189945834 1.62620493e-27)
(-0.0805223737 0.0557650976 0)
(-0.133599225 0.0921167914 0)
(-0.186753439 0.128199751 8.01102107e-31)
(-0.239988997 0.164026152 0)
(-0.293214866 0.199536507 0)
(-0.346279844 0.234629947 0)
(-0.398987825 0.269170645 -2.84319159e-27)
(-0.451070048 0.302997913 0)
(-0.50225686 0.335954308 1.58334534e-27)
(-0.552300521 0.367886701 1.75661715e-26)
(-0.600910019 0.398652899 2.19842067e-33)
(-0.647800883 0.428113498 -2.11217226e-26)
(-0.692691907 0.45614327 0)
(-0.73530457 0.482632936 -2.04423466e-27)
(-0.775362654 0.507489252 4.31089889e-27)
(-0.812590501 0.530634169 0)
(-0.846705925 0.55200104 5.26603726e-26)
(-0.877415255 0.571533112 5.03271257e-27)
(-0.904415086 0.589188742 -1.27255822e-25)
(-0.927411939 0.604903726 -7.69108814e-26)
(-0.946082761 0.618752203 5.73970712e-27)
(-0.960152476 0.630731949 0)
(-0.969306859 0.640910089 -1.08012208e-25)
(-0.973211945 0.649402884 -1.20329517e-25)
(-0.971180443 0.656024133 -1.23298045e-25)
(-0.962625216 0.660815083 -1.38712806e-25)
(-0.946890391 0.66375819 1.47442398e-25)
(-0.923195192 0.664834091 1.52687814e-25)
(-0.890527627 0.664099509 0)
(-0.848525032 0.661797255 -1.85405803e-25)
(-0.796162274 0.658058001 -1.96562154e-25)
(-0.732341962 0.652937267 1.86749753e-26)
(-0.655831492 0.646502555 -2.01153991e-25)
(-0.565126696 0.638823108 -2.31506316e-25)
(-0.458526939 0.629951072 -4.2476469e-26)
(-0.334505341 0.619701199 2.22928589e-26)
(-0.190509182 0.608229976 -3.41529471e-25)
(-0.024665534 0.597295735 -3.57689204e-25)
(0.158984221 0.587729123 3.05305214e-25)
(0.377588672 0.576623644 6.31484902e-25)
(0.629564467 0.563939168 4.47800988e-25)
(0.918908399 0.55140791 0)
(1.24992674 0.539681086 -6.07916528e-26)
(1.62696777 0.528827859 -5.18027922e-25)
(2.05484822 0.519102318 -6.5391196e-26)
(2.53879582 0.510825605 1.30343858e-32)
(3.08416052 0.50441526 -7.16233877e-25)
(3.6960382 0.500638614 0)
(4.3790634 0.500310002 -7.10145793e-26)
(5.13691811 0.504201554 -1.39127192e-24)
(5.97197191 0.513016211 -1.47279509e-24)
(6.88498014 0.527380533 -2.33840615e-25)
(7.87481987 0.547980352 -2.29211768e-24)
(8.93803199 0.575581024 -2.47308361e-24)
(10.0683717 0.611011701 -2.91771412e-24)
(11.2565025 0.654772306 -9.39853146e-24)
(12.4888852 0.707688676 -6.54421344e-24)
(13.7496319 0.770587172 -6.73773161e-24)
(15.0192763 0.843386083 -7.05220241e-24)
(16.2796932 0.925847907 0)
(17.5039879 1.01804682 1.72319357e-25)
(18.6807913 1.11253407 -7.17675725e-24)
(19.789315 1.20351699 -7.73829585e-24)
(20.82297 1.27438076 -3.94797787e-26)
(21.7472858 1.35026118 0)
(22.5407928 1.42310106 1.17310772e-23)
(23.2347999 1.45319522 1.29639199e-23)
(23.7268015 1.44469416 7.84912953e-25)
(23.8294929 1.4871744 -9.31980199e-25)
(23.8738876 1.55315903 -1.78527653e-26)
(23.8837267 1.55064379 -9.54641022e-25)
(23.902193 1.50923564 -1.16659853e-23)
(23.943772 1.44958973 -1.16951564e-23)
(23.9582354 1.4303989 -7.00162011e-25)
(23.9552374 1.38633613 0)
(23.951616 1.42531113 -6.03529419e-24)
(23.994813 1.30575973 -1.00146772e-23)
(24.0341083 1.22948195 0)
(24.0407257 1.22920606 -1.01948277e-23)
(-0.0294309471 0.0188101807 -2.73502203e-27)
(-0.0866629555 0.0551125281 -3.63368325e-27)
(-0.143575937 0.0908968753 -4.32222986e-27)
(-0.200422917 0.12632676 -6.39287934e-28)
(-0.257206142 0.161426958 1.58809983e-27)
(-0.313811452 0.196144154 -1.42371718e-27)
(-0.370045191 0.230377704 2.44863433e-27)
(-0.425649481 0.263994883 8.49925412e-28)
(-0.480322149 0.29684231 1.67134311e-27)
(-0.533734976 0.328748584 3.52307436e-27)
(-0.58549539 0.359549196 -5.7690916e-27)
(-0.635260819 0.389092148 -3.14287278e-26)
(-0.682696221 0.417242327 -2.66971437e-26)
(-0.727434994 0.443885825 -3.04102517e-26)
(-0.769118349 0.468917868 2.29273735e-27)
(-0.8073872 0.49225285 4.90896195e-26)
(-0.841898968 0.513785361 0)
(-0.872273668 0.533521464 0)
(-0.898172005 0.551448131 6.76502944e-26)
(-0.919182868 0.567452428 1.65235013e-25)
(-0.934836463 0.581588213 9.17556967e-26)
(-0.944695211 0.593773105 1.02908924e-25)
(-0.948192014 0.604025745 2.04033944e-33)
(-0.944710573 0.612331957 -1.29455343e-25)
(-0.933554568 0.618664293 1.25289428e-25)
(-0.914218804 0.623244176 2.86808423e-25)
(-0.885933517 0.626086236 1.47223996e-25)
(-0.847814015 0.627240133 -8.45617896e-27)
(-0.798874012 0.626758997 8.82629827e-27)
(-0.738017233 0.624702742 -1.84348702e-26)
(-0.663996164 0.621153946 0)
(-0.575321802 0.616207525 2.3611647e-25)
(-0.470305183 0.60996995 -2.08913985e-26)
(-0.347360076 0.602373085 -2.3646715e-25)
(-0.204273848 0.59353548 0)
(-0.0391464661 0.584969369 -3.45092209e-25)
(0.144953589 0.577444701 -2.33548736e-25)
(0.362269518 0.568798912 0)
(0.613322802 0.558790061 0)
(0.900513905 0.549154112 -3.56047001e-25)
(1.22816946 0.540595007 -3.95635009e-25)
(1.60036196 0.53320972 1.17706557e-25)
(2.02167365 0.527373695 0)
(2.49708201 0.523599292 4.68478261e-25)
(3.03154024 0.522534404 1.14355105e-24)
(3.62977041 0.524893195 6.28141521e-25)
(4.29606262 0.531399622 6.53947452e-26)
(5.03392753 0.542773121 -2.26419203e-27)
(5.84582117 0.559735119 0)
(6.73289264 0.583040012 -1.35628966e-24)
(7.6945583 0.613444567 -9.7545173e-26)
(8.72804465 0.651618974 1.87608746e-24)
(9.82800144 0.698067901 -5.10142032e-26)
(10.9862592 0.753130852 -2.6958542e-24)
(12.1918398 0.816434342 -5.91354996e-24)
(13.4307004 0.887437385 4.20886953e-33)
(14.686217 0.96576246 3.25930951e-24)
(15.9386443 1.05089316 0)
(17.1673408 1.14151981 0)
(18.3497811 1.23680794 1.33940565e-25)
(19.4638691 1.33180092 1.54735476e-25)
(20.486917 1.4319321 0)
(21.3991979 1.52312062 9.18913211e-24)
(22.2056949 1.61167905 8.48679982e-24)
(22.8735383 1.649248 -8.68489584e-24)
(23.4569867 1.68753017 -2.34308573e-23)
(23.7963663 1.70380001 -9.4806238e-24)
(23.8541788 1.73040141 -5.74212021e-24)
(23.8540847 1.78005168 -9.18235451e-24)
(23.8379572 1.7739856 -7.51068314e-25)
(23.8512282 1.72528404 8.60436505e-24)
(23.8866842 1.68775989 8.19135972e-24)
(23.9136604 1.64670843 -9.40652969e-24)
(23.9403202 1.59964389 -8.04755168e-24)
(23.9540868 1.56846133 -1.29743504e-23)
(23.9608996 1.52584801 -7.06454483e-24)
(23.9622112 1.46256264 -1.43755597e-23)
(23.951767 1.47979263 9.78945142e-32)
(24.009071 1.35947881 2.64917954e-23)
(24.0189887 1.31511291 2.84688805e-23)
(-0.0317891197 0.0185985938 1.52836701e-27)
(-0.0933788366 0.0543306649 6.43290605e-28)
(-0.154378314 0.0893823264 3.41036375e-27)
(-0.215044743 0.123917242 -1.1239752e-33)
(-0.275360373 0.157965804 -1.55592832e-27)
(-0.335171798 0.191477889 -1.7448286e-27)
(-0.394229015 0.224352889 2.91328583e-27)
(-0.452204885 0.256456251 1.52022128e-27)
(-0.508716639 0.287634688 5.37870406e-27)
(-0.563347008 0.317730305 7.54662806e-27)
(-0.615666663 0.346583926 9.56610848e-27)
(-0.665221068 0.374041045 9.51965134e-27)
(-0.71153874 0.399968919 1.48628786e-26)
(-0.754174111 0.424276784 2.14442606e-26)
(-0.792703427 0.446843016 2.54152322e-27)
(-0.826654622 0.467612753 2.67038825e-27)
(-0.855533853 0.486561794 6.71893037e-26)
(-0.878879788 0.503601684 7.66820337e-26)
(-0.896149914 0.518696375 -6.16453565e-27)
(-0.906796812 0.531921256 -6.52094125e-27)
(-0.910246348 0.54324909 9.73767384e-26)
(-0.905836137 0.552706422 1.08705212e-25)
(-0.892853517 0.560315887 0)
(-0.870471041 0.566124301 7.88089011e-27)
(-0.837814422 0.570165629 0)
(-0.793889064 0.572512375 0)
(-0.737575602 0.573257524 9.01919088e-27)
(-0.667613297 0.572507486 -2.13027891e-25)
(-0.582551425 0.570381279 -1.98552305e-25)
(-0.480761573 0.567028871 1.94196078e-25)
(-0.360660816 0.562472525 2.24545994e-25)
(-0.220321495 0.556730982 2.19311256e-26)
(-0.0567125169 0.550802316 -2.25525879e-26)
(0.126885861 0.545826439 0)
(0.340464327 0.540499063 2.47326526e-26)
(0.589264519 0.533959126 0)
(0.873158836 0.527768618 0)
(1.1964077 0.522954068 2.79258234e-26)
(1.5628622 0.519728285 0)
(1.97677828 0.51853294 0)
(2.44276735 0.519923887 4.72566697e-25)
(2.96538512 0.524547481 5.85573777e-25)
(3.54900453 0.533111365 0)
(4.19764391 0.5463501 0)
(4.91473461 0.565041627 0)
(5.70285641 0.590020705 5.87207873e-26)
(6.56342213 0.622113706 5.21589016e-26)
(7.49630829 0.662101751 1.21402369e-24)
(8.49945921 0.710676782 1.49943542e-24)
(9.56848198 0.76837454 1.78815125e-24)
(10.6963423 0.835525979 2.13622078e-24)
(11.8729878 0.912209386 2.5187181e-24)
(13.08544 0.997928759 2.83890802e-24)
(14.3179576 1.0913248 0)
(15.5534594 1.19098222 0)
(16.7726771 1.2944735 -3.18710114e-24)
(17.9560497 1.39920248 -6.7666801e-24)
(19.0804907 1.50303228 -3.61849132e-24)
(20.1256091 1.60383203 -3.78152766e-24)
(21.0700301 1.70154381 -3.47734531e-24)
(21.8996596 1.78432795 7.77265081e-24)
(22.6030552 1.86155564 1.59899116e-23)
(23.1747371 1.92620948 3.01377658e-25)
(23.5957012 1.98026051 -1.18072565e-23)
(23.8478605 2.00063917 2.59481195e-25)
(23.8891019 2.00875469 -7.21240306e-25)
(23.8742524 2.02552418 5.64489186e-24)
(23.8548126 2.00499018 -1.03811761e-31)
(23.8569433 1.98027931 -7.62543941e-24)
(23.878063 1.95000364 -7.47892006e-25)
(23.9157932 1.94007353 9.00098651e-24)
(23.9354346 1.91164501 8.40323844e-24)
(23.9440535 1.87936838 0)
(23.9645772 1.81959291 9.53478165e-25)
(23.989386 1.7866605 0)
(23.9865678 1.75508031 7.7781469e-24)
(23.9913788 1.7001897 1.31592776e-23)
(23.9981978 1.67660645 1.05893467e-23)
(24.0307281 1.62623147 8.52461319e-24)
(24.0457354 1.56707091 2.14762022e-23)
(-0.034373721 0.0183386574 1.56735901e-27)
(-0.100634629 0.0533842823 4.76028117e-27)
(-0.165876262 0.0875584841 -7.68785184e-28)
(-0.230332647 0.121014183 -2.59360126e-27)
(-0.293942295 0.153779219 -1.08737233e-27)
(-0.356490692 0.185802222 -3.38400513e-28)
(-0.417651264 0.216981772 -1.9029581e-27)
(-0.477008943 0.247184068 -6.59407327e-27)
(-0.534086569 0.276258689 -9.10028332e-27)
(-0.588369105 0.304052255 -1.19351201e-26)
(-0.63932067 0.33041994 0)
(-0.686388433 0.355250727 -4.92431445e-27)
(-0.729016692 0.378409254 2.59420053e-27)
(-0.766636877 0.39979398 0)
(-0.798636647 0.419363482 0)
(-0.824433143 0.437051341 0)
(-0.843406576 0.452835871 0)
(-0.85490031 0.466712019 -3.32857665e-27)
(-0.858206712 0.478690721 0)
(-0.852570223 0.488795822 -6.20645776e-26)
(-0.837185371 0.497077705 -6.85956708e-26)
(-0.811106127 0.503604832 1.2759455e-25)
(-0.773343671 0.508446396 1.49687292e-25)
(-0.722769656 0.511705078 -1.55384248e-25)
(-0.65812421 0.513491339 -1.88520028e-25)
(-0.577972701 0.513933523 -1.94294038e-25)
(-0.480720488 0.513188993 -1.93464111e-25)
(-0.364760712 0.511305769 -2.36820309e-25)
(-0.228185488 0.508349529 -5.19710242e-25)
(-0.06826273 0.505179497 -2.94107098e-25)
(0.112824795 0.502792924 0)
(0.322636258 0.500450061 -2.44084837e-26)
(0.566732608 0.497520341 -2.5768165e-26)
(0.845223419 0.495125727 0)
(1.1621274 0.494325492 2.7151959e-26)
(1.52108217 0.495413067 0)
(1.92589567 0.498813563 0)
(2.38079071 0.505136904 4.86781512e-25)
(2.88997453 0.515060989 -3.07610859e-26)
(3.45752271 0.529329862 -5.63495364e-25)
(4.08723849 0.548738172 6.67031916e-25)
(4.78243774 0.574111701 7.21012374e-25)
(5.54570988 0.606303553 2.99112598e-26)
(6.37863964 0.646136434 0)
(7.28148623 0.694374239 1.0680077e-24)
(8.25284972 0.751680272 1.36070822e-24)
(9.28933641 0.818566886 0)
(10.3852287 0.895332932 0)
(11.5321891 0.982030858 -2.18601878e-24)
(12.7188736 1.07841436 -2.54777256e-24)
(13.9310037 1.18396627 2.90398418e-24)
(15.1508265 1.29740367 3.08388288e-24)
(16.3597352 1.41714465 -3.11451391e-24)
(17.5379527 1.54023698 1.86140155e-32)
(18.6660202 1.66367091 3.46222131e-24)
(19.7228709 1.78335043 1.77862833e-26)
(20.6921533 1.89580045 0)
(21.5523204 1.9956253 2.37243976e-25)
(22.2986354 2.08196672 -3.70097749e-24)
(22.9048818 2.15589636 3.44376507e-25)
(23.4033867 2.2024684 5.30177446e-24)
(23.7302717 2.24656903 0)
(23.8739808 2.25993477 3.78196811e-25)
(23.9093368 2.26228636 0)
(23.9103722 2.27634704 2.4722531e-25)
(23.8847409 2.27077016 -3.30517e-25)
(23.8855593 2.23977068 -8.79146217e-25)
(23.8963384 2.22831856 -7.84473085e-24)
(23.9385604 2.18389511 -1.14553061e-23)
(23.9581763 2.17451937 -6.53556933e-25)
(23.9681866 2.11623744 -1.07711816e-23)
(23.9824956 2.08071034 -1.13201187e-23)
(23.9929567 2.07986952 -1.02262615e-23)
(23.9955538 2.06284633 -1.21346719e-23)
(24.0154026 1.99422979 -1.02457551e-23)
(24.0344426 1.94189003 -1.43297331e-23)
(24.0256445 1.94524667 9.32701198e-24)
(24.0249299 1.89766813 1.30045845e-23)
(24.0462781 1.82722469 -1.46475103e-24)
(24.0436972 1.75750607 2.36050862e-24)
(-0.0369500035 0.0178894756 1.29135027e-27)
(-0.107706362 0.0518874541 -4.61081013e-27)
(-0.176823648 0.0848350131 -8.77746379e-28)
(-0.244481131 0.116867597 -9.02671095e-34)
(-0.310546026 0.148004818 7.32503802e-28)
(-0.374717582 0.178192205 -1.02611945e-27)
(-0.436570701 0.207329206 5.16583031e-27)
(-0.495580458 0.235294701 1.72399437e-33)
(-0.551156099 0.261939063 -2.00984863e-26)
(-0.602649917 0.287128066 -1.46503359e-26)
(-0.64938457 0.310732805 2.65614782e-27)
(-0.690666774 0.332626194 -2.43667671e-26)
(-0.72577349 0.352743857 -2.2690522e-26)
(-0.753984383 0.371010205 -3.02900994e-26)
(-0.774551753 0.387390384 -3.53555619e-26)
(-0.786701149 0.401875631 4.08533989e-26)
(-0.789613656 0.414485562 4.66058159e-26)
(-0.782428515 0.425244892 -3.7133316e-27)
(-0.764190931 0.434235015 0)
(-0.733884581 0.44152311 -6.19870097e-26)
(-0.690379253 0.447218578 -7.33565401e-26)
(-0.632425056 0.451446812 -9.03238802e-27)
(-0.558619905 0.454355864 8.85016907e-26)
(-0.467432145 0.456110818 1.0380859e-25)
(-0.357280574 0.456791051 -2.04297853e-26)
(-0.226278241 0.45655422 0)
(-0.0719815045 0.456175177 1.11332982e-26)
(0.10408916 0.456393623 1.56859105e-28)
(0.308818512 0.456750469 -2.65316008e-25)
(0.54659344 0.456930436 -3.00753968e-25)
(0.81799439 0.457927154 3.44818511e-25)
(1.12674794 0.460683221 3.22714416e-25)
(1.47626253 0.465572209 -5.61028497e-26)
(1.87006946 0.473065742 -3.86624228e-25)
(2.3120451 0.483805175 -2.13030765e-32)
(2.80609143 0.498483937 4.97928875e-25)
(3.35599571 0.517861282 -5.83564187e-25)
(3.96532637 0.542745809 -6.16982357e-25)
(4.63724947 0.573967407 -6.3330602e-26)
(5.37432452 0.612373813 3.16694654e-26)
(6.17825801 0.658778669 2.96721779e-26)
(7.04961982 0.713934407 -1.03733497e-24)
(7.9875388 0.778487939 -2.39075496e-24)
(8.98939312 0.852926274 -1.41504044e-24)
(10.0505123 0.937514529 -1.6986065e-24)
(11.1639098 1.03223279 -1.953789e-24)
(12.3200632 1.13671895 0)
(13.5067574 1.25022096 2.67220108e-24)
(14.70905 1.37167394 3.11689928e-24)
(15.9088323 1.49957246 3.34839817e-24)
(17.0863804 1.63212637 6.98595922e-24)
(18.2211905 1.76690594 7.25297494e-24)
(19.2928059 1.90110039 7.575926e-24)
(20.2816725 2.03090549 7.90158301e-24)
(21.1709909 2.1519607 4.13019584e-24)
(21.9451604 2.26117568 -3.7632299e-25)
(22.5962842 2.35354718 0)
(23.1152193 2.42429722 -4.53252727e-24)
(23.518724 2.46584595 -5.35800441e-24)
(23.7831901 2.50332387 0)
(23.8769439 2.51026017 -5.35927614e-24)
(23.8991663 2.50077078 -4.60958294e-24)
(23.8973746 2.49841486 0)
(23.8888879 2.48321725 -3.00603422e-25)
(23.8938173 2.44280057 0)
(23.9002681 2.41377979 -1.11622787e-23)
(23.9004439 2.38685415 -1.37026404e-24)
(23.901358 2.3819495 7.83313909e-24)
(23.9427584 2.29169824 -8.66351287e-25)
(23.9628079 2.2407965 -1.05145776e-24)
(23.9596723 2.23443327 -8.63457706e-24)
(23.9613619 2.21299476 -8.46128612e-24)
(23.9850898 2.1538294 -7.41607481e-25)
(23.9984664 2.11670701 -6.54595123e-25)
(23.9990291 2.0966443 -6.0639808e-26)
(24.0164886 2.06269428 -9.48445699e-25)
(24.0209133 2.0481523 8.32673121e-24)
(24.0210884 1.9969478 2.86867486e-23)
(24.0189737 2.02118461 8.30138861e-24)
(24.0248356 1.95617122 -1.14844135e-24)
(-0.0391512383 0.0170994983 0)
(-0.11346747 0.0494086391 -9.54426834e-28)
(-0.185293395 0.0805262274 1.00521711e-27)
(-0.254719148 0.110571817 -3.12717401e-27)
(-0.321509212 0.1395538 1.11578069e-27)
(-0.385241486 0.167417881 1.17479928e-27)
(-0.445353679 0.194068655 -9.72334816e-27)
(-0.501175899 0.219381134 0)
(-0.551949491 0.243238124 2.72930256e-27)
(-0.596873566 0.265516522 -1.99451878e-26)
(-0.635108493 0.286115653 -2.11747088e-26)
(-0.66578754 0.304957592 2.87998435e-26)
(-0.688020499 0.321991795 3.34021827e-27)
(-0.700890773 0.337198164 -7.51852548e-26)
(-0.70344046 0.350593036 -9.0247582e-26)
(-0.694680577 0.362197527 -4.72665051e-26)
(-0.673519859 0.372107965 -4.04246181e-27)
(-0.638824945 0.380401006 -6.49694113e-26)
(-0.589346006 0.387208637 -6.80524025e-26)
(-0.523709801 0.392682337 4.59390243e-27)
(-0.440423638 0.396992458 -4.84652827e-27)
(-0.337924011 0.400256287 -2.01534211e-26)
(-0.214363749 0.402724145 -1.13337948e-25)
(-0.0678935733 0.405155749 -2.46781721e-25)
(0.100857287 0.407945447 -1.19632868e-25)
(0.299081064 0.41085061 -1.19964226e-26)
(0.528282683 0.413975243 -1.22586535e-25)
(0.790562115 0.418224848 1.29226424e-26)
(1.08919495 0.424315362 -1.33858534e-26)
(1.42732374 0.432678178 -1.71956895e-25)
(1.80823857 0.443848563 0)
(2.2354994 0.458499563 -4.54454795e-25)
(2.71270654 0.477344742 -3.06480698e-26)
(3.24338157 0.501153472 5.61260407e-25)
(3.83087336 0.530741351 6.21197486e-25)
(4.4782003 0.566941153 6.8746826e-25)
(5.18788051 0.61059998 -3.24543067e-26)