/*--------------------------------*- C++ -*----------------------------------*\
  =========                 |
  \\      /  F ield         | OpenFOAM: The Open Source CFD Toolbox
   \\    /   O peration     | Website:  https://openfoam.org
    \\  /    A nd           | Version:  8
     \\/     M anipulation  |
\*---------------------------------------------------------------------------*/
FoamFile
{
    version     2.0;
    format      ascii;
    class       volScalarField;
    location    "0.007";
    object      p;
}
// * * * * * * * * * * * * * * * * * * * * * * * * * * * * * * * * * * * * * //

dimensions      [1 -1 -2 0 0 0 0];

internalField   nonuniform List<scalar> 
42400
(
101235.932
101235.917
101235.899
101235.88
101235.86
101235.839
101235.816
101235.791
101235.766
101235.739
101235.71
101235.68
101235.649
101235.616
101235.582
101235.546
101235.508
101235.469
101235.429
101235.386
101235.341
101235.295
101235.246
101235.195
101235.142
101235.086
101235.027
101234.966
101234.901
101234.834
101234.763
101234.689
101234.61
101234.533
101234.46
101234.385
101234.301
101234.196
101234.079
101233.966
101233.863
101233.758
101233.65
101233.539
101233.426
101233.31
101233.191
101233.064
101232.949
101232.845
101232.75
101232.625
101232.473
101232.345
101232.232
101232.112
101231.988
101231.866
101231.746
101231.62
101231.494
101231.377
101231.284
101231.214
101231.154
101231.103
101231.084
101231.145
101231.399
101231.612
101231.718
101232.43
101233.698
101233.966
101234.781
101238.654
101242.55
101244.868
101245.315
101246.68
101235.791
101235.777
101235.762
101235.745
101235.727
101235.708
101235.688
101235.667
101235.644
101235.62
101235.595
101235.57
101235.542
101235.514
101235.485
101235.455
101235.423
101235.39
101235.356
101235.321
101235.284
101235.246
101235.206
101235.164
101235.121
101235.076
101235.029
101234.98
101234.928
101234.874
101234.819
101234.766
101234.713
101234.653
101234.58
101234.496
101234.409
101234.328
101234.253
101234.175
101234.093
101234.009
101233.923
101233.832
101233.734
101233.649
101233.584
101233.498
101233.377
101233.266
101233.175
101233.097
101233.011
101232.927
101232.85
101232.776
101232.703
101232.64
101232.6
101232.589
101232.611
101232.658
101232.726
101232.844
101233.023
101233.276
101233.594
101234.053
101234.787
101235.616
101236.447
101237.17
101239.044
101243.508
101247.016
101247.807
101249.423
101252.24
101254.619
101257.997
101235.809
101235.797
101235.783
101235.769
101235.753
101235.737
101235.719
101235.701
101235.682
101235.662
101235.641
101235.62
101235.597
101235.574
101235.551
101235.526
101235.501
101235.476
101235.449
101235.421
101235.393
101235.364
101235.334
101235.303
101235.27
101235.236
101235.201
101235.165
101235.13
101235.095
101235.055
101235.008
101234.955
101234.899
101234.846
101234.797
101234.745
101234.689
101234.632
101234.572
101234.509
101234.437
101234.377
101234.336
101234.27
101234.177
101234.101
101234.042
101233.982
101233.92
101233.861
101233.806
101233.754
101233.71
101233.678
101233.673
101233.7
101233.753
101233.838
101233.959
101234.134
101234.38
101234.694
101235.104
101235.6
101236.217
101236.884
101237.734
101238.721
101239.832
101242.129
101245.969
101248.691
101249.697
101251.159
101253.652
101256.55
101259.221
101261.674
101264.148
101235.973
101235.963
101235.951
101235.938
101235.925
101235.911
101235.896
101235.881
101235.865
101235.849
101235.833
101235.816
101235.799
101235.782
101235.764
101235.747
101235.729
101235.71
101235.692
101235.673
101235.654
101235.635
101235.615
101235.594
101235.573
101235.552
101235.531
101235.509
101235.482
101235.453
101235.423
101235.394
101235.366
101235.337
101235.304
101235.27
101235.235
101235.196
101235.15
101235.114
101235.097
101235.055
101234.988
101234.939
101234.903
101234.864
101234.824
101234.785
101234.748
101234.716
101234.692
101234.687
101234.706
101234.748
101234.812
101234.903
101235.038
101235.227
101235.48
101235.81
101236.23
101236.753
101237.372
101238.127
101238.99
101239.998
101240.923
101242.153
101245.027
101248.231
101250.086
101250.951
101252.263
101254.809
101257.095
101258.58
101260.51
101262.783
101265.764
101268.736
101236.252
101236.243
101236.233
101236.222
101236.211
101236.2
101236.189
101236.177
101236.166
101236.154
101236.143
101236.131
101236.12
101236.109
101236.099
101236.088
101236.078
101236.069
101236.059
101236.049
101236.039
101236.029
101236.02
101236.012
101236.003
101235.992
101235.98
101235.969
101235.959
101235.948
101235.936
101235.923
101235.909
101235.894
101235.876
101235.851
101235.837
101235.84
101235.82
101235.777
101235.752
101235.739
101235.721
101235.701
101235.682
101235.665
101235.653
101235.653
101235.67
101235.703
101235.753
101235.823
101235.922
101236.06
101236.248
101236.491
101236.8
101237.188
101237.67
101238.241
101238.935
101239.741
101240.678
101241.688
101242.761
101244.501
101247.677
101250.471
101251.405
101252.048
101253.637
101255.268
101257.18
101259.164
101261.105
101263.856
101266.608
101269.028
101271.791
101274.095
101236.614
101236.606
101236.598
101236.589
101236.581
101236.573
101236.565
101236.557
101236.55
101236.543
101236.537
101236.532
101236.527
101236.523
101236.52
101236.518
101236.516
101236.513
101236.512
101236.512
101236.514
101236.516
101236.519
101236.521
101236.523
101236.527
101236.53
101236.533
101236.535
101236.537
101236.539
101236.538
101236.533
101236.536
101236.556
101236.555
101236.534
101236.53
101236.536
101236.536
101236.535
101236.535
101236.538
101236.549
101236.571
101236.603
101236.646
101236.704
101236.782
101236.89
101237.032
101237.216
101237.451
101237.742
101238.103
101238.54
101239.069
101239.682
101240.412
101241.217
101242.177
101243.153
101244.326
101246.541
101249.376
101251.304
101251.955
101252.618
101254.324
101256.299
101257.975
101259.995
101261.94
101264.009
101266.773
101269.083
101271.337
101274.526
101277.208
101279.863
101237.014
101237.008
101237.002
101236.996
101236.991
101236.986
101236.982
101236.978
101236.975
101236.973
101236.972
101236.973
101236.974
101236.976
101236.981
101236.988
101236.997
101237.008
101237.019
101237.032
101237.045
101237.059
101237.073
101237.088
101237.103
101237.118
101237.134
101237.15
101237.165
101237.176
101237.194
101237.227
101237.244
101237.243
101237.257
101237.28
101237.299
101237.315
101237.335
101237.359
101237.387
101237.422
101237.465
101237.517
101237.585
101237.672
101237.785
101237.929
101238.109
101238.333
101238.609
101238.945
101239.355
101239.849
101240.438
101241.113
101241.896
101242.759
101243.744
101244.708
101246.023
101248.487
101250.804
101252.177
101252.952
101253.88
101255.489
101257.6
101259.529
101261.315
101263.602
101265.865
101267.969
101270.472
101272.911
101274.601
101276.696
101279.529
101281.667
101284.005
101237.39
101237.386
101237.382
101237.378
101237.376
101237.375
101237.375
101237.378
101237.382
101237.388
101237.396
101237.406
101237.418
101237.433
101237.448
101237.465
101237.484
101237.505
101237.528
101237.551
101237.577
101237.603
101237.631
101237.661
101237.691
101237.721
101237.748
101237.777
101237.823
101237.861
101237.879
101237.905
101237.944
101237.981
101238.016
101238.053
101238.093
101238.136
101238.183
101238.238
101238.302
101238.378
101238.472
101238.586
101238.725
101238.896
101239.104
101239.358
101239.664
101240.032
101240.475
101241.006
101241.635
101242.365
101243.211
101244.145
101245.202
101246.362
101247.805
101250.075
101251.838
101252.609
101253.413
101254.773
101256.591
101258.715
101260.794
101262.752
101264.858
101267.106
101268.845
101270.244
101272.02
101274.57
101276.532
101278.244
101280.662
101282.821
101285.028
101287.635
101237.684
101237.682
101237.68
101237.68
101237.681
101237.685
101237.691
101237.699
101237.709
101237.722
101237.737
101237.755
101237.775
101237.798
101237.824
101237.853
101237.884
101237.917
101237.953
101237.991
101238.031
101238.074
101238.117
101238.162
101238.206
101238.266
101238.328
101238.367
101238.404
101238.459
101238.515
101238.568
101238.622
101238.679
101238.738
101238.802
101238.871
101238.948
101239.036
101239.136
101239.253
101239.391
101239.555
101239.75
101239.982
101240.259
101240.588
101240.978
101241.439
101241.983
101242.622
101243.361
101244.207
101245.172
101246.28
101247.473
101248.806
101250.499
101251.989
101252.992
101254.219
101256.112
101258.41
101260.281
101261.932
101263.489
101265
101266.485
101268.038
101269.828
101271.592
101273.421
101275.48
101277.218
101279.097
101281.567
101284.049
101286.579
101289.151
101291.568
101237.806
101237.806
101237.808
101237.811
101237.818
101237.826
101237.838
101237.852
101237.87
101237.891
101237.915
101237.943
101237.974
101238.009
101238.048
101238.089
101238.134
101238.182
101238.233
101238.287
101238.343
101238.398
101238.46
101238.536
101238.602
101238.657
101238.729
101238.804
101238.876
101238.948
101239.024
101239.103
101239.185
101239.272
101239.366
101239.468
101239.581
101239.708
101239.852
101240.017
101240.207
101240.429
101240.687
101240.988
101241.34
101241.748
101242.221
101242.768
101243.398
101244.111
101244.915
101245.805
101246.761
101247.724
101249.007
101250.754
101252.152
101253.361
101255.261
101257.083
101258.512
101259.751
101260.903
101262.167
101263.653
101265.279
101266.965
101268.701
101270.496
101272.272
101274.714
101277.158
101279.142
101281.298
101283.643
101286.035
101288.71
101291.498
101294.312
101296.717
101237.655
101237.659
101237.665
101237.674
101237.686
101237.702
101237.721
101237.744
101237.771
101237.802
101237.838
101237.878
101237.921
101237.969
101238.021
101238.078
101238.138
101238.2
101238.265
101238.338
101238.422
101238.5
101238.571
101238.655
101238.745
101238.834
101238.926
101239.02
101239.118
101239.22
101239.327
101239.439
101239.56
101239.69
101239.832
101239.989
101240.164
101240.362
101240.586
101240.842
101241.135
101241.471
101241.856
101242.295
101242.792
101243.354
101243.988
101244.695
101245.476
101246.315
101247.211
101248.203
101249.615
101251.498
101252.98
101254.119
101255.65
101257.107
101258.064
101259.345
101261.076
101262.735
101264.45
101266.191
101267.818
101269.557
101271.582
101273.72
101275.982
101278.292
101279.701
101281.41
101284.415
101287.272
101290.1
101292.527
101294.561
101296.357
101298.019
101300.466
101237.135
101237.145
101237.158
101237.174
101237.194
101237.219
101237.247
101237.281
101237.319
101237.362
101237.41
101237.463
101237.521
101237.583
101237.649
101237.722
101237.804
101237.892
101237.973
101238.056
101238.15
101238.25
101238.352
101238.457
101238.566
101238.679
101238.797
101238.919
101239.049
101239.185
101239.331
101239.488
101239.659
101239.846
101240.054
101240.287
101240.548
101240.844
101241.181
101241.563
101241.999
101242.493
101243.052
101243.681
101244.387
101245.181
101246.066
101247.049
101248.11
101249.239
101250.647
101252.571
101254.203
101255.148
101256.326
101257.792
101259.228
101260.741
101262.256
101263.843
101265.514
101267.217
101268.785
101270.369
101272.116
101274.101
101276.022
101277.7
101279.385
101281.295
101283.771
101286.295
101288.248
101290.106
101292.064
101293.914
101295.978
101298.488
101300.557
101302.472
101236.15
101236.167
101236.189
101236.215
101236.246
101236.281
101236.322
101236.367
101236.419
101236.476
101236.537
101236.604
101236.678
101236.76
101236.844
101236.93
101237.024
101237.125
101237.231
101237.339
101237.452
101237.57
101237.692
101237.82
101237.954
101238.093
101238.24
101238.396
101238.562
101238.74
101238.934
101239.145
101239.379
101239.638
101239.927
101240.253
101240.62
101241.035
101241.503
101242.032
101242.626
101243.291
101244.031
101244.849
101245.754
101246.748
101247.825
101249.004
101250.241
101251.559
101252.798
101254.069
101255.583
101257.372
101258.998
101260.382
101261.874
101263.334
101264.864
101266.444
101268.061
101269.63
101271.366
101273.189
101274.925
101276.72
101278.387
101279.955
101281.606
101283.628
101285.692
101287.449
101289.857
101292.996
101295.223
101296.938
101298.789
101301.11
101303.774
101305.533
101234.62
101234.647
101234.681
101234.719
101234.761
101234.81
101234.864
101234.924
101234.989
101235.06
101235.14
101235.223
101235.31
101235.405
101235.507
101235.613
101235.725
101235.841
101235.964
101236.091
101236.224
101236.363
101236.508
101236.66
101236.821
101236.991
101237.172
101237.366
101237.576
101237.806
101238.058
101238.336
101238.647
101238.995
101239.385
101239.823
101240.317
101240.87
101241.491
101242.182
101242.95
101243.797
101244.726
101245.737
101246.834
101248.011
101249.267
101250.598
101252.011
101253.512
101255.185
101256.64
101257.818
101259.041
101260.427
101261.982
101263.513
101265.061
101266.623
101268.215
101269.844
101271.455
101273.022
101274.833
101276.766
101278.647
101280.52
101282.263
101284.332
101287.214
101290.201
101292.934
101294.341
101295.325
101297.821
101300.253
101301.784
101304.161
101307.133
101309.694
101232.484
101232.523
101232.571
101232.623
101232.68
101232.743
101232.812
101232.888
101232.969
101233.056
101233.15
101233.251
101233.357
101233.469
101233.586
101233.71
101233.84
101233.976
101234.118
101234.266
101234.422
101234.586
101234.759
101234.942
101235.138
101235.348
101235.575
101235.823
101236.095
101236.395
101236.728
101237.099
101237.513
101237.977
101238.495
101239.074
101239.718
101240.432
101241.219
101242.082
101243.024
101244.043
101245.136
101246.297
101247.521
101248.797
101250.187
101251.609
101252.999
101254.438
101255.906
101257.4
101258.929
101260.483
101262.109
101263.802
101265.544
101267.306
101269.071
101270.856
101272.655
101274.36
101276.327
101278.723
101281.07
101283.37
101285.861
101288.521
101290.602
101292.094
101293.615
101294.831
101296.882
101299.971
101301.542
101303.021
101305.913
101307.855
101309.711
101310.718
101229.705
101229.759
101229.823
101229.891
101229.964
101230.043
101230.129
101230.221
101230.319
101230.424
101230.535
101230.653
101230.776
101230.907
101231.044
101231.187
101231.338
101231.496
101231.662
101231.838
101232.024
101232.222
101232.434
101232.662
101232.909
101233.178
101233.474
101233.8
101234.162
101234.563
101235.01
101235.508
101236.063
101236.678
101237.36
101238.112
101238.937
101239.838
101240.816
101241.871
101243.009
101244.235
101245.554
101246.938
101248.369
101249.863
101251.446
101253.033
101254.616
101256.216
101257.838
101259.489
101261.183
101262.901
101264.64
101266.488
101268.383
101270.297
101272.259
101274.428
101276.755
101279.231
101281.505
101283.325
101285.003
101286.735
101288.626
101290.278
101292.055
101294.161
101295.93
101298.184
101300.262
101301.645
101303.406
101306.034
101308.574
101311.033
101312.309
101313.607
101226.287
101226.356
101226.438
101226.523
101226.613
101226.709
101226.812
101226.921
101227.036
101227.158
101227.287
101227.422
101227.564
101227.714
101227.871
101228.036
101228.211
101228.396
101228.593
101228.803
101229.029
101229.273
101229.539
101229.829
101230.147
101230.499
101230.889
101231.322
101231.804
101232.339
101232.934
101233.592
101234.318
101235.115
101235.984
101236.925
101237.938
101239.017
101240.147
101241.318
101242.522
101243.73
101245.366
101247.513
101249.201
101250.849
101252.665
101254.308
101255.92
101257.606
101259.342
101261.126
101262.96
101264.74
101266.446
101268.293
101270.17
101271.959
101274.186
101276.842
101279.502
101281.549
101283.44
101285.439
101286.974
101288.665
101290.561
101292.745
101294.91
101296.833
101298.615
101300.448
101303.107
101305.588
101307.526
101309.437
101311.165
101313.409
101315.81
101318.267
101222.267
101222.352
101222.452
101222.555
101222.662
101222.774
101222.893
101223.019
101223.151
101223.289
101223.435
101223.588
101223.75
101223.92
101224.101
101224.293
101224.497
101224.717
101224.954
101225.211
101225.492
101225.799
101226.138
101226.514
101226.93
101227.393
101227.907
101228.478
101229.112
101229.812
101230.583
101231.428
101232.349
101233.348
101234.424
101235.579
101236.814
101238.125
101239.504
101240.957
101242.783
101244.905
101246.686
101248.046
101249.859
101251.656
101253.112
101254.903
101256.866
101258.836
101260.859
101262.925
101264.977
101266.958
101269.19
101271.698
101274.314
101277.237
101279.081
101280.139
101281.568
101283.754
101285.626
101287.079
101289.535
101292.035
101293.924
101295.683
101297.732
101299.78
101301.655
101303.789
101306.097
101308.39
101310.683
101312.867
101315.171
101317.201
101319.315
101320.957
101217.75
101217.851
101217.97
101218.089
101218.213
101218.342
101218.478
101218.621
101218.771
101218.928
101219.094
101219.271
101219.458
101219.658
101219.872
101220.104
101220.356
101220.632
101220.934
101221.269
101221.64
101222.053
101222.514
101223.029
101223.604
101224.246
101224.961
101225.755
101226.632
101227.598
101228.654
101229.803
101231.045
101232.377
101233.795
101235.293
101236.86
101238.485
101240.214
101241.941
101243.229
101244.557
101245.954
101247.68
101249.732
101251.794
101254.263
101256.249
101257.891
101260.004
101262.485
101265.086
101267.884
101270.699
101273.344
101275.391
101276.95
101278.364
101280.249
101282.943
101285.235
101286.875
101288.451
101290.141
101291.736
101293.432
101295.648
101298.241
101300.582
101302.945
101305.406
101307.91
101310.188
101312.608
101314.526
101316.041
101318.016
101320.291
101322.076
101323.705
101212.875
101212.992
101213.126
101213.259
101213.396
101213.538
101213.687
101213.842
101214.006
101214.178
101214.361
101214.557
101214.766
101214.993
101215.24
101215.51
101215.808
101216.138
101216.505
101216.914
101217.371
101217.882
101218.453
101219.09
101219.798
101220.584
101221.45
101222.401
101223.439
101224.565
101225.779
101227.081
101228.468
101229.939
101231.49
101233.119
101234.819
101236.614
101238.479
101240.424
101242.462
101244.351
101246.503
101249.014
101250.881
101252.25
101254.099
101257.068
101260.381
101263.148
101265.592
101267.75
101269.828
101272.181
101273.856
101275.735
101278.476
101281.154
101283.262
101284.84
101286.727
101288.783
101290.724
101292.588
101294.903
101297.358
101299.404
101301.414
101303.705
101305.843
101308.065
101310.558
101312.617
101314.64
101316.751
101319.472
101322.005
101323.502
101325.335
101327.192
101275.59
101275.596
101275.603
101275.611
101275.62
101275.631
101275.642
101275.655
101275.668
101275.683
101275.699
101275.717
101275.735
101275.755
101275.776
101275.798
101275.822
101275.847
101275.873
101275.901
101275.93
101275.961
101275.993
101276.027
101276.063
101276.1
101276.138
101276.179
101276.221
101276.265
101276.311
101276.359
101276.409
101276.462
101276.517
101276.574
101276.634
101276.697
101276.764
101276.832
101276.903
101276.977
101277.054
101277.135
101277.219
101277.305
101277.395
101277.488
101277.583
101277.68
101277.779
101277.88
101277.983
101278.087
101278.192
101278.296
101278.399
101278.498
101278.593
101278.681
101278.758
101278.82
101278.861
101278.871
101278.838
101278.757
101278.602
101278.343
101277.955
101277.411
101276.713
101275.861
101274.959
101274.052
101272.957
101271.497
101269.737
101267.675
101264.109
101261.982
101273.433
101273.438
101273.445
101273.453
101273.462
101273.472
101273.483
101273.496
101273.51
101273.525
101273.541
101273.559
101273.578
101273.598
101273.62
101273.644
101273.669
101273.695
101273.723
101273.752
101273.784
101273.817
101273.851
101273.888
101273.926
101273.967
101274.009
101274.054
101274.1
101274.15
101274.201
101274.256
101274.313
101274.373
101274.435
101274.503
101274.574
101274.648
101274.724
101274.804
101274.889
101274.979
101275.074
101275.172
101275.275
101275.383
101275.495
101275.612
101275.733
101275.858
101275.987
101276.12
101276.257
101276.398
101276.542
101276.688
101276.835
101276.98
101277.121
101277.253
101277.372
101277.471
101277.542
101277.575
101277.559
101277.484
101277.338
101277.107
101276.782
101276.348
101275.786
101275.088
101274.301
101273.219
101271.411
101269.487
101267.017
101265.081
101264.36
101262.845
101271.109
101271.114
101271.121
101271.129
101271.137
101271.148
101271.159
101271.171
101271.185
101271.2
101271.217
101271.235
101271.255
101271.275
101271.298
101271.322
101271.348
101271.375
101271.404
101271.434
101271.467
101271.501
101271.538
101271.576
101271.617
101271.659
101271.705
101271.752
101271.802
101271.855
101271.911
101271.97
101272.032
101272.098
101272.169
101272.242
101272.318
101272.399
101272.486
101272.577
101272.674
101272.777
101272.884
101272.997
101273.116
101273.241
101273.372
101273.509
101273.651
101273.799
101273.952
101274.111
101274.275
101274.445
101274.621
101274.8
101274.981
101275.163
101275.342
101275.512
101275.669
101275.805
101275.911
101275.977
101275.993
101275.945
101275.818
101275.59
101275.237
101274.73
101274.054
101273.155
101271.795
101270.684
101269.894
101268.517
101267.22
101266.317
101265.215
101262.966
101268.624
101268.629
101268.636
101268.643
101268.652
101268.661
101268.673
101268.685
101268.699
101268.713
101268.73
101268.748
101268.767
101268.788
101268.81
101268.834
101268.859
101268.886
101268.915
101268.945
101268.978
101269.012
101269.048
101269.087
101269.127
101269.17
101269.216
101269.264
101269.315
101269.368
101269.425
101269.486
101269.551
101269.618
101269.687
101269.762
101269.843
101269.928
101270.019
101270.116
101270.218
101270.326
101270.44
101270.561
101270.688
101270.821
101270.962
101271.109
101271.263
101271.424
101271.591
101271.764
101271.943
101272.127
101272.317
101272.512
101272.709
101272.907
101273.101
101273.284
101273.451
101273.591
101273.695
101273.748
101273.738
101273.645
101273.448
101273.126
101272.66
101272.021
101271.143
101270.081
101269.151
101268.224
101267.131
101265.656
101264.392
101263.571
101262.19
101259.917
101265.979
101265.984
101265.99
101265.997
101266.005
101266.015
101266.025
101266.037
101266.05
101266.064
101266.08
101266.096
101266.114
101266.134
101266.155
101266.177
101266.201
101266.226
101266.253
101266.282
101266.312
101266.344
101266.378
101266.414
101266.452
101266.492
101266.534
101266.579
101266.627
101266.678
101266.733
101266.789
101266.847
101266.91
101266.978
101267.05
101267.127
101267.209
101267.297
101267.39
101267.488
101267.593
101267.704
101267.821
101267.945
101268.075
101268.213
101268.357
101268.507
101268.665
101268.829
101268.998
101269.174
101269.353
101269.535
101269.72
101269.905
101270.088
101270.265
101270.43
101270.572
101270.684
101270.75
101270.755
101270.679
101270.496
101270.176
101269.678
101268.957
101268.033
101267.015
101265.979
101264.859
101263.458
101262.115
101261.047
101259.672
101258.021
101256.699
101254.489
101263.195
101263.2
101263.206
101263.212
101263.22
101263.229
101263.238
101263.248
101263.26
101263.272
101263.285
101263.3
101263.315
101263.332
101263.35
101263.369
101263.389
101263.41
101263.432
101263.456
101263.482
101263.508
101263.536
101263.566
101263.597
101263.63
101263.665
101263.703
101263.742
101263.781
101263.824
101263.87
101263.92
101263.974
101264.031
101264.091
101264.156
101264.225
101264.3
101264.379
101264.463
101264.553
101264.649
101264.752
101264.859
101264.971
101265.088
101265.211
101265.339
101265.472
101265.61
101265.752
101265.898
101266.046
101266.194
101266.34
101266.479
101266.609
101266.722
101266.812
101266.868
101266.876
101266.82
101266.673
101266.403
101265.968
101265.336
101264.524
101263.605
101262.636
101261.582
101260.338
101259.054
101257.879
101256.354
101254.485
101252.482
101250.474
101248.765
101246.623
101260.307
101260.312
101260.318
101260.324
101260.33
101260.337
101260.345
101260.353
101260.362
101260.371
101260.381
101260.392
101260.404
101260.416
101260.429
101260.442
101260.456
101260.471
101260.487
101260.503
101260.52
101260.538
101260.556
101260.576
101260.598
101260.619
101260.641
101260.664
101260.689
101260.716
101260.744
101260.775
101260.808
101260.843
101260.881
101260.921
101260.965
101261.011
101261.061
101261.114
101261.172
101261.233
101261.298
101261.366
101261.441
101261.522
101261.606
101261.695
101261.789
101261.886
101261.984
101262.082
101262.18
101262.277
101262.369
101262.454
101262.528
101262.585
101262.615
101262.61
101262.552
101262.42
101262.188
101261.819
101261.277
101260.551
101259.653
101258.605
101257.416
101256.086
101254.657
101253.141
101251.329
101249.361
101247.384
101245.307
101243.213
101241.07
101238.47
101235.296
101257.364
101257.368
101257.373
101257.377
101257.382
101257.387
101257.391
101257.396
101257.401
101257.406
101257.412
101257.417
101257.423
101257.428
101257.434
101257.44
101257.445
101257.451
101257.457
101257.463
101257.469
101257.475
101257.48
101257.485
101257.489
101257.494
101257.5
101257.506
101257.513
101257.52
101257.527
101257.536
101257.544
101257.554
101257.565
101257.577
101257.59
101257.605
101257.621
101257.64
101257.66
101257.684
101257.708
101257.728
101257.752
101257.779
101257.802
101257.822
101257.843
101257.863
101257.882
101257.896
101257.903
101257.901
101257.887
101257.858
101257.809
101257.732
101257.618
101257.455
101257.226
101256.911
101256.484
101255.92
101255.194
101254.287
101253.187
101251.879
101250.355
101248.63
101246.616
101244.406
101242.052
101239.463
101236.742
101233.857
101230.761
101227.548
101224.034
101220.273
101254.434
101254.437
101254.44
101254.442
101254.444
101254.445
101254.446
101254.447
101254.447
101254.447
101254.446
101254.445
101254.443
101254.441
101254.438
101254.435
101254.431
101254.426
101254.419
101254.412
101254.403
101254.394
101254.385
101254.374
101254.362
101254.349
101254.335
101254.32
101254.304
101254.287
101254.268
101254.249
101254.228
101254.207
101254.185
101254.161
101254.137
101254.113
101254.088
101254.06
101254.028
101253.989
101253.951
101253.917
101253.88
101253.841
101253.797
101253.745
101253.685
101253.615
101253.535
101253.444
101253.339
101253.219
101253.078
101252.912
101252.714
101252.476
101252.188
101251.837
101251.407
101250.883
101250.245
101249.465
101248.512
101247.351
101245.967
101244.356
101242.526
101240.343
101237.851
101235.122
101232.141
101228.915
101225.476
101221.539
101217.329
101212.303
101207.058
101203.601
101251.587
101251.588
101251.588
101251.587
101251.586
101251.583
101251.579
101251.575
101251.569
101251.562
101251.554
101251.545
101251.535
101251.523
101251.51
101251.495
101251.479
101251.461
101251.442
101251.421
101251.398
101251.373
101251.346
101251.317
101251.286
101251.252
101251.216
101251.177
101251.136
101251.092
101251.045
101250.996
101250.943
101250.888
101250.831
101250.77
101250.705
101250.635
101250.561
101250.48
101250.399
101250.317
101250.227
101250.13
101250.027
101249.917
101249.8
101249.674
101249.537
101249.387
101249.222
101249.039
101248.834
101248.604
101248.345
101248.051
101247.713
101247.324
101246.872
101246.344
101245.723
101244.988
101244.104
101243.041
101241.779
101240.339
101238.785
101236.909
101234.597
101231.942
101229.086
101225.879
101222.186
101218.006
101212.815
101207.214
101202.183
101196.902
101192.237
101188.906
101248.895
101248.893
101248.89
101248.885
101248.879
101248.871
101248.862
101248.851
101248.839
101248.825
101248.809
101248.792
101248.773
101248.752
101248.729
101248.704
101248.677
101248.647
101248.615
101248.579
101248.541
101248.501
101248.457
101248.41
101248.359
101248.305
101248.247
101248.186
101248.121
101248.051
101247.978
101247.901
101247.819
101247.732
101247.638
101247.539
101247.435
101247.325
101247.211
101247.092
101246.965
101246.833
101246.694
101246.547
101246.389
101246.22
101246.038
101245.842
101245.63
101245.4
101245.149
101244.875
101244.574
101244.24
101243.868
101243.452
101242.983
101242.452
101241.846
101241.147
101240.332
101239.375
101238.272
101237.084
101235.784
101234.29
101232.315
101230.026
101227.414
101224.075
101220.429
101216.591
101212.324
101208.088
101203.854
101199.679
101195.65
101191.759
101188.35
101185.954
101246.422
101246.416
101246.409
101246.4
101246.389
101246.376
101246.362
101246.345
101246.326
101246.306
101246.283
101246.258
101246.23
101246.2
101246.168
101246.133
101246.095
101246.053
101246.009
101245.961
101245.91
101245.855
101245.796
101245.733
101245.665
101245.594
101245.517
101245.436
101245.351
101245.26
101245.164
101245.06
101244.951
101244.836
101244.714
101244.587
101244.455
101244.313
101244.164
101244.01
101243.848
101243.675
101243.493
101243.299
101243.093
101242.874
101242.64
101242.389
101242.12
101241.83
101241.516
101241.176
101240.806
101240.401
101239.956
101239.467
101238.924
101238.314
101237.622
101236.851
101235.998
101235.058
101233.999
101232.609
101230.853
101228.821
101226.619
101224.307
101221.632
101218.581
101215.462
101212.306
101208.958
101205.456
101201.796
101198.118
101194.527
101191.181
101188.081
101185.466
101244.212
101244.203
101244.192
101244.178
101244.163
101244.145
101244.125
101244.103
101244.078
101244.051
101244.022
101243.99
101243.955
101243.917
101243.877
101243.833
101243.786
101243.735
101243.68
101243.622
101243.56
101243.494
101243.423
101243.347
101243.267
101243.182
101243.092
101242.996
101242.893
101242.783
101242.668
101242.544
101242.417
101242.284
101242.143
101241.993
101241.839
101241.676
101241.505
101241.324
101241.134
101240.933
101240.722
101240.499
101240.262
101240.012
101239.746
101239.464
101239.162
101238.84
101238.494
101238.122
101237.721
101237.288
101236.818
101236.303
101235.73
101235.097
101234.408
101233.597
101232.623
101231.49
101230.183
101228.795
101227.323
101225.613
101223.641
101221.523
101219.272
101216.817
101214.175
101211.376
101208.453
101205.422
101202.426
101199.382
101195.953
101192.645
101189.872
101187.691
101242.297
101242.284
101242.268
101242.251
101242.231
101242.209
101242.184
101242.157
101242.128
101242.096
101242.061
101242.023
101241.983
101241.94
101241.893
101241.843
101241.789
101241.732
101241.672
101241.607
101241.538
101241.465
101241.387
101241.303
101241.214
101241.119
101241.015
101240.908
101240.799
101240.682
101240.557
101240.425
101240.286
101240.141
101239.989
101239.83
101239.662
101239.486
101239.3
101239.106
101238.902
101238.688
101238.462
101238.225
101237.975
101237.712
101237.433
101237.138
101236.826
101236.493