/*--------------------------------*- C++ -*----------------------------------*\
  =========                 |
  \\      /  F ield         | OpenFOAM: The Open Source CFD Toolbox
   \\    /   O peration     | Website:  https://openfoam.org
    \\  /    A nd           | Version:  8
     \\/     M anipulation  |
\*---------------------------------------------------------------------------*/
FoamFile
{
    version     2.0;
    format      ascii;
    class       volScalarField;
    location    "0.007";
    object      T;
}
// * * * * * * * * * * * * * * * * * * * * * * * * * * * * * * * * * * * * * //

dimensions      [0 0 0 1 0 0 0];

internalField   nonuniform List<scalar> 
42400
(
471.862252
469.56228
467.203327
464.785108
462.307531
459.77074
457.175162
454.521559
451.811076
449.0453
446.226308
443.356723
440.439767
437.479308
434.479907
431.446857
428.386215
425.304817
422.210291
419.111046
416.016247
412.935766
409.880123
406.86039
403.888085
400.975044
398.133264
395.374747
392.711319
390.154454
387.715094
385.403482
383.229001
381.200054
379.323983
377.607037
376.054348
374.669947
373.456785
372.416794
371.550969
370.859515
370.341992
369.997427
369.825454
369.823303
369.989348
370.320208
370.812466
371.461417
372.259735
373.196795
374.260175
375.431125
376.685741
377.993697
379.30158
380.576239
381.851194
382.863158
383.403328
383.38126
382.923695
382.07643
380.90148
379.319061
377.144564
374.320515
370.828775
366.772944
362.069612
356.543725
350.842136
345.122961
338.523222
331.681333
325.276029
319.571185
313.54423
308.27327
471.907877
469.700084
467.435564
465.11398
462.735184
460.299267
457.806601
455.257896
452.654248
449.997192
447.288757
444.531517
441.728643
438.883953
436.001954
433.087886
430.147748
427.188322
424.217182
421.242689
418.273972
415.320887
412.393965
409.504331
406.663614
403.883829
401.177251
398.556266
396.033216
393.620234
391.329085
389.171019
387.156639
385.295766
383.597309
382.069156
380.718057
379.549543
378.567863
377.77599
377.175594
376.767023
376.549258
376.519748
376.673083
377.007285
377.51208
378.176204
378.986261
379.925308
380.97034
382.09124
383.244318
384.385957
385.491583
386.588934
387.270288
387.470666
387.19773
386.469215
385.458261
384.082354
382.231891
379.789179
376.735936
373.058278
368.764781
363.856496
358.400653
352.570371
346.489274
340.021705
333.4623
327.257575
321.329557
315.587551
310.488895
306.008392
302.382514
300.344341
471.96797
469.881592
467.741484
465.547259
463.298727
460.995939
458.63924
456.229315
453.767247
451.254564
448.693295
446.086022
443.435931
440.746861
438.023347
435.270656
432.494826
429.70268
426.901841
424.100727
421.308538
418.53522
415.791414
413.088392
410.437967
407.852391
405.344233
402.926246
400.611235
398.411898
396.340668
394.409537
392.629861
391.012165
389.56593
388.299383
387.219346
386.331037
385.637867
385.14128
384.84043
384.732048
384.810065
385.068807
385.492881
386.067415
386.771471
387.577866
388.450322
389.350999
390.252365
391.155093
391.800413
392.074074
391.954105
391.242417
390.310986
389.071928
387.447242
385.295893
382.552312
379.201169
375.253811
370.732908
365.690285
360.192415
354.312177
348.102595
341.701048
335.279455
329.047316
323.057987
317.414256
312.356859
308.006071
304.596315
301.779961
300.258341
299.94996
299.897789
472.041925
470.104992
468.118078
466.080781
463.992906
461.854513
459.665966
457.427984
455.141696
452.808691
450.43107
448.011499
445.553262
443.060301
440.537267
437.989553
435.423324
432.845541
430.263966
427.687163
425.12448
422.586009
420.082541
417.625492
415.22682
412.898926
410.65452
408.506475
406.467654
404.550714
402.767876
401.130673
399.649672
398.334227
397.192165
396.229468
395.449978
394.854984
394.442935
394.209638
394.146714
394.239454
394.479381
394.839053
395.288039
395.795876
396.33333
396.886917
397.283905
397.398851
397.213232
396.540677
395.609261
394.416845
392.892789
390.949976
388.46401
385.40442
381.757911
377.540023
372.792474
367.568967
361.93699
355.974472
349.781513
343.474476
337.159446
330.943848
324.965641
319.380071
314.33652
309.936747
306.323864
303.52342
301.490688
300.205915
299.933978
299.872614
299.8531
299.856227
472.127042
470.362153
468.551703
466.695348
464.792962
462.844689
460.85099
458.812696
456.731059
454.6078
452.445166
450.245973
448.013658
445.752322
443.46677
441.162544
438.845945
436.524053
434.204722
431.896574
429.608969
427.351966
425.13625
422.973047
420.874003
418.851048
416.91621
415.081406
413.358197
411.757516
410.289373
408.962519
407.784068
406.759143
405.890415
405.177735
404.618093
404.204281
403.924614
403.762952
403.698385
403.708425
403.771644
403.867528
403.836722
403.643989
403.187767
402.398453
401.373606
400.131695
398.610158
396.738553
394.408318
391.567828
388.192998
384.276219
379.834113
374.904375
369.550741
363.838588
357.839094
351.646128
345.356802
339.084245
332.940331
327.058697
321.527618
316.46938
311.986816
308.194536
305.159485
302.875926
301.320931
300.312547
299.959606
299.880364
299.860604
299.855827
299.852184
299.851135
472.217517
470.635563
469.012887
467.349291
465.644812
463.899764
462.114784
460.290883
458.429491
456.532504
454.602333
452.641943
450.654897
448.64539
446.618281
444.579116
442.534137
440.490285
438.455179
436.437087
434.444869
432.487896
430.575943
428.719046
426.927333
425.21081
423.579125
422.041291
420.605363
419.2781
418.064575
416.967741
415.988006
415.123058
414.367122
413.711045
413.143123
412.648475
412.2112
411.750961
411.225648
410.586615
409.778018
408.734532
407.556499
406.193655
404.592588
402.694424
400.415289
397.701615
394.524819
390.867296
386.727211
382.119427
377.076332
371.647221
365.90906
359.931018
353.788023
347.569483
341.363192
335.273479
329.409586
323.879727
318.772285
314.200626
310.234612
306.948484
304.369343
302.469025
301.183397
300.410317
299.999791
299.898902
299.87049
299.861356
299.85517
299.849773
299.838784
299.83121
472.304548
470.898636
469.456794
467.979059
466.465696
464.91724
463.334542
461.7188
460.071607
458.394982
456.691412
454.963877
453.215881
451.451471
449.675251
447.892376
446.108547
444.329976
442.563339
440.815701
439.094422
437.407019
435.761012
434.163729
432.622079
431.142288
429.729614
428.388024
427.119832
425.925321
424.802541
423.746954
422.751248
421.798174
420.865111
419.924774
418.945398
417.890216
416.717881
415.453256
414.065961
412.518565
410.769954
408.77133
406.45398
403.782558
400.727632
397.266889
393.388395
389.091963
384.389757
379.307261
373.883216
368.170562
362.241649
356.173017
350.03962
343.920921
337.899058
332.067985
326.524595
321.352404
316.648495
312.493194
308.945803
306.055053
303.820884
302.197261
301.104151
300.437161
300.082946
299.931728
299.889819
299.874928
299.864908
299.853863
299.839636
299.827477
299.824483
299.823597
472.377642
471.119638
469.82985
468.508565
467.15628
465.773734
464.361932
462.922179
461.4561
459.965667
458.453211
456.92144
455.373445
453.812692
452.243008
450.668552
449.093769
447.52332
445.961998
444.414605
442.885814
441.379996
439.901016
438.452002
437.035078
435.651073
434.299181
432.976675
431.678574
430.397225
429.119571
427.829411
426.507612
425.140849
423.712558
422.201294
420.582305
418.826942
416.901088
414.761071
412.371191
409.701425
406.724186
403.416258
399.760878
395.748756
391.379207
386.661084
381.613443
376.265688
370.657645
364.839812
358.873459
352.83321
346.790492
340.822718
335.013353
329.444667
324.202955
319.366957
315.017518
311.214784
308.016331
305.440446
303.466156
302.038888
301.077796
300.484612
300.154728
299.994671
299.926867
299.898349
299.879337
299.860652
299.844802
299.832055
299.825541
299.823447
299.822313
299.822052
472.42701
471.268954
470.081995
468.866614
467.62346
466.353365
465.05735
463.736647
462.392697
461.027156
459.641894
458.23898
456.820665
455.389348
453.947538
452.497789
451.042623
449.584439
448.125387
446.667231
445.211178
443.757694
442.306292
440.855314
439.401705
437.94083
436.466109
434.968913
433.438313
431.860872
430.223237
428.509245
426.699313
424.769394
422.694293
420.44939
418.009454
415.349463
412.445628
409.276425
405.823756
402.073959
398.018785
393.656296
388.991638
384.037689
378.81556
373.354857
367.693891
361.879454
355.967023
350.022854
344.118444
338.325026
332.720007
327.382878
322.39984
317.846198
313.792857
310.291044
307.37534
305.045919
303.27048
301.989125
301.119532
300.568891
300.245233
300.068976
299.975139
299.923053
299.887896
299.860089
299.840376
299.830766
299.828331
299.826957
299.825094
299.823498
299.822409
299.821617
472.446286
471.327294
470.180559
469.006621
467.806128
466.579829
465.328574
464.053308
462.755058
461.434913
460.094008
458.733485
457.354459
455.957961
454.544877
453.115867
451.671265
450.210969
448.734318
447.239933
445.725505
444.187529
442.620965
441.019025
439.374577
437.678854
435.921507
434.090446
432.171823
430.150156
428.008517
425.728747
423.291796
420.678188
417.868624
414.844652
411.589337
408.087977
404.328863
400.304043
396.010046
391.448585
386.627198
381.559868
376.267605
370.779016
365.130664
359.367208
353.541395
347.714148
341.955589
336.339464
330.940508
325.835171
321.097492
316.793879
312.987557
309.722608
307.020168
304.868552
303.227488
302.033311
301.20659
300.663742
300.325555
300.121403
300.000468
299.928045
299.87656
299.84665
299.831172
299.827053
299.826087
299.827041
299.827247
299.825663
299.822449
299.819126
299.816226
299.817087
472.436409
471.297488
470.130324
468.935403
467.713245
466.464396
465.189401
463.888785
462.563016
461.212473
459.837407
458.437895
457.013774
455.564568
454.089397
452.586866
451.054472
449.488039
447.883144
446.235431
444.53969
442.789855
440.979064
439.099786
437.142186
435.095152
432.946408
430.682605
428.289471
425.752041
423.05495
420.182797
417.120572
413.854191
410.370981
406.66022
402.713736
398.526513
394.097331
389.429404
384.531042
379.416315
374.105725
368.626882
363.015175
357.314234
351.575963
345.860193
340.233943
334.7719
329.551278
324.645633
320.124723
316.048147
312.460664
309.394829
306.857392
304.830531
303.272766
302.12239
301.306665
300.751438
300.386744
300.153743
300.009419
299.915117
299.864041
299.836915
299.832084
299.827541
299.826104
299.825319
299.824083
299.820466
299.816489
299.812065
299.808334
299.803175
299.803961
299.805888
472.401083
471.190757
469.950313
468.680116
467.380487
466.05168
464.693842
463.30698
461.890763
460.443558
458.964212
457.451281
455.902886
454.316659
452.689686
451.018466
449.299356
447.528988
445.702687
443.814039
441.855786
439.819781
437.696925
435.477235
433.149876
430.703243
428.125108
425.402796
422.523426
419.474189
416.242729
412.817556
409.188399
405.346685
401.286055
397.00293
392.497131
387.772538
382.837801
377.707074
372.400764
366.946235
361.378435
355.740368
350.083315
344.466348
338.955281
333.620783
328.536363
323.777192
319.410671
315.48935
312.052207
309.121746
306.697151
304.756899
303.256701
302.136062
301.32841
300.767333
300.391082
300.148194
299.994778
299.905117
299.856831
299.842565
299.835929
299.832824
299.830477
299.827504
299.821257
299.815071
299.809341
299.805357
299.804076
299.803203
299.802324
299.799298
299.797346
299.797748
472.34231
471.013109
469.650514
468.254614
466.825362
465.362523
463.865226
462.332266
460.762441
459.155209
457.508816
455.820965
454.088855
452.309138
450.477872
448.590463
446.641646
444.625453
442.535152
440.363209
438.101323
435.740448
433.270842
430.682152
427.963531
425.103786
422.091573
418.915634
415.565217
412.03029
408.301919
404.372709
400.237305
395.892954
391.340133
386.583244
381.631355
376.49897
371.206802
365.782476
360.261098
354.685584
349.106629
343.582241
338.176592
332.957856
327.995549
323.356737
319.103421
315.287423
311.946553
309.096988
306.733852
304.830881
303.345139
302.222084
301.402017
300.823905
300.43173
300.177154
300.019841
299.927799
299.882351
299.861838
299.849981
299.842069
299.835984
299.830911
299.826047
299.82085
299.817833
299.814254
299.809739
299.806026
299.804321
299.803904
299.804581
299.801235
299.798362
299.796659
472.267581
470.787241
469.269399
467.713875
466.120271
464.487907
462.815752
461.102753
459.347259
457.547191
455.699986
453.802549
451.851212
449.841698
447.76909
445.627787
443.411496
441.113225
438.725298
436.239371
433.646487
430.937146
428.1014
425.128998
422.009543
418.732805
415.288967
411.668879
407.864437
403.869005
399.677917
395.289046
390.703443
385.926031
380.966358
375.839359
370.566099
365.174431
359.699485
354.183895
348.677642
343.237364
337.925034
332.806
327.946186
323.40843
319.248766
315.511872
312.229396
309.415329
307.065834
305.157122
303.650387
302.495751
301.638274
301.022067
300.59421
300.307848
300.123322
300.008764
299.939511
299.898448
299.873273
299.855946
299.843245
299.833686
299.82609
299.820316
299.816888
299.81586
299.815686
299.813952
299.810819
299.808855
299.807618
299.807493
299.810462
299.811166
299.807634
299.802248
472.182394
470.529779
468.835052
467.097796
465.317304
463.492494
461.622278
459.704924
457.738243
455.719539
453.645568
451.512507
449.315908
447.050681
444.711078
442.290682
439.782421
437.178587
434.470882
431.650486
428.708146
425.634305
422.419277
419.053566
415.528019
411.834127
407.964391
403.91275
399.675073
395.249725
390.6382
385.845804
380.882379
375.763034
370.508831
365.147375
359.713219
354.248001
348.800196
343.424384
338.179946
333.129037
328.333807
323.853306
319.73983
316.035388
312.768087
309.950147
307.577076
305.627391
304.065683
302.847786
301.92456
301.244581
300.758719
300.422769
300.198114
300.052702
299.961485
299.905708
299.869232
299.847639
299.834457
299.825197
299.818953
299.814776
299.812101
299.810484
299.808762
299.807898
299.807171
299.808508
299.8098
299.813074
299.816392
299.816505
299.8152
299.815107
299.825041
299.824781
472.089288
470.248384
468.360342
466.424524
464.43998
462.405431
460.319238
458.179211
455.982643
453.72626
451.406195
449.017953
446.556397
444.015736
441.389536
438.67073
435.85167
432.924178
429.879644
426.709137
423.403634
419.954228
416.352328
412.589953
408.660098
404.557143
400.277345
395.819387
391.184986
386.379555
381.412889
376.29985
371.060998
365.723122
360.319577
354.89036
349.481814
344.145879
338.938809
333.919335
329.146325
324.675686
320.556775
316.829528
313.521221
310.645535
308.200056
306.16804
304.520246
303.217061
302.212672
301.459417
300.910752
300.523207
300.258016
300.082605
299.970761
299.90207
299.861538
299.838621
299.8309
299.824899
299.81745
299.813017
299.809852
299.807241
299.804569
299.802684
299.802694
299.803233
299.804794
299.806367
299.808193
299.811543
299.818001
299.819118
299.816222
299.812801
299.818994
299.826322
471.989863
469.947897
467.853473
465.705765
463.503574
461.245269
458.928737
456.551331
454.109835
451.600426
449.018651
446.359414
443.616976
440.784974
437.856447
434.823902
431.679395
428.414637
425.021245
421.490884
417.815488
413.987554
410.000484
405.848994
401.529579
397.041043
392.385084
387.56692
382.595938
377.486341
372.25774
366.935639
361.551749
356.144041
350.756453
345.438174
340.242437
335.224769
330.440718
325.943237
321.780197
317.990845
314.60338
311.632802
309.080063
306.933456
305.167994
303.749472
302.63754
301.788508
301.157952
300.70323
300.385471
300.170817
300.030835
299.943211
299.890163
299.85929
299.842097
299.832879
299.826808
299.821635
299.816328
299.812122
299.8089
299.806187
299.804363
299.802748
299.802005
299.802554
299.805107
299.80728
299.808805
299.811304
299.816737
299.819385
299.816547
299.809746
299.808292
299.819802
471.885472
469.632392
467.321233
464.950933
462.520001
460.026461
457.467804
454.840943
452.142183
449.367199
446.51103
443.568085
440.532174
437.396556
434.154012
430.796952
427.317646
423.708343
419.961498
416.070045
412.027727
407.829479
403.471878
398.953639
394.276166
389.444152
384.466189
379.35538
374.129908
368.813501
363.435749
358.032181
352.644021
347.317563
342.103075
337.05323
332.221076
327.657595
323.408996
319.514112
316.002069
312.890682
310.185834
307.883671
305.966566
304.404262
303.161164
302.196424
301.467338
300.931665
300.549667
300.28573
300.109174
299.994639
299.922235
299.877731
299.849037
299.832421
299.822045
299.815255
299.812096
299.811743
299.812489
299.81161
299.808226
299.805753
299.804651
299.803363
299.802131
299.802408
299.805331
299.809527
299.812725
299.812134
299.812922
299.817736
299.818451
299.812595
299.805129
299.816059
471.777205
469.305164
466.769198
464.167998
461.499779
458.762227
455.952454
453.066969
450.101659
447.051787
443.912006
440.676403
437.338558
433.891639
430.328594
426.642282
422.825671
418.872098
414.775572
410.531132
406.135264
401.586368
396.885277
392.035814
387.045375
381.925512
376.692478
371.367704
365.978126
360.556321
355.14037
349.773365
344.50251
339.377766
334.450068
329.769211
325.381557
321.32765
317.640089
314.341885
311.44435
308.948958
306.843346
305.106168
303.708033
302.610832
301.771505
301.146957
300.69615
300.381078
300.168101
300.028806
299.940751
299.886506
299.853096
299.832772
299.82449
299.817903
299.811483
299.807369
299.80604
299.807031
299.810162
299.813362
299.81494
299.814196
299.811908
299.81075
299.809799
299.809806
299.814058
299.816532
299.81867
299.816275
299.813621
299.815746
299.825901
299.833791
299.832943
299.831661
471.666211
468.969678
466.203207
463.365235
460.453689
457.465937
454.398759
451.248329
448.010214
444.679403
441.250349
437.717046
434.073177
430.312255
426.427793
422.413535
418.263736
413.973489
409.539108
404.958564
400.23197
395.362106
390.354975
385.220366
379.972394
374.629985
369.217251
363.763696
358.304193
352.878671
347.531442
342.310141
337.264245
332.44318
327.894125
323.6598
319.77638
316.271373
313.162183
310.454748
308.142068
306.206701
304.62153
303.351693
302.358761
301.603
301.043067
300.639316
300.355857
300.162213
300.033691
299.950844
299.898641
299.866448
299.84665
299.833433
299.824147
299.816449
299.810725
299.806732
299.805074
299.80508
299.80708
299.811182
299.817405
299.822603
299.825762
299.826829
299.82673
299.825936
299.823991
299.823298
299.823042
299.826025
299.821187
299.81725
299.829598
299.839115
299.848605
299.854686
472.499549
471.488201
470.451611
469.390071
468.30389
467.193384
466.058866
464.90064
463.718986
462.514149
461.28633
460.035666
458.762217
457.465952
456.146729
454.804277
453.43818
452.047852
450.632523
449.191213
447.722714
446.225565
444.698036
443.138099
441.543417
439.911319
438.238787
436.522442
434.758536
432.942951
431.071205
429.138469
427.139596
425.069167
422.92156
420.691031
418.371833
415.958354
413.445301
410.827919
408.102245
405.26542
402.315992
399.254284
396.082764
392.80643
389.433167
385.974084
382.443802
378.860646
375.246733
371.627898
368.033414
364.495493
361.048529
357.728023
354.569907
351.608718
348.874201
346.388126
344.160489
342.185489
340.438567
338.876843
337.44235
336.068643
334.692065
333.265648
331.772818
330.237051
328.721305
327.28889
325.9985
324.918257
324.138665
323.625298
323.350931
323.311029
323.541669
323.961056
472.491228
471.46306
470.409223
469.330017
468.225759
467.096781
465.943414
464.765986
463.564803
462.340145
461.092243
459.821274
458.527343
457.210464
455.870549
454.507386
453.120624
451.709753
450.274084
448.812729
447.324582
445.808294
444.262254
442.684567
441.073034
439.425128
437.737977
436.00835
434.232639
432.406855
430.526626
428.587203
426.583482
424.510032
422.361151
420.130935
417.813384
415.402536
412.89264
410.27838
407.555114
404.719186
401.768265
398.701741
395.521151
392.230642
388.837427
385.352241
381.789741
378.168848
374.512964
370.85004
367.212401
363.636271
360.160917
356.827311
353.676191
350.744488
348.062136
345.647781
343.504266
341.614842
339.94138
338.426344
336.999735
335.592115
334.147393
332.637725
331.075914
329.515337
328.089013
326.831457
325.73421
324.807237
324.163676
323.740966
323.490141
323.480963
323.662529
323.95915
472.476477
471.418511
470.334158
469.223749
468.087642
466.926213
465.739847
464.528927
463.293825
462.034887
460.752423
459.446689
458.117876
456.766095
455.391359
453.993566
452.572487
451.127743
449.658785
448.164882
446.645089
445.098238
443.522903
441.917387
440.279692
438.6075
436.898144
435.148592
433.35542
431.514802
429.622491
427.673819
425.663698
423.586638
421.436783
419.207972
416.89383
414.487891
411.983746
409.375263
406.656841
403.823732
400.872429
397.801129
394.610247
391.302993
387.885989
384.369896
380.770024
377.106864
373.40648
369.700668
366.026764
362.426938
358.946833
355.633424
352.531993
349.681311
347.107581
344.821173
342.812272
341.048413
339.475522
338.023723
336.617814
335.194709
333.721044
332.209038
330.665246
329.140859
327.826326
326.748584
325.941854
325.28763
324.71178
324.251675
323.932755
323.839544
323.895221
324.088356
472.454931
471.353441
470.224521
469.068551
467.885945
466.677145
465.442609
464.1828
462.898178
461.589184
460.256231
458.899685
457.519858
456.116989
454.691232
453.242638
451.771143
450.276545
448.758492
447.216459
445.649729
444.057372
442.438218
440.790836
439.113505
437.404186
435.660494
433.879666
432.058534
430.193497
428.280492
426.314972
424.291903
422.20576
420.050547
417.819842
415.506851
413.104527
410.605711
408.003348
405.290759
402.46201
399.512356
396.43879
393.240693
389.92057
386.484867
382.944831
379.31734
375.625632
371.8998
368.176898
364.500475
360.919307
357.485131
354.249256
351.258103
348.547977
346.138987
344.027401
342.186491
340.566964
339.102726
337.724132
336.355184
334.929444
333.434926
332.057312
330.787053
329.560233
328.454337
327.51889
326.750816
326.108759
325.554037
325.074373
324.699276
324.45837
324.454628
324.474064
472.426211
471.266698
470.078347
468.861591
467.616906
466.344802
465.045819
463.720509
462.369431
460.993133
459.592148
458.166972
456.71806
455.245809
453.750543
452.232504
450.691834
449.128563
447.542586
445.933652
444.301341
442.645039
440.963917
439.256903
437.522652
435.759511
433.965483
432.138191
430.274834
428.372146
426.426363
424.433179
422.387721
420.284532
418.117553
415.880153
413.565172
411.165018
408.671817
406.077634
403.374781
400.556225
397.616124
394.550486
391.357969
388.040817
384.605895
381.065778
377.439791
373.75485
370.045937
366.355948
362.734661
359.236588
355.917516
352.829745
350.016309
347.504875
345.302483
343.392657
341.732242
340.254415
338.88891
337.566713
336.251259
334.947251
333.619977
332.340114
331.191808
330.230816
329.445756
328.774329
328.152623
327.541455
326.943959
326.394849
325.932885
325.591172
325.456028
325.501895
472.389969
471.157225
469.893835
468.600274
467.277073
465.924807
464.544088
463.135558
461.699874
460.237698
458.749689
457.236491
455.698719
454.136954
452.551727
450.943512
449.312712
447.659643
445.984524
444.287457
442.568409
440.827189
439.063422
437.276516
435.465635
433.629648
431.767095
429.876138
427.954506
425.999437
424.007626
421.97516
419.897472
417.769303
415.584664
413.336843
411.018441
408.621459
406.137453
403.557777
400.873928
398.078025
395.163438
392.125569
388.962816
385.677684
382.278051
378.778476
375.201325
371.577618
367.947288
364.358565
360.866197
357.528234
354.401298
351.534682
348.963837
346.704311
344.747594
343.0618
341.593441
340.256752
339.013474
337.804395
336.603814
335.427104
334.326807
333.363403
332.564417
331.902428
331.315417
330.748216
330.17564
329.603307
329.044843
328.529397
328.060947
327.624682
327.238173
326.980027
472.346057
471.024567
469.670202
468.283465
466.864923
465.4152
463.934973
462.424963
460.885924
459.318632
457.723884
456.102484
454.455234
452.782933
451.086362
449.366282
447.623421
445.858464
444.072041
442.264713
440.436949
438.589104
436.721394
434.833859
432.92633
430.998375
429.049244
427.077816
425.082522
423.061282
421.011411
418.929551
416.811599
414.652642
412.446917
410.187795
407.867803
405.478719
403.011739
400.457744
397.807709
395.053251
392.18737
389.205361
386.105906
382.892299
379.573849
376.167449
372.698641
369.202283
365.722471
362.311312
359.026239
355.925831
353.064208
350.484395
348.211811
346.249285
344.574111
343.132327
341.873325
340.731041
339.653313
338.614107
337.620713
336.707796
335.91565
335.261759
334.727055
334.266995
333.839593
333.431124
333.043271
332.676586
332.348636
332.049643
331.74955
331.425548
331.1383
331.016174
472.294755
470.869567
469.408866
467.91316
466.383035
464.819148
463.222229
461.593068
459.932513
458.241464
456.520866
454.771706
452.995007
451.191829
449.363259
447.510412
445.634423
443.736439
441.817611
439.879079
437.921952
435.947285
433.956042
431.949061
429.927011
427.890325
425.83914
423.773213
421.691839
419.593767
417.477092
415.33916
413.176477
410.984628
408.758216
406.490838
404.175115
401.802782
399.364889
396.852103
394.255172
391.565569
388.776344
385.883169
382.885514
379.788059
376.601991
373.346631
370.050355
366.750957
363.495069
360.336349
357.332083
354.53824
352.003472
349.762513
347.830274
346.19824
344.831978
343.6825
342.688656
341.792635
340.953599
340.157967
339.421026
338.775658
338.250981
337.852429
337.558794
337.341712
337.18083
337.076021
337.025493
337.021157
337.071644
337.165291
337.293802
337.540808
337.958052
338.748068
472.236986
470.695017
469.114536
467.496035
465.840102
464.147412
462.418737
460.654932
458.856944
457.025801
455.162619
453.268597
451.34502
449.393263
447.414787
445.411142
443.383963
441.334966
439.265938
437.178726
435.075215
432.957296
430.826835
428.685614
426.535281
424.377282
422.212774
420.042536
417.866861
415.685446
413.497276
411.300502
409.092336
406.868949
404.625409
402.355659
400.052549
397.707967
395.313081
392.858727
390.335926
387.736601
385.054367
382.28577
379.431398
376.497427
373.49683
370.45073
367.389158
364.351076
361.383335
358.538369
355.870397
353.430184
351.259012
349.382736
347.806962
346.514845
345.468767
344.616098
343.898895
343.266255
342.686195
342.153457
341.688397
341.325298
341.095667
341.016082
341.021139
341.114327
341.339368
341.667801
342.088507
342.588844
343.175739
343.876397
344.73474
345.866908
347.29348
348.886635
472.174396
470.50589
468.795601
467.04399
465.251632
463.419213
461.547539
459.637533
457.690245
455.706851
453.68866
451.637121
449.553826
447.44052
445.299105
443.131645
440.940365
438.727647
436.496023
434.248156
431.986823
429.714873
427.435191
425.150632
422.863956
420.577743
418.29429
416.015503
413.74277
411.47683
409.217637
406.964224
404.714586
402.465572
400.212831
397.950801
395.672779
393.371065
391.037212
388.662436
386.238115
383.756729
381.21258
378.603103
375.929974
373.200502
370.42884
367.636995
364.855305
362.122128
359.482456
356.98529
354.67972
352.609929
350.809669
349.297179
348.071573
347.111816
346.379046
345.822771
345.390235
345.037826
344.74169
344.504286
344.352194
344.289801
344.310298
344.51853
344.909243
345.46382
346.164529
347.004268
347.991498
349.134717
350.424007
351.839548
353.386962
355.12019
356.928107
358.544808
472.109317
470.309238
468.463956
466.573894
464.639602
462.66177
460.641232
458.578983
456.476182
454.334164
452.154453
449.938774
447.68906
445.407471
443.0964
440.758482
438.396596
436.013865
433.613644
431.199505
428.775205
426.344647
423.911825
421.480751
419.055373
416.639469
414.236529
411.849623
409.481255
407.133212
404.806412
402.500759
400.215013
397.9467
395.692047
393.445974
391.202192
388.953322
386.691298
384.407872
382.095037
379.746056
377.35627
374.924224
372.452826
369.950506
367.432227
364.920178
362.443903
360.039672
357.748866
355.615281
353.681399
351.983915
350.549066
349.388589
348.497243
347.852825
347.418811
347.149115
346.995481
346.91636
346.86839
346.88733
346.979495
347.165693
347.47254
347.926537
348.543878
349.31833
350.217838
351.209509
352.284595
353.457422
354.736293
356.096162
357.494402
358.905254
360.272809
361.449481
472.044531
470.113461
468.133769
466.105823
464.030143
461.907407
459.738476
457.524407
455.266466
452.966151
450.625207
448.245644
445.829757
443.380143
440.899715
438.391713
435.859712
433.307615
430.739647
428.160329
425.574445
422.986989
420.403099
417.827972
415.266757
412.724437
410.205687
407.714721
405.255129
402.829704
400.440283
398.087586
395.771069
393.488835
391.237549
389.012558
386.808058
384.617161
382.432404
380.246294
378.051804
375.843212
373.616998
371.372839
369.114637
366.851475
364.598364
362.376642
360.213831
358.142787
356.200002
354.423037
352.847181
351.501642
350.405767
349.565961
348.973978
348.60695
348.452886
348.424658
348.504996
348.656847
348.857937
349.101342
349.391082
349.742625
350.177563
350.709837
351.348628
352.097376
352.946416
353.870077
354.843532
355.85718
356.91478
357.99416
359.066056
360.100125
361.054286
361.860642
471.982934
469.927309
467.819789
465.66068
463.450454
461.189769
458.879499
456.520749
454.114885
451.663553
449.16871
446.632646
444.058007
441.447823
438.805522
436.134945
433.440355
430.726434
427.998269
425.261324
422.521399
419.784566
417.057093
414.345338
411.655629
408.994131
406.366676
403.778596
401.234523
398.738184
396.292245
393.898166
391.556084
389.264758
387.021438
384.822059
382.661426
380.533358
378.431112
376.347882
374.277437
372.214879
370.157486
368.105601
366.063498
364.040133
362.049657
360.111582
358.250434
356.494808
354.875724
353.424326
352.169032
351.132428
350.328304
349.759348
349.416028
349.295898
349.337963
349.514598
349.789131
350.129459
350.512423
350.924764
351.362773
351.830455
352.337446
352.892865
353.501808
354.164541
354.881033
355.649094
356.454254
357.281316
358.124032
358.974825
359.818925
360.64741
361.446927
362.203528
471.927373
469.759389
467.536532
465.259032
462.927303
460.541968
458.103893
455.614213
453.074366
450.486124
447.851623
445.1734
442.454417
439.698094
436.908329
434.089519
431.246564
428.384872
425.510338
422.629314
419.74856
416.875172
414.016487
411.179964
408.373044
405.602985
402.876684
400.200493
397.580035
395.019977
392.523867
390.093992
387.731273
385.435219
383.203829
381.033703
378.92021
376.857776
374.840271
372.861527
370.915953
368.99924
367.109116
365.24611
363.414252
361.62163
359.88072
358.208359
356.625305