/*--------------------------------*- C++ -*----------------------------------*\
  =========                 |
  \\      /  F ield         | OpenFOAM: The Open Source CFD Toolbox
   \\    /   O peration     | Website:  https://openfoam.org
    \\  /    A nd           | Version:  8
     \\/     M anipulation  |
\*---------------------------------------------------------------------------*/
FoamFile
{
    version     2.0;
    format      ascii;
    class       volVectorField;
    location    "0.007";
    object      U;
}
// * * * * * * * * * * * * * * * * * * * * * * * * * * * * * * * * * * * * * //

dimensions      [0 1 -1 0 0 0 0];

internalField   nonuniform List<vector> 
42400
(
(-0.0205492393 0.0196861695 -1.18052909e-26)
(-0.0620007223 0.0582520032 4.03483526e-26)
(-0.104740032 0.0965435447 4.62136359e-26)
(-0.148878799 0.134514809 0)
(-0.194390414 0.172080753 0)
(-0.241179482 0.209095619 -3.84324636e-28)
(-0.289100807 0.245386283 0)
(-0.337980707 0.28077967 4.15281407e-28)
(-0.387636595 0.315119468 0)
(-0.437890245 0.348275969 4.46228644e-28)
(-0.488574026 0.3801501 4.61370761e-28)
(-0.539531505 0.410672539 -4.76067489e-28)
(-0.590614378 0.439799495 -1.06938358e-25)
(-0.641677584 0.467506866 -1.15038929e-25)
(-0.692574045 0.493784085 -5.15264142e-28)
(-0.743149931 0.518628447 0)
(-0.793240933 0.542040348 0)
(-0.842669701 0.564019553 0)
(-0.891244418 0.58456249 0)
(-0.938758407 0.603660463 0)
(-0.98499059 0.621298737 0)
(-1.02970661 0.637456412 -1.06802905e-27)
(-1.07266044 0.65210704 -2.21987931e-25)
(-1.11359642 0.665219949 -4.76935333e-25)
(-1.15225143 0.676762229 -2.56394554e-25)
(-1.18835701 0.68670135 -8.86300765e-28)
(-1.22164103 0.695008149 -8.01767578e-28)
(-1.25182862 0.701659832 1.39382771e-27)
(-1.27864353 0.70664305 0)
(-1.30180297 0.709957237 0)
(-1.3210047 0.711612015 4.02008548e-25)
(-1.33596271 0.711672285 4.36569313e-25)
(-1.34653594 0.710135217 -6.40561307e-28)
(-1.3518848 0.707497047 -4.45468738e-25)
(-1.35210822 0.702916468 -4.54390935e-25)
(-1.34652988 0.697165039 0)
(-1.3352355 0.689968049 0)
(-1.31778239 0.682564888 0)
(-1.29223305 0.67447537 0)
(-1.25694866 0.665612583 -7.77529082e-25)
(-1.21194471 0.655103296 -7.6933558e-25)
(-1.15569735 0.6438886 -8.03332628e-25)
(-1.08707005 0.632321616 -1.72261502e-24)
(-1.00482793 0.620579228 2.44620995e-26)
(-0.90731067 0.608630878 9.10542384e-25)
(-0.792159534 0.596263196 1.02096966e-24)
(-0.657182743 0.583324258 -3.842976e-26)
(-0.501182163 0.569396111 -1.03744024e-24)
(-0.320840725 0.554702745 -4.74809918e-26)
(-0.117573616 0.540129088 -9.34592894e-25)
(0.118557269 0.52759441 -2.9842986e-33)
(0.376282474 0.51711954 2.51856502e-24)
(0.686980664 0.502353647 1.57474431e-24)
(1.04366465 0.483182258 -1.70043623e-25)
(1.44961155 0.462648165 0)
(1.9123195 0.441080767 0)
(2.43597095 0.417851544 0)
(3.02546793 0.39287511 2.92114997e-25)
(3.68595651 0.366503156 3.3286541e-25)
(4.42100192 0.338517114 0)
(5.2322504 0.308567935 -2.88111662e-24)
(6.11892127 0.27702144 -2.95774008e-24)
(7.07967089 0.244849489 1.85040224e-24)
(8.1087683 0.214761033 1.28129311e-24)
(9.19956006 0.190427426 0)
(10.3465913 0.171063899 0)
(11.5426559 0.150413291 -5.60752747e-25)
(12.8076199 0.100593693 -2.21027564e-24)
(14.1474985 0.0297605116 1.51232378e-24)
(15.3356465 0.121375 0)
(16.5141135 0.301241283 0)
(18.1064382 -0.160068396 1.68961094e-24)
(19.4863245 -0.521251492 1.94133615e-24)
(20.0911944 0.403914165 0)
(21.0914625 0.799058877 2.78967496e-24)
(22.6381591 -0.487476063 1.96657648e-23)
(23.2878993 -0.858723413 1.73055023e-23)
(23.4274559 -0.24898391 -6.12592531e-24)
(23.4739282 -0.141848763 -1.43931282e-23)
(23.39169 -0.232145414 -7.22082748e-23)
(-0.0253579408 0.0224740778 0)
(-0.0768557776 0.0671473533 3.54158149e-26)
(-0.130046517 0.112040036 4.07374817e-26)
(-0.184800739 0.156906829 0)
(-0.240883058 0.20148569 0)
(-0.29800293 0.245477191 5.34349553e-26)
(-0.355846746 0.288580534 5.85053276e-26)
(-0.414098516 0.330519669 7.1945003e-29)
(-0.472456938 0.37105692 0)
(-0.530645441 0.409999404 6.39615413e-29)
(-0.588415172 0.447199946 5.77660101e-29)
(-0.645542619 0.482553663 -8.59355407e-26)
(-0.701824057 0.515991885 -1.84145295e-25)
(-0.757068735 0.547475052 -9.85639716e-26)
(-0.811092184 0.576985752 1.05401611e-25)
(-0.863710411 0.604522535 1.12598495e-25)
(-0.914735332 0.630094771 0)
(-0.963971464 0.653718562 -1.86793401e-28)
(-1.01121374 0.675413612 0)
(-1.05624623 0.695200912 0)
(-1.09884159 0.713101111 0)
(-1.13876098 0.729133488 -1.68054191e-25)
(-1.17575432 0.74331546 -3.6039084e-25)
(-1.2095606 0.755662562 -1.93546154e-25)
(-1.239908 0.766188704 0)
(-1.26651346 0.774907096 2.08226493e-27)
(-1.2890806 0.781831632 1.16117016e-27)
(-1.30728984 0.786981119 -2.75856311e-27)
(-1.32081411 0.790375817 -2.7808525e-25)
(-1.32936175 0.792004686 -2.9160435e-25)
(-1.33231118 0.791992585 4.84911051e-27)
(-1.32948899 0.790038359 5.55737112e-27)
(-1.32049962 0.786580662 -3.39945118e-25)
(-1.30528443 0.7816155 -3.91260307e-25)
(-1.28343566 0.775841878 4.87707472e-25)
(-1.25297228 0.768726782 5.49425107e-25)
(-1.21296036 0.759705787 0)
(-1.16148669 0.749078417 -1.12225125e-26)
(-1.09910944 0.736715335 0)
(-1.02429337 0.723387294 -2.99340563e-26)
(-0.93587362 0.709184441 -6.42445245e-25)
(-0.832320768 0.694099698 -6.43129442e-25)
(-0.711657154 0.678081071 -3.94298794e-26)
(-0.572058868 0.661110839 4.52109822e-26)
(-0.412245325 0.642616229 -1.0232578e-25)
(-0.228647724 0.622668554 5.40268857e-26)
(-0.0203492331 0.604210475 -5.80594509e-26)
(0.205220953 0.589857595 -8.08405961e-25)
(0.471287529 0.574096203 -1.13471194e-24)
(0.779280977 0.554129832 0)
(1.1324704 0.531516651 8.93581424e-26)
(1.53370752 0.508776061 -1.94283722e-25)
(1.98938516 0.486076056 -6.31865518e-25)
(2.50346066 0.462869955 -1.07805752e-24)
(3.08126463 0.439405196 -2.75222443e-25)
(3.72831403 0.415761962 -1.90903701e-24)
(4.44804379 0.391665014 -1.83778061e-24)
(5.24251829 0.367030637 3.88250124e-25)
(6.11308187 0.342331532 4.3746138e-25)
(7.05895012 0.318815312 1.3589036e-25)
(8.07824767 0.298509282 7.78813205e-25)
(9.16022804 0.285751498 -5.74702399e-25)
(10.2969125 0.27999515 5.82568534e-25)
(11.4853155 0.278922226 0)
(12.7071437 0.286202025 -1.74240078e-24)
(13.9519444 0.306196551 -7.19786787e-24)
(15.2021202 0.324333067 -3.14751732e-24)
(16.4791967 0.321032307 0)
(17.7938602 0.273172248 3.46420007e-26)
(19.0133651 0.231626453 1.52044048e-24)
(20.0423905 0.471749973 6.28588854e-24)
(21.0556705 0.550488459 1.12687212e-23)
(22.2982318 0.135953437 -1.55841792e-23)
(23.1097022 -0.0376781932 -1.86053436e-23)
(23.4093608 0.344746765 6.67601154e-26)
(23.4752408 0.436847408 1.2989362e-23)
(23.448347 0.311406541 1.54158144e-23)
(23.4130896 0.149429038 -4.32716761e-24)
(23.4114592 0.0550564852 -2.28775772e-23)
(23.3404925 -0.0018480939 -2.19951471e-23)
(-0.0299018635 0.02448876 4.5693115e-27)
(-0.0909261154 0.0736401026 -8.95155222e-29)
(-0.154052597 0.123422601 9.0802266e-29)
(-0.218926433 0.173432723 -1.03564853e-28)
(-0.285062315 0.223240229 0)
(-0.35198748 0.272422832 -4.62176364e-26)
(-0.419207799 0.32057152 -2.35108282e-34)
(-0.486254884 0.367319786 5.42464909e-26)
(-0.552698809 0.412357173 5.83166194e-26)
(-0.61815515 0.45543329 1.24886839e-25)
(-0.682284996 0.496356232 6.62842156e-26)
(-0.74478969 0.53498713 -3.72239147e-28)
(-0.805402735 0.571232609 -4.0702348e-28)
(-0.863880945 0.605036741 7.99612666e-26)
(-0.919996185 0.636373523 8.47486967e-26)
(-0.97352838 0.665240403 -1.63784935e-27)
(-1.02425996 0.691652961 -9.38587026e-26)
(-1.07197166 0.715640654 -2.01450537e-25)
(-1.11643943 0.737243431 -1.06809521e-25)
(-1.15743204 0.75650904 -1.6457902e-27)
(-1.19470922 0.773490931 1.81218735e-27)
(-1.22801996 0.788246796 1.99661389e-27)
(-1.25710092 0.800837559 0)
(-1.28167323 0.811325851 -4.76065316e-27)
(-1.30143668 0.81977357 1.54905496e-25)
(-1.31606714 0.826237056 -1.02188742e-28)
(-1.32523282 0.830749066 -1.76264436e-25)
(-1.32842502 0.833323441 -1.8013477e-25)
(-1.32537714 0.83397522 -1.83513688e-25)
(-1.31579527 0.833006102 1.8932748e-25)
(-1.29960774 0.830533564 9.08593604e-27)
(-1.27595854 0.826883773 -5.45221124e-25)
(-1.24339704 0.821543881 -3.40822994e-25)
(-1.20087407 0.814120385 0)
(-1.14657596 0.804791347 0)
(-1.08101039 0.793713418 1.5019317e-26)
(-1.00274767 0.78131925 0)
(-0.910660728 0.767654227 -3.75184793e-26)
(-0.803379364 0.752725815 -4.04948294e-25)
(-0.678997804 0.736496531 -8.93309769e-26)
(-0.535715699 0.718945079 4.45146712e-25)
(-0.372458599 0.699699275 0)
(-0.186222869 0.679148865 0)
(0.0242406554 0.660280306 -4.10871494e-25)
(0.251501861 0.644347838 -6.96324118e-25)
(0.521860503 0.625419976 -7.69939036e-26)
(0.830499816 0.60342061 0)
(1.18185058 0.580745236 0)
(1.58093762 0.558315737 -5.5160815e-25)
(2.0324331 0.536013761 -5.65080256e-25)
(2.54059067 0.513973717 1.18894487e-25)
(3.11046867 0.4925915 0)
(3.7470642 0.47178775 1.92371832e-25)
(4.45387906 0.451638493 3.88407607e-25)
(5.23353635 0.432266111 1.81903691e-26)
(6.08792474 0.414191919 -1.02574084e-24)
(7.01812607 0.399066776 -1.28207076e-24)
(8.02198523 0.38861072 5.926147e-32)
(9.09440773 0.383773779 -8.22208376e-32)
(10.2226465 0.386554091 -5.30339912e-24)
(11.3985105 0.396524113 -3.33912798e-24)
(12.6106995 0.416476439 3.97801999e-24)
(13.8428433 0.444804622 5.23823434e-24)
(15.0954612 0.47795462 0)
(16.3368985 0.51365782 7.11921824e-24)
(17.5542968 0.574498164 1.23266639e-23)
(18.7070714 0.630680888 6.81631422e-24)
(19.8578508 0.659982594 0)
(20.9317939 0.66855256 -3.85299504e-26)
(21.9558319 0.613720856 1.32899092e-23)
(22.7762394 0.59809452 1.95692661e-23)
(23.3068907 0.6892512 0)
(23.4717897 0.732187445 0)
(23.5130688 0.616258309 2.53732812e-24)
(23.4875211 0.620219499 -1.13895481e-24)
(23.4678201 0.605382876 1.23819148e-23)
(23.4296185 0.572220947 1.94605068e-23)
(23.3715438 0.490535098 0)
(23.3576858 0.445274716 -3.67399136e-24)
(23.3284379 0.295273356 2.2589726e-23)
(-0.0342197086 0.0258584538 -1.21066512e-28)
(-0.104275368 0.0780880171 -1.88312419e-28)
(-0.176795392 0.131252343 1.55205125e-26)
(-0.25119156 0.184821881 -1.71509895e-26)
(-0.326779641 0.238253515 -1.81382392e-26)
(-0.402825665 0.290994242 0)
(-0.478693666 0.342559674 -4.15467603e-26)
(-0.553753937 0.392515393 -4.37000111e-26)
(-0.627443403 0.440492466 -4.69363111e-26)
(-0.699265497 0.486193875 -4.95252513e-26)
(-0.76878653 0.529391132 -5.34392223e-26)
(-0.835627459 0.569916992 -1.80337817e-34)
(-0.899453182 0.607656655 -8.1023692e-28)
(-0.959961546 0.642539021 -1.10776205e-33)
(-1.01687345 0.674528853 9.41424429e-28)
(-1.06992456 0.70362024 -6.67111759e-26)
(-1.11885871 0.729831365 6.96033348e-26)
(-1.16342251 0.753200508 2.33227144e-27)
(-1.20336094 0.77378298 -7.34606235e-26)
(-1.23841318 0.791648297 -2.73666592e-27)
(-1.26830761 0.806877166 5.97626844e-27)
(-1.29275189 0.81955652 8.45569342e-26)
(-1.31143467 0.829774267 8.9734773e-26)
(-1.32403348 0.837611993 -3.78792659e-27)
(-1.33019882 0.843153223 0)
(-1.32954719 0.846466485 -4.42392693e-27)
(-1.32180139 0.847875196 0)
(-1.30690095 0.847585042 -1.2780198e-25)
(-1.28368617 0.845637109 -2.90444308e-25)
(-1.25115771 0.84174994 -1.72447306e-25)
(-1.20809013 0.835762932 1.62826429e-25)
(-1.15343904 0.827785265 1.74644095e-25)
(-1.0869775 0.81818006 -3.20891662e-26)
(-1.00754619 0.807155443 -1.76905701e-26)
(-0.913996178 0.794742011 2.04129065e-25)
(-0.80495171 0.780955665 2.39721487e-25)
(-0.67860886 0.765797143 0)
(-0.533227958 0.749272 -3.1034084e-25)
(-0.367651816 0.731041643 -2.82931031e-25)
(-0.179111846 0.711432039 -5.65319257e-26)
(0.0339573359 0.69323816 -6.01455112e-26)
(0.263896026 0.677539597 0)
(0.536747693 0.658952241 0)
(0.84692391 0.637764398 0)
(1.19865054 0.616477212 -8.46984927e-26)
(1.59681627 0.595771716 -4.21083814e-25)
(2.04544035 0.575651861 -3.33496938e-25)
(2.5491633 0.556442528 0)
(3.11278025 0.538283717 0)
(3.74061748 0.521290166 -2.57488654e-25)
(4.43609756 0.505739084 9.88122718e-27)
(5.20224686 0.492159985 6.73902368e-26)
(6.04174379 0.481775832 2.95507601e-25)
(6.95565722 0.476017543 3.8807728e-25)
(7.94261526 0.475872106 -3.19754037e-25)
(8.9974895 0.481858546 -1.56467593e-24)
(10.112639 0.494391809 -3.03929441e-24)
(11.2741261 0.515301842 -4.21529672e-24)
(12.4720786 0.544987269 0)
(13.6932699 0.582504282 -5.38649954e-25)
(14.9277969 0.625343723 -5.71858653e-24)
(16.1563511 0.677114382 -1.19773309e-23)
(17.3556206 0.736267738 5.91015256e-25)
(18.5239748 0.801815055 6.06364813e-25)
(19.6283625 0.853181601 -9.16676362e-24)
(20.6661078 0.92488929 7.64022623e-24)
(21.5647102 0.981653068 7.94942763e-24)
(22.452454 1.00478252 -1.74703364e-24)
(23.1413293 0.972888014 -1.4433593e-23)
(23.4872813 0.999172031 -1.46193405e-23)
(23.5246497 1.03423482 4.07194358e-26)
(23.5222506 1.03803681 -9.63310976e-24)
(23.5011342 1.02844417 -8.57681259e-24)
(23.4805238 1.0172685 0)
(23.4763035 0.892919673 -1.29977608e-23)
(23.4484277 0.833970249 -2.74931901e-23)
(23.4182157 0.841981977 2.72108699e-24)
(23.3912404 0.794474779 1.5301529e-23)
(23.3610104 0.816938439 1.71749414e-23)
(23.3314994 0.721277396 2.37771494e-23)
(-0.038307676 0.0266583989 3.30286776e-27)
(-0.116836649 0.0807050223 0)
(-0.198088054 0.135871878 0)
(-0.281245174 0.191533868 4.20850287e-30)
(-0.365401726 0.247061928 0)
(-0.449665517 0.301838563 0)
(-0.533139363 0.355289473 0)
(-0.615093396 0.40694148 1.55920472e-27)
(-0.694825529 0.456393874 0)
(-0.7717262 0.50331857 -8.95707608e-28)
(-0.845264963 0.54746247 -3.74625899e-26)
(-0.914978616 0.588639471 -1.27759373e-33)
(-0.980457771 0.626720568 3.52073612e-26)
(-1.0413336 0.661624736 0)
(-1.09726588 0.693311166 1.25752038e-27)
(-1.14793298 0.721772896 -2.71620869e-27)
(-1.19302376 0.747031622 0)
(-1.23222455 0.769130924 -3.66821819e-26)
(-1.26521387 0.788130676 -3.38619056e-27)
(-1.29166535 0.804100535 7.53689235e-26)
(-1.3112639 0.817085835 4.56438772e-26)
(-1.3236103 0.827223633 -4.19934863e-27)
(-1.32843572 0.834681628 0)
(-1.32546091 0.839730311 4.19236952e-26)
(-1.31445918 0.842638611 4.90861739e-26)
(-1.29420945 0.843237467 5.27045946e-26)
(-1.26391664 0.841467773 6.25244534e-26)
(-1.22242055 0.837337909 -6.09643892e-26)
(-1.16928171 0.831143088 -5.35377981e-26)
(-1.10373511 0.823162851 0)
(-1.02475686 0.813539787 6.8359554e-26)
(-0.931207395 0.802361259 7.66221354e-26)
(-0.821720809 0.789712314 -1.94558494e-26)
(-0.694588635 0.775662342 7.59628931e-26)
(-0.548107797 0.760264777 1.28762073e-25)
(-0.381039111 0.743246266 4.97760456e-26)
(-0.19083701 0.724938256 -2.64012287e-26)
(0.0241213237 0.707919721 5.06241638e-26)
(0.256593909 0.693119033 2.06391558e-25)
(0.531284262 0.675812636 -2.7342133e-25)
(0.842663091 0.656373553 -3.45073847e-25)
(1.19463028 0.637282463 -1.86898333e-25)
(1.59190901 0.619214583 0)
(2.03817962 0.602125868 9.16331176e-26)
(2.53765897 0.586277693 1.44942224e-25)
(3.09477628 0.571898772 1.08365282e-25)
(3.71357409 0.559262546 -2.30094727e-32)
(4.39765632 0.548959733 -2.04455122e-25)
(5.15038701 0.542067023 0)
(5.97434939 0.539750593 1.5479976e-25)
(6.8705103 0.542957686 -1.97230861e-25)
(7.8376698 0.55232012 -7.57872035e-25)
(8.87229226 0.56831074 8.30461784e-25)
(9.9677123 0.591568041 -5.32810678e-25)
(11.1148316 0.622927442 -1.87901689e-24)
(12.2978972 0.664152497 -2.167607e-24)
(13.5053379 0.714805078 -7.88060128e-24)
(14.7220128 0.772757601 -6.072747e-24)
(15.9350887 0.838826447 -6.11048456e-24)
(17.1217531 0.909935987 -7.25364291e-24)
(18.2766076 0.982969826 0)
(19.3690128 1.05391489 5.68172945e-25)
(20.3921966 1.12452025 -6.98429279e-24)
(21.3242693 1.19568002 -8.07758095e-24)
(22.1564611 1.235246 -4.90362328e-26)
(22.856709 1.27550045 0)
(23.3589931 1.28687376 1.98801276e-23)
(23.5282511 1.34874223 9.70656289e-24)
(23.5655838 1.32696624 1.83257373e-24)
(23.5673483 1.31045603 -9.03722503e-25)
(23.5275984 1.30218337 -5.80360244e-26)
(23.5007815 1.2553527 -2.92576923e-24)
(23.4867563 1.24678857 -1.2912403e-23)
(23.4697283 1.1889506 -1.38786982e-23)
(23.4542625 1.17090297 -1.2949076e-24)
(23.4404291 1.14358118 0)
(23.4408664 1.03959094 -1.47164689e-23)
(23.4464815 0.992956436 -1.33791257e-23)
(23.4555896 0.955256592 0)
(23.4501205 0.915392873 -1.96682394e-23)
(-0.0421059602 0.0269170408 -5.84431321e-27)
(-0.128385726 0.0815699466 -1.00265956e-26)
(-0.217493677 0.137403767 -1.01988095e-26)
(-0.308391316 0.193729777 3.54285661e-28)
(-0.399960074 0.249862973 1.08032583e-26)
(-0.491106334 0.305143983 8.08609983e-28)
(-0.580808767 0.358966593 -1.21622705e-26)
(-0.668076417 0.410810572 -9.85101523e-27)
(-0.752159791 0.460262732 -9.79205514e-28)
(-0.832327047 0.506998278 -2.08318291e-27)
(-0.907945234 0.550757047 7.53016312e-27)
(-0.978461562 0.59134755 2.3254506e-26)
(-1.04338237 0.628636281 1.34432185e-26)
(-1.10225278 0.662535777 9.75728202e-27)
(-1.15464498 0.692997182 -1.46389441e-27)
(-1.2001493 0.720006795 -1.09690271e-26)
(-1.2383903 0.743540631 0)
(-1.26892312 0.763706781 0)
(-1.29145251 0.780592323 -1.25389542e-27)
(-1.30567156 0.794388006 6.50384287e-27)
(-1.31127535 0.805360037 1.075377e-26)
(-1.30740542 0.813345558 1.18434276e-26)
(-1.29335902 0.818449326 -1.60571904e-33)
(-1.26833184 0.820683086 -6.72792909e-27)
(-1.23128237 0.820117554 2.28852848e-26)
(-1.18203978 0.817205694 3.71279878e-26)
(-1.11966099 0.812123799 2.40713301e-26)
(-1.04316202 0.805005024 7.64745914e-27)
(-0.95143068 0.795998294 -8.21926996e-27)
(-0.843139998 0.78527239 1.75972371e-26)
(-0.716672282 0.772972673 0)
(-0.570334429 0.759200658 -3.52375442e-26)
(-0.402839481 0.743769495 2.22422452e-26)
(-0.211881975 0.727031146 -7.23596866e-26)
(0.00404851853 0.711350467 0)
(0.238384346 0.697585792 8.84286698e-26)
(0.5139668 0.68177814 4.99888021e-26)
(0.825715706 0.664365548 0)
(1.17713628 0.647644232 0)
(1.57262073 0.632176908 -3.94701447e-26)
(2.01545597 0.61794149 -9.72225775e-28)
(2.50956262 0.605328206 -1.73423055e-25)
(3.05909853 0.594688753 0)
(3.66806365 0.586603186 2.36880479e-25)
(4.34015265 0.582053399 5.51345393e-25)
(5.07846266 0.582028382 4.33280868e-25)
(5.88521768 0.587284759 -1.33085124e-25)
(6.7612897 0.598471028 -1.40398572e-27)
(7.70592944 0.616156216 0)
(8.71654285 0.640937176 -8.69550586e-25)
(9.78835851 0.673480966 3.90102418e-25)
(10.9135904 0.71438007 1.73993904e-24)
(12.0819212 0.763972417 4.84613077e-25)
(13.2763785 0.823888473 -1.92934842e-24)
(14.4826555 0.893963078 -5.83937524e-24)
(15.6833239 0.972499172 6.20456061e-32)
(16.8640818 1.05902731 3.15327665e-24)
(18.0043297 1.14629972 0)
(19.0948523 1.23683149 0)
(20.1008766 1.32183446 5.22533264e-25)
(21.0358524 1.40687143 5.4440009e-25)
(21.8562843 1.46881065 0)
(22.6041891 1.51328409 1.24255789e-23)
(23.1572752 1.55029615 1.48690838e-23)
(23.4897679 1.56952375 -1.28880065e-23)
(23.5562641 1.61998859 -1.74710514e-23)
(23.5731887 1.61047605 -4.5318594e-24)
(23.5613924 1.5973139 -6.3408525e-24)
(23.5228102 1.61284065 -1.15271299e-23)
(23.5079313 1.55594361 -2.54389036e-24)
(23.4988628 1.50400586 1.32159976e-23)
(23.4926707 1.50242363 1.03632417e-23)
(23.4956195 1.42642911 -1.26759471e-23)
(23.4831847 1.43812161 -8.23533216e-24)
(23.4721059 1.38861518 -1.67231671e-23)
(23.4611085 1.35543491 -1.06461304e-23)
(23.4766335 1.32937609 -1.42324516e-23)
(23.5071296 1.27967828 1.92181264e-31)
(23.5352965 1.20238413 3.98190433e-23)
(23.5101414 1.2153659 2.87789698e-23)
(-0.0456249687 0.0267066254 2.33505372e-27)
(-0.138870324 0.080881538 -3.197307e-28)
(-0.234809709 0.136155136 8.09018054e-27)
(-0.332185758 0.191803189 5.67416868e-34)
(-0.429674816 0.24711413 -6.51336168e-27)
(-0.525996185 0.301415969 -4.92588712e-27)
(-0.619962433 0.354110907 -1.0200241e-26)
(-0.710515199 0.404676051 -3.71620842e-27)
(-0.796648913 0.452682905 -3.74784675e-27)
(-0.877539971 0.497790971 -1.78611029e-27)
(-0.952444081 0.539787626 3.92296863e-28)
(-1.02080192 0.57844603 2.88503711e-27)
(-1.08195728 0.613708391 3.18064105e-27)
(-1.13542132 0.645490287 4.92924108e-27)
(-1.18071305 0.673838716 -1.5351716e-27)
(-1.21731279 0.698675989 -1.65238228e-27)
(-1.24467004 0.720115245 3.79910104e-26)
(-1.26221216 0.738097073 4.44343855e-26)
(-1.2692727 0.752690906 4.13067162e-27)
(-1.2651163 0.763930131 4.41559316e-27)
(-1.24889984 0.771838042 6.30109719e-26)
(-1.22026525 0.776819781 6.80595884e-26)
(-1.17843873 0.779006 0)
(-1.12255123 0.778560465 -5.98025533e-27)
(-1.05165608 0.775642356 0)
(-0.964683207 0.770437673 0)
(-0.860373364 0.763162239 -7.45040802e-27)
(-0.73722277 0.754013401 -6.72938468e-26)
(-0.593471178 0.743162594 -8.12261094e-26)
(-0.427661797 0.730518933 9.82837636e-26)
(-0.237841251 0.716318672 1.45786733e-25)
(-0.0227442873 0.702731882 -2.12307603e-26)
(0.211884946 0.690739034 2.29668335e-26)
(0.486473593 0.677179967 0)
(0.79680374 0.662296832 -2.66742602e-26)
(1.14596808 0.648123023 0)
(1.53809029 0.635332505 0)
(1.97603508 0.624102962 -3.39586649e-26)
(2.46348544 0.61496721 0)
(3.00445868 0.608533358 0)
(3.60271738 0.605501022 2.39628156e-25)
(4.26157056 0.606651382 2.02843525e-25)
(4.98377002 0.612791267 0)
(5.77137189 0.624597786 0)
(6.6253572 0.642709758 0)
(7.54544084 0.667821296 -1.32026801e-25)
(8.52970936 0.700629673 -1.47334119e-25)
(9.57425338 0.741731854 1.44317928e-24)
(10.6727897 0.791565242 1.5925813e-24)
(11.8162729 0.850310769 1.95755083e-24)
(12.9928969 0.9178324 2.38610527e-24)
(14.1859244 0.99469249 2.88843887e-24)
(15.3791461 1.07995221 3.14921165e-24)
(16.5560282 1.17141774 0)
(17.6996617 1.26874054 0)
(18.7873887 1.36843768 -3.13618572e-24)
(19.8043213 1.47362257 -7.05942036e-24)
(20.726976 1.56862338 -3.96076514e-24)
(21.5635805 1.65894007 -3.94013824e-24)
(22.272042 1.72211576 -3.10989627e-24)
(22.9015884 1.7782924 1.34340129e-23)
(23.3491797 1.80711568 2.92919202e-23)
(23.5226713 1.84021767 5.43806935e-25)
(23.5469948 1.87748455 -7.01884148e-24)
(23.560401 1.84927623 6.36180329e-25)
(23.5566026 1.82628477 -8.37676864e-25)
(23.5266583 1.81650872 1.18637237e-23)
(23.4903175 1.80123605 -2.08658068e-31)
(23.4762659 1.73845755 -1.19243468e-23)
(23.4670475 1.71977647 -1.64271512e-24)
(23.4642773 1.68936717 1.01164357e-23)
(23.4693392 1.62411084 1.03332289e-23)
(23.4610709 1.59049778 0)
(23.4658869 1.52463549 1.35149764e-24)
(23.4714315 1.48549869 0)
(23.4762628 1.40606446 1.9238311e-23)
(23.4671581 1.43834276 2.25432604e-23)
(23.5121504 1.34761651 1.42863881e-23)
(23.5387916 1.29708021 1.39579543e-23)
(23.5316823 1.29175201 3.02041613e-23)
(-0.0487466554 0.0260243354 1.68926541e-27)
(-0.147881684 0.0786435775 5.24766289e-27)
(-0.24927361 0.132146163 2.96189245e-28)
(-0.351446193 0.185796512 -3.42938441e-27)
(-0.452874329 0.238882345 -2.01829554e-27)
(-0.552097722 0.290740418 -7.67438131e-30)
(-0.647772344 0.34078909 7.66306193e-28)
(-0.738682275 0.388560128 -4.23909349e-27)
(-0.823779152 0.433650138 -7.3555327e-27)
(-0.902105028 0.475769756 -9.94601198e-27)
(-0.972827036 0.514660971 0)
(-1.03512937 0.550239421 2.20036663e-27)
(-1.08831108 0.582318402 -1.18116031e-27)
(-1.13163098 0.610864105 0)
(-1.16437444 0.635798558 0)
(-1.18596157 0.657278316 0)
(-1.19572765 0.67532832 0)
(-1.19295028 0.690054439 1.74162393e-27)
(-1.17687717 0.701530757 0)
(-1.14662157 0.709906406 -4.68815344e-26)
(-1.10134816 0.715291442 -5.11254536e-26)
(-1.04007735 0.717856621 1.25354673e-25)
(-0.961725366 0.717797871 1.29520749e-25)
(-0.865089269 0.715332937 -1.44087915e-25)
(-0.748812594 0.71070765 -1.39913094e-25)
(-0.611195889 0.704180647 -1.4328313e-25)
(-0.45069569 0.695806962 -1.49314614e-25)
(-0.265532278 0.685563312 -1.78676159e-25)
(-0.0531716177 0.674999477 -4.55627745e-25)
(0.179927632 0.665832206 -1.58270505e-25)
(0.448731013 0.656047492 0)
(0.755616253 0.644727219 2.09959179e-26)
(1.10063235 0.633812673 2.2648246e-26)
(1.4872446 0.624582612 0)
(1.91834857 0.617335666 -2.71687815e-26)
(2.3974905 0.612553515 0)
(2.92828802 0.610818028 0)
(3.5141306 0.612825609 2.79762265e-25)
(4.15805587 0.619346223 3.73325005e-26)
(4.86260824 0.631179133 -4.25454948e-25)
(5.62981908 0.64907474 4.68036179e-25)
(6.46081284 0.673802146 6.25259524e-25)
(7.35553694 0.706112469 -5.25069911e-26)
(8.3124676 0.74668349 0)
(9.32830235 0.796054633 1.28558256e-24)
(10.3976892 0.854565071 1.27388028e-24)
(11.5129962 0.922293183 0)
(12.6641265 0.998992862 0)
(13.8380887 1.08408545 -2.29629967e-24)
(15.0185206 1.17688982 -2.63750268e-24)
(16.187419 1.27628431 3.08620901e-24)
(17.3273083 1.37990313 3.58366064e-24)
(18.420725 1.48535703 -3.40586849e-24)
(19.4502566 1.58874078 6.12726419e-32)
(20.3994383 1.68978305 4.08739584e-24)
(21.2466122 1.78096866 2.10583866e-26)
(21.9810878 1.87290454 0)
(22.5837402 1.94387478 5.43765446e-25)
(23.08797 1.99873481 -5.7800744e-24)
(23.4348205 2.04252677 5.1819662e-25)
(23.5214053 2.06421768 5.13853106e-24)
(23.5479393 2.0704571 0)
(23.5501946 2.0593041 4.86918017e-25)
(23.5336727 2.05755681 0)
(23.5050139 2.05099153 5.60100149e-25)
(23.4778421 2.03259937 -5.42889359e-25)
(23.4621145 1.99230301 -1.09514219e-24)
(23.4432715 1.96241139 -1.12105159e-23)
(23.4265536 1.94254691 -1.27484056e-23)
(23.4205386 1.89544775 -1.06492119e-24)
(23.4220237 1.83405155 -1.29751577e-23)
(23.4201652 1.78262022 -1.64820865e-23)
(23.4115085 1.76898109 -1.2091205e-23)
(23.4218142 1.73755625 -1.34596272e-23)
(23.4485724 1.63755429 -1.83202238e-23)
(23.4523964 1.60461313 -1.21218423e-23)
(23.4531511 1.57415957 1.24728041e-23)
(23.4993945 1.49908147 1.62202226e-23)
(23.5639001 1.45631778 -2.79415433e-24)
(23.5470508 1.45260257 1.91048453e-24)
(-0.051441056 0.0249205162 9.86078637e-28)
(-0.155253826 0.0750078332 -2.49946775e-27)
(-0.260503467 0.12563264 1.89175026e-28)
(-0.365492886 0.176071668 1.98178615e-34)
(-0.468495518 0.225643336 3.766986e-27)
(-0.567878106 0.273717105 2.3635253e-28)
(-0.662129534 0.319758975 1.00385594e-26)
(-0.74989498 0.363311199 -4.16840751e-34)
(-0.829955238 0.40405529 -3.46895644e-26)
(-0.901233268 0.441725097 -2.1513167e-26)
(-0.962750542 0.476147301 -6.96659101e-28)
(-1.01360787 0.507216938 -3.07568471e-26)
(-1.05295377 0.534882292 -3.7823901e-26)
(-1.079954 0.559132836 -4.26870476e-26)
(-1.09377392 0.579993275 -4.89196807e-26)
(-1.0935523 0.597539279 5.51141157e-26)
(-1.07841481 0.611820578 6.10574353e-26)
(-1.04734666 0.623012564 1.3380775e-27)
(-0.999391996 0.631238895 0)
(-0.933440602 0.63669307 -8.2586232e-26)
(-0.848292946 0.639581031 -8.7547543e-26)
(-0.742630884 0.640137599 3.7363832e-27)
(-0.614967896 0.638626858 9.94894674e-26)
(-0.463724071 0.635291667 9.71868627e-26)
(-0.286725958 0.630029791 1.01115011e-26)
(-0.0817230539 0.623764079 0)
(0.147333009 0.618349838 -5.75913202e-27)
(0.406684311 0.613004738 1.21710935e-28)
(0.707227267 0.606391489 -2.40045713e-25)
(1.04435148 0.600059107 -3.05852144e-25)
(1.42227434 0.595518603 3.08372835e-25)
(1.84391721 0.593082257 3.40322966e-25)
(2.31225374 0.593193543 4.09604475e-26)
(2.83053494 0.596514652 -3.78581457e-25)
(3.40189302 0.603798721 1.74654211e-32)
(4.02916874 0.615850509 4.31386144e-25)
(4.71475325 0.633529108 -4.54677011e-25)
(5.46059356 0.657636965 -5.52056226e-25)
(6.2678385 0.688967369 7.1239424e-26)
(7.13659385 0.728273524 -3.8808922e-26)
(8.06565988 0.776222407 -4.39319157e-26)
(9.05227105 0.83334037 -1.05535401e-24)
(10.0918526 0.899958834 -2.57540631e-24)
(11.1778034 0.976155375 -1.50656248e-24)
(12.301316 1.0617019 -1.66260688e-24)
(13.4512137 1.1560144 -2.13099697e-24)
(14.6138106 1.25811029 0)
(15.7730137 1.36649156 3.11911562e-24)
(16.9090582 1.4800455 3.36390347e-24)
(18.0040358 1.59573522 3.63032745e-24)
(19.0408471 1.71065074 7.60439468e-24)
(20.0013312 1.82122975 7.92436449e-24)
(20.8697676 1.92556784 8.45813408e-24)
(21.6328945 2.01758335 9.08195711e-24)
(22.2804307 2.09681792 4.77465104e-24)
(22.8061411 2.15261389 -7.0368256e-25)
(23.2033089 2.19799146 0)
(23.479058 2.23547821 -5.23312384e-24)
(23.5600884 2.24952864 -4.50760764e-24)
(23.5590264 2.25969446 0)
(23.5336266 2.27137281 -5.73255632e-24)
(23.4984183 2.28981124 -6.34816559e-24)
(23.4821693 2.26104412 0)
(23.4761361 2.20838645 -5.94083634e-25)
(23.4564488 2.18424396 0)
(23.4376188 2.14405704 -1.33266906e-23)
(23.4139357 2.12433611 -1.63161126e-24)
(23.4046564 2.0795595 1.47330534e-23)
(23.3986417 2.05990451 -8.43886735e-25)
(23.4012906 2.02615988 -7.21657803e-25)
(23.4143806 1.98006004 -1.26104766e-23)
(23.4209375 1.95992271 -1.19348966e-23)
(23.4282572 1.94320967 -8.52818392e-25)
(23.4458702 1.89855803 -9.70827578e-25)
(23.4511787 1.92214913 -5.28949444e-26)
(23.4768384 1.87737605 -1.18657493e-24)
(23.5345136 1.85337041 1.68875177e-23)
(23.5993573 1.81938543 3.20163103e-23)
(23.695122 1.77707178 1.70716809e-23)
(23.6655195 1.75777278 -2.20923814e-24)
(-0.0536259987 0.0234297178 0)
(-0.16061845 0.0701079047 1.85518205e-30)
(-0.267718665 0.11688728 -4.66274712e-30)
(-0.373004598 0.163084413 -6.53373052e-27)
(-0.474551417 0.20805499 -1.34631808e-29)
(-0.570537319 0.251239645 -1.94908878e-29)
(-0.659295944 0.292160998 -1.85313185e-26)
(-0.739322506 0.330445734 0)
(-0.809266693 0.365817998 -1.12175071e-28)
(-0.867910379 0.398090781 -3.50922314e-26)
(-0.914135992 0.427154339 -4.17134492e-26)
(-0.946893276 0.452964264 4.84550587e-26)
(-0.965167078 0.475532784 -2.31311586e-28)
(-0.967938533 0.49493325 -1.27396003e-25)
(-0.954188835 0.511210346 -1.41918481e-25)
(-0.922779364 0.52455502 -7.95925849e-26)
(-0.872629063 0.535095813 4.71158937e-28)
(-0.802514979 0.543044291 -9.63614112e-26)
(-0.71111639 0.548625553 -1.05780513e-25)
(-0.596985542 0.552103447 -8.09364754e-28)
(-0.458564585 0.553772675 8.75756142e-28)
(-0.294318258 0.553782832 4.17290329e-27)
(-0.102296288 0.552474862 -1.54235352e-25)
(0.120069784 0.55118931 -3.21142234e-25)
(0.367700621 0.550374591 -1.4178904e-25)
(0.656851466 0.548927165 3.2818493e-27)
(0.98265527 0.547604699 -1.91285688e-25)
(1.34858599 0.548033985 -4.37351065e-27)
(1.75744704 0.550676196 4.99621198e-27)
(2.21190083 0.55596841 -2.08419233e-25)
(2.7149231 0.56463284 0)
(3.26938722 0.577433187 -4.57487357e-25)
(3.87790851 0.59517873 1.58035373e-26)
(4.5427248 0.618729937 5.30505589e-25)
(5.2656714 0.648904972 5.85158749e-25)
(6.04790649 0.68649999 6.53130811e-25)
(6.88968381 0.732269117 2.53501244e-26)
(7.79011744 0.786885409 0)
(8.74693869 0.850889247 6.36031906e-26)
(9.75626211 0.924637543 -1.16760035e-24)
(10.8123739 1.0082498 -1.36023813e-24)