/*--------------------------------*- C++ -*----------------------------------*\
  =========                 |
  \\      /  F ield         | OpenFOAM: The Open Source CFD Toolbox
   \\    /   O peration     | Website:  https://openfoam.org
    \\  /    A nd           | Version:  8
     \\/     M anipulation  |
\*---------------------------------------------------------------------------*/
FoamFile
{
    version     2.0;
    format      ascii;
    class       volScalarField;
    location    "0.072";
    object      p_rgh;
}
// * * * * * * * * * * * * * * * * * * * * * * * * * * * * * * * * * * * * * //

dimensions      [1 -1 -2 0 0 0 0];

internalField   nonuniform List<scalar> 
42400
(
101587.738
101587.727
101587.715
101587.705
101587.697
101587.689
101587.683
101587.678
101587.674
101587.671
101587.67
101587.67
101587.672
101587.675
101587.68
101587.686
101587.693
101587.702
101587.713
101587.725
101587.739
101587.754
101587.771
101587.79
101587.81
101587.833
101587.856
101587.882
101587.909
101587.938
101587.969
101588.002
101588.037
101588.074
101588.114
101588.155
101588.205
101588.266
101588.332
101588.398
101588.453
101588.503
101588.555
101588.614
101588.687
101588.774
101588.868
101588.97
101589.077
101589.188
101589.319
101589.47
101589.638
101589.807
101589.973
101590.17
101590.395
101590.646
101590.913
101591.202
101591.518
101591.861
101592.237
101592.644
101593.079
101593.54
101594.007
101594.575
101595.218
101595.573
101596.231
101598.211
101598.415
101597.755
101599.006
101601.205
101603.606
101602.433
101604.102
101603.938
101587.36
101587.351
101587.342
101587.334
101587.328
101587.322
101587.317
101587.314
101587.311
101587.31
101587.31
101587.311
101587.314
101587.318
101587.323
101587.329
101587.337
101587.346
101587.357
101587.369
101587.382
101587.397
101587.413
101587.431
101587.45
101587.471
101587.493
101587.517
101587.542
101587.568
101587.597
101587.626
101587.657
101587.694
101587.739
101587.787
101587.834
101587.87
101587.902
101587.935
101587.98
101588.038
101588.099
101588.165
101588.233
101588.305
101588.378
101588.468
101588.581
101588.69
101588.787
101588.902
101589.045
101589.21
101589.387
101589.581
101589.797
101590.038
101590.311
101590.621
101590.965
101591.343
101591.756
101592.213
101592.721
101593.3
101593.879
101594.542
101595.46
101596.161
101596.746
101598.599
101599.866
101600.821
101603.093
101604.581
101605.694
101608.789
101611.842
101615.055
101586.835
101586.828
101586.821
101586.816
101586.811
101586.807
101586.804
101586.803
101586.802
101586.802
101586.803
101586.806
101586.809
101586.814
101586.82
101586.828
101586.836
101586.846
101586.858
101586.87
101586.884
101586.9
101586.916
101586.935
101586.954
101586.975
101586.997
101587.021
101587.045
101587.073
101587.104
101587.139
101587.177
101587.212
101587.24
101587.266
101587.294
101587.33
101587.375
101587.421
101587.47
101587.519
101587.571
101587.628
101587.701
101587.789
101587.865
101587.927
101588.013
101588.119
101588.234
101588.358
101588.496
101588.652
101588.831
101589.04
101589.28
101589.553
101589.863
101590.215
101590.617
101591.077
101591.604
101592.198
101592.854
101593.611
101594.399
101595.245
101596.282
101597.358
101598.103
101599.466
101602.133
101605.4
101607.687
101609.616
101612.166
101614.24
101616.317
101617.619
101586.189
101586.185
101586.18
101586.175
101586.172
101586.17
101586.168
101586.168
101586.169
101586.17
101586.173
101586.177
101586.182
101586.188
101586.196
101586.205
101586.215
101586.227
101586.24
101586.255
101586.271
101586.288
101586.307
101586.328
101586.349
101586.372
101586.398
101586.425
101586.456
101586.486
101586.514
101586.542
101586.571
101586.602
101586.639
101586.679
101586.72
101586.763
101586.807
101586.851
101586.898
101586.958
101587.033
101587.087
101587.128
101587.196
101587.281
101587.366
101587.457
101587.558
101587.672
101587.805
101587.958
101588.134
101588.337
101588.573
101588.852
101589.18
101589.564
101590.013
101590.538
101591.142
101591.832
101592.618
101593.492
101594.492
101595.525
101596.71
101597.854
101599.473
101602.581
101605.104
101606.496
101608.312
101609.885
101611.629
101613.783
101615.805
101617.118
101618.668
101585.443
101585.439
101585.434
101585.431
101585.429
101585.427
101585.427
101585.427
101585.428
101585.431
101585.435
101585.44
101585.447
101585.455
101585.464
101585.475
101585.488
101585.502
101585.518
101585.535
101585.553
101585.573
101585.594
101585.618
101585.644
101585.671
101585.7
101585.731
101585.762
101585.795
101585.831
101585.869
101585.909
101585.95
101585.992
101586.035
101586.078
101586.123
101586.179
101586.249
101586.299
101586.336
101586.396
101586.468
101586.538
101586.61
101586.692
101586.783
101586.885
101587
101587.131
101587.282
101587.46
101587.67
101587.922
101588.223
101588.579
101589.004
101589.505
101590.095
101590.785
101591.588
101592.499
101593.555
101594.721
101596.097
101597.572
101599.229
101601.833
101603.431
101604.492
101606.247
101607.985
101609.815
101611.589
101613.367
101615.565
101617.307
101619.08
101620.617
101584.587
101584.583
101584.579
101584.576
101584.574
101584.573
101584.573
101584.574
101584.577
101584.58
101584.585
101584.592
101584.6
101584.61
101584.622
101584.636
101584.65
101584.666
101584.684
101584.705
101584.728
101584.755
101584.783
101584.813
101584.845
101584.879
101584.915
101584.952
101584.991
101585.032
101585.075
101585.12
101585.166
101585.212
101585.257
101585.314
101585.384
101585.432
101585.471
101585.531
101585.602
101585.668
101585.738
101585.813
101585.894
101585.983
101586.08
101586.19
101586.315
101586.46
101586.629
101586.829
101587.067
101587.35
101587.686
101588.083
101588.55
101589.1
101589.744
101590.497
101591.358
101592.352
101593.439
101594.704
101596.035
101597.535
101599.62
101601.335
101602.712
101604.641
101606.391
101607.902
101609.603
101611.555
101613.472
101615.271
101617.322
101619.459
101621.371
101623.252
101583.616
101583.611
101583.607
101583.604
101583.602
101583.602
101583.602
101583.605
101583.608
101583.613
101583.62
101583.628
101583.637
101583.649
101583.663
101583.68
101583.699
101583.721
101583.745
101583.771
101583.799
101583.829
101583.862
101583.897
101583.934
101583.974
101584.015
101584.06
101584.106
101584.155
101584.204
101584.253
101584.312
101584.383
101584.439
101584.486
101584.55
101584.623
101584.692
101584.764
101584.84
101584.921
101585.008
101585.103
101585.208
101585.326
101585.46
101585.614
101585.793
101586.002
101586.248
101586.539
101586.881
101587.28
101587.742
101588.278
101588.896
101589.602
101590.414
101591.338
101592.362
101593.454
101594.52
101596.021
101598.415
101600.057
101601.052
101602.757
101604.657
101606.514
101608.359
101610.312
101612.323
101614.371
101616.388
101618.226
101619.96
101621.651
101623.065
101624.447
101582.492
101582.488
101582.484
101582.482
101582.481
101582.481
101582.483
101582.486
101582.492
101582.499
101582.508
101582.52
101582.534
101582.55
101582.568
101582.588
101582.611
101582.637
101582.665
101582.695
101582.729
101582.765
101582.804
101582.845
101582.89
101582.937
101582.986
101583.036
101583.088
101583.149
101583.22
101583.279
101583.331
101583.399
101583.475
101583.549
101583.626
101583.706
101583.792
101583.883
101583.982
101584.089
101584.208
101584.34
101584.491
101584.662
101584.861
101585.092
101585.363
101585.681
101586.052
101586.483
101586.981
101587.553
101588.204
101588.943
101589.782
101590.692
101591.704
101592.819
101594.149
101595.856
101598.111
101599.697
101600.634
101602.208
101604.363
101606.221
101607.871
101609.636
101611.143
101612.478
101613.772
101615.44
101617.712
101619.679
101621.142
101622.732
101624.533
101625.98
101581.202
101581.198
101581.196
101581.194
101581.195
101581.197
101581.201
101581.207
101581.215
101581.226
101581.238
101581.253
101581.27
101581.29
101581.312
101581.337
101581.365
101581.396
101581.43
101581.467
101581.507
101581.549
101581.595
101581.644
101581.693
101581.747
101581.812
101581.881
101581.938
101581.995
101582.065
101582.143
101582.219
101582.299
101582.383
101582.472
101582.567
101582.668
101582.777
101582.897
101583.029
101583.176
101583.343
101583.533
101583.753
101584.007
101584.303
101584.649
101585.052
101585.518
101586.055
101586.669
101587.367
101588.153
101589.024
101589.978
101591.048
101592.149
101593.354
101595.191
101597.338
101599.059
101600.121
101601.26
101602.786
101604.34
101606.113
101607.544
101608.749
101610.146
101611.944
101613.865
101615.412
101617.142
101619.646
101621.642
101623.308
101625.34
101627.656
101630.088
101579.71
101579.708
101579.708
101579.709
101579.712
101579.718
101579.725
101579.735
101579.747
101579.761
101579.778
101579.798
101579.82
101579.845
101579.874
101579.905
101579.939
101579.977
101580.018
101580.062
101580.109
101580.158
101580.212
101580.276
101580.339
101580.397
101580.461
101580.534
101580.611
101580.689
101580.771
101580.856
101580.947
101581.043
101581.145
101581.255
101581.374
101581.504
101581.648
101581.808
101581.989
101582.195
101582.432
101582.705
101583.022
101583.39
101583.818
101584.313
101584.883
101585.536
101586.281
101587.127
101588.08
101589.142
101590.315
101591.595
101592.985
101594.489
101596.072
101597.457
101598.419
101599.3
101600.463
101601.962
101603.644
101605.823
101607.426
101608.64
101610.403
101612.326
101614.127
101616.1
101618.355
101620.045
101621.562
101623.847
101626.428
101628.722
101631.06
101632.657
101577.994
101577.996
101577.999
101578.005
101578.012
101578.022
101578.034
101578.049
101578.066
101578.086
101578.109
101578.135
101578.165
101578.197
101578.233
101578.272
101578.315
101578.361
101578.41
101578.463
101578.525
101578.585
101578.644
101578.711
101578.785
101578.861
101578.941
101579.024
101579.111
101579.204
101579.301
101579.405
101579.515
101579.634
101579.762
101579.903
101580.058
101580.231
101580.426
101580.647
101580.9
101581.189
101581.523
101581.907
101582.35
101582.859
101583.439
101584.095
101584.833
101585.658
101586.576
101587.598
101588.731
101589.942
101591.226
101592.583
101593.963
101595.359
101597.038
101598.478
101599.923
101601.592
101603.134
101604.676
101606.11
101607.647
101609.277
101611.171
101612.898
101614.613
101616.757
101618.796
101621
101623.583
101625.747
101627.567
101629.11
101630.588
101632.279
101634.247
101576.021
101576.028
101576.036
101576.047
101576.061
101576.076
101576.095
101576.117
101576.142
101576.169
101576.201
101576.236
101576.274
101576.316
101576.361
101576.41
101576.463
101576.524
101576.585
101576.646
101576.714
101576.789
101576.866
101576.946
101577.031
101577.121
101577.215
101577.314
101577.42
101577.532
101577.652
101577.78
101577.92
101578.073
101578.243
101578.431
101578.643
101578.883
101579.156
101579.468
101579.825
101580.234
101580.702
101581.234
101581.837
101582.512
101583.261
101584.08
101584.971
101585.913
101586.871
101587.847
101589.089
101590.725
101592.488
101594.222
101595.838
101597.619
101599.229
101600.615
101601.687
101602.889
101604.498
101605.945
101607.58
101609.234
101610.91
101613.169
101615.353
101617.385
101619.58
101621.71
101623.754
101625.262
101626.677
101628.652
101631.05
101633.416
101635.509
101637.526
101573.761
101573.773
101573.789
101573.807
101573.828
101573.852
101573.879
101573.909
101573.944
101573.981
101574.022
101574.067
101574.116
101574.17
101574.23
101574.291
101574.354
101574.424
101574.499
101574.578
101574.66
101574.747
101574.839
101574.935
101575.037
101575.145
101575.259
101575.381
101575.511
101575.651
101575.803
101575.971
101576.155
101576.361
101576.593
101576.855
101577.152
101577.492
101577.88
101578.323
101578.828
101579.402
101580.052
101580.782
101581.599
101582.506
101583.509
101584.609
101585.83
101587.168
101588.586
101590.303
101592.037
101593.323
101594.451
101595.755
101597.141
101598.423
101599.575
101600.827
101602.485
101604.151
101605.747
101607.73
101609.88
101612.002
101614.216
101616.141
101617.876
101619.503
101621.248
101622.925
101624.708
101626.919
101628.883
101630.559
101632.239
101634.423
101636.662
101638.66
101571.171
101571.191
101571.216
101571.243
101571.273
101571.307
101571.344
101571.386
101571.431
101571.48
101571.535
101571.593
101571.654
101571.72
101571.791
101571.867
101571.947
101572.032
101572.121
101572.215
101572.314
101572.418
101572.528
101572.645
101572.768
101572.899
101573.04
101573.191
101573.356
101573.537
101573.736
101573.958
101574.207
101574.488
101574.806
101575.168
101575.581
101576.05
101576.583
101577.186
101577.866
101578.629
101579.478
101580.418
101581.448
101582.569
101583.776
101585.053
101586.409
101587.788
101589.244
101590.725
101591.993
101593.154
101594.59
101596.184
101597.77
101599.451
101601.141
101602.847
101604.596
101606.432
101608.589
101610.439
101611.97
101613.457
101614.86
101616.524
101618.572
101620.378
101622.271
101624.417
101626.479
101628.469
101630.607
101632.743
101634.48
101636.21
101637.97
101639.765
101568.219
101568.249
101568.285
101568.323
101568.365
101568.411
101568.461
101568.515
101568.573
101568.636
101568.703
101568.775
101568.852
101568.934
101569.02
101569.111
101569.207
101569.309
101569.415
101569.527
101569.646
101569.771
101569.903
101570.045
101570.196
101570.359
101570.535
101570.728
101570.941
101571.177
101571.441
101571.737
101572.071
101572.448
101572.875
101573.357
101573.901
101574.512
101575.195
101575.954
101576.793
101577.714
101578.717
101579.805
101580.975
101582.219
101583.548
101584.943
101586.365
101587.831
101589.31
101590.676
101592.16
101593.832
101595.54
101597.113
101598.488
101599.967
101601.681
101603.304
101604.971
101607.2
101609.266
101611.146
101613.121
101614.992
101616.779
101618.588
101620.244
101622.088
101624.289
101626.54
101628.829
101631.039
101633.331
101635.977
101637.515
101638.527
101640.395
101642.899
101564.873
101564.914
101564.963
101565.015
101565.07
101565.13
101565.194
101565.263
101565.336
101565.414
101565.497
101565.586
101565.679
101565.777
101565.881
101565.99
101566.106
101566.227
101566.355
101566.491
101566.635
101566.789
101566.953
101567.131
101567.323
101567.534
101567.766
101568.024
101568.311
101568.632
101568.993
101569.4
101569.858
101570.373
101570.951
101571.596
101572.313
101573.104
101573.972
101574.915
101575.931
101577.014
101578.142
101579.308
101580.502
101581.857
101583.566
101585.443
101587.156
101588.894
101590.8
101592.738
101594.39
101595.82
101597.28
101598.875
101600.442
101602.054
101604.109
101606.508
101608.837
101610.292
101611.486
101613.024
101614.826
101617.167
101619.493
101621.399
101623.27
101625.272
101627.426
101629.609
101631.632
101633.726
101635.756
101637.556
101639.407
101641.35
101643.913
101647.026
101561.125
101561.179
101561.244
101561.311
101561.382
101561.457
101561.537
101561.621
101561.711
101561.806
101561.907
101562.013
101562.125
101562.242
101562.367
101562.498
101562.637
101562.784
101562.941
101563.109
101563.289
101563.484
101563.697
101563.93
101564.187
101564.472
101564.791
101565.147
101565.548
101565.998
101566.504
101567.073
101567.71
101568.42
101569.209
101570.08
101571.035
101572.077
101573.205
101574.419
101575.72
101577.102
101578.543
101580.218
101582.375
101584.716
101586.491
101587.722
101588.884
101590.1
101591.337
101592.47
101594.005
101596.226
101598.413
101600.546
101602.825
101605.039
101606.603
101607.912
101609.53
101611.573
101613.952
101616.351
101618.446
101620.109
101621.843
101623.361
101624.987
101627.274
101629.714
101631.951
101634.165
101635.885
101637.419
101639.567
101641.593
101643.341
101646.2
101649.182
101556.974
101557.044
101557.125
101557.208
101557.295
101557.386
101557.482
101557.584
101557.691
101557.803
101557.922
101558.047
101558.178
101558.318
101558.465
101558.621
101558.788
101558.967
101559.16
101559.369
101559.598
101559.849
101560.126
101560.434
101560.779
101561.165
101561.598
101562.086
101562.635
101563.251
101563.941
101564.711
101565.567
101566.512
101567.552
101568.687
101569.919
101571.248
101572.672
101574.188
101575.792
101577.471
101579.218
101580.839
101582.171
101583.372
101584.816
101586.584
101588.326
101590.125
101592.017
101593.886
101595.765
101597.721
101599.738
101601.816
101603.848
101605.78
101607.65
101609.554
101611.803
101614.159
101616.173
101617.75
101619.259
101621.069
101623.306
101626.399
101628.859
101630.252
101631.614
101633.136
101634.985
101637.509
101640.365
101642.494
101644.71
101646.441
101647.966
101650.372
101552.477
101552.562
101552.661
101552.76
101552.863
101552.97
101553.081
101553.199
101553.321
101553.45
101553.585
101553.728
101553.878
101554.038
101554.209
101554.392
101554.589
101554.803
101555.036
101555.293
101555.577
101555.892
101556.245
101556.639
101557.082
101557.579
101558.137
101558.762
101559.459
101560.234
101561.091
101562.034
101563.064
101564.182
101565.385
101566.673
101568.038
101569.474
101570.974
101572.531
101574.13
101575.782
101577.472
101579.285
101581.455
101583.568
101585.413
101587.296
101589.196
101591.085
101592.959
101594.856
101596.865
101599.225
101601.755
101604.023
101605.877
101607.525
101609.615
101611.877
101613.739
101615.637
101617.445
101619.424
101621.826
101624.145
101626.104
101627.768
101629.632
101631.942
101634.495
101636.915
101639.068
101641.029
101643.04
101645.155
101647.041
101648.895
101650.901
101652.659
101547.718
101547.819
101547.935
101548.05
101548.167
101548.289
101548.416
101548.548
101548.686
101548.831
101548.984
101549.145
101549.318
101549.503
101549.702
101549.919
101550.156
101550.417
101550.706
101551.028
101551.388
101551.791
101552.245
101552.755
101553.328
101553.969
101554.686
101555.483
101556.365
101557.336
101558.398
101559.553
101560.799
101562.135
101563.561
101565.073
101566.664
101568.327
101570.06
101571.846
101573.599
101575.72
101578.469
101581.278
101583.164
101584.718
101586.629
101588.566
101590.48
101592.422
101594.767
101597.546
101600.055
101601.544
101602.833
101604.367
101606.393
101609.342
101611.984
101613.774
101615.271
101617.003
101618.756
101620.965
101623.41
101625.605
101627.858
101630.375
101633.038
101635.699
101638.088
101640.358
101642.51
101644.296
101646.078
101647.914
101649.661
101650.93
101652.812
101655.388
101577.819
101577.824
101577.827
101577.829
101577.828
101577.825
101577.82
101577.813
101577.804
101577.792
101577.778
101577.762
101577.743
101577.721
101577.697
101577.67
101577.639
101577.606
101577.57
101577.53
101577.487
101577.44
101577.389
101577.335
101577.276
101577.212
101577.145
101577.072
101576.994
101576.912
101576.823
101576.729
101576.629
101576.522
101576.409
101576.289
101576.161
101576.026
101575.883
101575.731
101575.571
101575.402
101575.224
101575.035
101574.835
101574.624
101574.401
101574.165
101573.914
101573.648
101573.365
101573.065
101572.744
101572.402
101572.037
101571.644
101571.222
101570.765
101570.268
101569.724
101569.124
101568.457
101567.711
101566.872
101565.93
101564.879
101563.712
101562.422
101560.993
101559.409
101557.689
101555.896
101553.95
101551.738
101549.327
101546.741
101543.919
101540.846
101537.5
101534.007
101577.011
101577.016
101577.02
101577.022
101577.022
101577.02
101577.015
101577.009
101576.999
101576.988
101576.974
101576.957
101576.938
101576.915
101576.89
101576.862
101576.831
101576.797
101576.759
101576.718
101576.673
101576.624
101576.572
101576.515
101576.453
101576.387
101576.317
101576.241
101576.16
101576.073
101575.98
101575.882
101575.777
101575.665
101575.546
101575.42
101575.287
101575.145
101574.994
101574.835
101574.667
101574.489
101574.301
101574.102
101573.892
101573.67
101573.436
101573.188
101572.925
101572.645
101572.348
101572.032
101571.695
101571.334
101570.946
101570.528
101570.075
101569.582
101569.041
101568.446
101567.785
101567.048
101566.221
101565.29
101564.242
101563.069
101561.757
101560.288
101558.826
101557.364
101555.584
101553.411
101551.05
101548.524
101545.832
101542.896
101539.495
101535.543
101531.233
101527.367
101576.523
101576.529
101576.535
101576.537
101576.538
101576.537
101576.533
101576.527
101576.519
101576.508
101576.495
101576.479
101576.46
101576.439
101576.415
101576.387
101576.357
101576.324
101576.287
101576.246
101576.202
101576.154
101576.102
101576.046
101575.986
101575.921
101575.851
101575.776
101575.695
101575.609
101575.518
101575.42
101575.316
101575.205
101575.086
101574.961
101574.828
101574.686
101574.536
101574.377
101574.208
101574.03
101573.841
101573.642
101573.431
101573.207
101572.969
101572.713
101572.443
101572.159
101571.855
101571.531
101571.185
101570.813
101570.414
101569.984
101569.518
101569.011
101568.454
101567.839
101567.154
101566.389
101565.529
101564.555
101563.453
101562.175
101560.7
101559.189
101557.51
101555.468
101553.367
101551.185
101548.789
101546.265
101543.611
101540.84
101537.791
101534.342
101529.986
101525.017
101576.329
101576.335
101576.342
101576.345
101576.347
101576.347
101576.344
101576.339
101576.332
101576.323
101576.311
101576.297
101576.28
101576.26
101576.238
101576.212
101576.184
101576.153
101576.118
101576.08
101576.038
101575.993
101575.944
101575.891
101575.833
101575.771
101575.704
101575.633
101575.556
101575.474
101575.387
101575.293
101575.194
101575.088
101574.975
101574.855
101574.728
101574.593
101574.45
101574.299
101574.139
101573.97
101573.792
101573.604
101573.405
101573.196
101572.975
101572.741
101572.491
101572.225
101571.94
101571.637
101571.317
101570.973
101570.6
101570.193
101569.747
101569.256
101568.711
101568.106
101567.427
101566.661
101565.792
101564.794
101563.798
101562.824
101561.774
101560.493
101558.646
101556.342
101553.913
101551.385
101548.484
101545.025
101542.056
101539.275
101535.67
101532.146
101528.7
101524.689
101576.443
101576.451
101576.457
101576.462
101576.465
101576.466
101576.465
101576.462
101576.457
101576.449
101576.44
101576.428
101576.413
101576.396
101576.377
101576.355
101576.33
101576.302
101576.272
101576.238
101576.201
101576.16
101576.116
101576.068
101576.016
101575.96
101575.9
101575.835
101575.765
101575.691
101575.611
101575.525
101575.434
101575.337
101575.234
101575.124
101575.006
101574.882
101574.75
101574.61
101574.462
101574.305
101574.139
101573.963
101573.777
101573.581
101573.374
101573.155
101572.921
101572.672
101572.403
101572.114
101571.812
101571.494
101571.153
101570.785
101570.388
101569.955
101569.476
101568.94
101568.339
101567.658
101566.882
101566
101564.855
101563.435
101561.802
101560.101
101558.448
101556.728
101554.945
101553.055
101550.796
101547.999
101544.217
101540.316
101536.897
101533.025
101528.418
101522.77
101576.812
101576.82
101576.828
101576.833
101576.837
101576.84
101576.84
101576.839
101576.836
101576.831
101576.824
101576.815
101576.804
101576.79
101576.775
101576.757
101576.736
101576.713
101576.688
101576.659
101576.628
101576.594
101576.556
101576.515
101576.471
101576.423
101576.371
101576.316
101576.256
101576.192
101576.123
101576.05
101575.971
101575.888
101575.799
101575.704
101575.603
101575.497
101575.384
101575.264
101575.138
101575.004
101574.863
101574.714
101574.557
101574.391
101574.217
101574.032
101573.836
101573.627
101573.404
101573.164
101572.905
101572.626
101572.324
101571.996
101571.638
101571.246
101570.816
101570.339
101569.804
101569.197
101568.503
101567.709
101566.805
101565.756
101564.543
101563.066
101561.31
101559.279
101556.904
101554.238
101551.664
101549.22
101546.886
101544.155
101540.125
101534.441
101528.896
101524.606
101577.431
101577.439
101577.448
101577.454
101577.459
101577.463
101577.465
101577.466
101577.465
101577.463
101577.459
101577.453
101577.446
101577.436
101577.425
101577.412
101577.396
101577.379
101577.359
101577.337
101577.313
101577.286
101577.256
101577.224
101577.188
101577.15
101577.108
101577.064
101577.015
101576.964
101576.908
101576.848
101576.785
101576.717
101576.644
101576.567
101576.486
101576.399
101576.307
101576.209
101576.106
101575.997
101575.883
101575.762
101575.634
101575.5
101575.358
101575.209
101575.052
101574.885
101574.707
101574.517
101574.315
101574.098
101573.863
101573.609
101573.329
101573.02
101572.675
101572.288
101571.847
101571.342
101570.759
101570.085
101569.302
101568.393
101567.337
101566.114
101564.675
101562.988
101561.023
101558.811
101556.232
101553.23
101549.462
101545.694
101542.043
101538.159
101533.542
101528.222
101578.234
101578.242
101578.251
101578.258
101578.264
101578.269
101578.273
101578.276
101578.278
101578.278
101578.277
101578.275
101578.271
101578.266
101578.259
101578.25
101578.241
101578.229
101578.216
101578.2
101578.183
101578.164
101578.143
101578.12
101578.095
101578.067
101578.037
101578.004
101577.969
101577.93
101577.89
101577.846
101577.799
101577.749
101577.696
101577.639
101577.579
101577.516
101577.449
101577.378
101577.304
101577.226
101577.145
101577.059
101576.969
101576.876
101576.778
101576.676
101576.569
101576.456
101576.337
101576.209
101576.073
101575.926
101575.766
101575.592
101575.4
101575.186
101574.945
101574.672
101574.357
101573.991
101573.562
101573.054
101572.45
101571.73
101570.868
101569.842
101568.629
101567.203
101565.538
101563.625
101561.45
101558.943
101556.065
101552.367
101548.031
101543.539
101538.724
101534.118
101579.199
101579.207
101579.216
101579.224
101579.23
101579.236
101579.242
101579.246
101579.25
101579.252
101579.254
101579.255
101579.255
101579.253
101579.251
101579.247
101579.243
101579.237
101579.23
101579.221
101579.211
101579.2
101579.188
101579.174
101579.158
101579.141
101579.122
101579.102
101579.079
101579.055
101579.029
101579.002
101578.972
101578.941
101578.907
101578.872
101578.835
101578.796
101578.755
101578.713
101578.669
101578.623
101578.576
101578.528
101578.479
101578.428
101578.377
101578.325
101578.273
101578.219
101578.164
101578.107
101578.046
101577.981
101577.911
101577.832
101577.743
101577.641
101577.521
101577.379
101577.207
101576.996
101576.738
101576.417
101576.019
101575.523
101574.908
101574.148
101573.213
101572.075
101570.699
101569.058
101567.137
101564.909
101562.349
101559.416
101555.938
101551.978
101547.261
101541.999
101580.263
101580.271
101580.279
101580.286
101580.293
101580.3
101580.306
101580.312
101580.317
101580.322
101580.326
101580.329
101580.332
101580.334
101580.336
101580.336
101580.337
101580.336
101580.335
101580.332
101580.33
101580.326
101580.321
101580.316
101580.31
101580.303
101580.295
101580.286
101580.277
101580.266
101580.255
101580.243
101580.23
101580.217
101580.203
101580.188
101580.173
101580.158
101580.143
101580.129
101580.115
101580.101
101580.089
101580.078
101580.069
101580.062
101580.058
101580.057
101580.059
101580.065
101580.074
101580.088
101580.104
101580.123
101580.142
101580.162
101580.181
101580.195
101580.201
101580.196
101580.173
101580.126
101580.045
101579.92
101579.737
101579.479
101579.127
101578.658
101578.044
101577.255
101576.257
101575.024
101573.531
101571.744
101569.622
101567.133
101564.206
101560.969
101556.976
101552.869
101581.395
101581.401
101581.408
101581.415
101581.422
101581.429
101581.435
101581.441
101581.447
101581.453
101581.459
101581.464
101581.469
101581.474
101581.479
101581.483
101581.487
101581.491
101581.495
101581.498
101581.501
101581.504
101581.506
101581.508
101581.51
101581.513
101581.514
101581.516
101581.518
101581.519
101581.521
101581.523
101581.526
101581.529
101581.533
101581.537
101581.543
101581.55
101581.559
101581.571
101581.584
101581.601
101581.621
101581.645
101581.674
101581.708
101581.748
101581.795
101581.849
101581.91
101581.981
101582.06
101582.148
101582.246
101582.352
101582.466
101582.586
101582.711
101582.839
101582.966
101583.088
101583.198
101583.291
101583.355
101583.381
101583.354
101583.257
101583.072
101582.774
101582.336
101581.731
101580.937
101579.924
101578.655
101577.081
101575.174
101572.841
101570.121
101566.812
101562.835
101582.544
101582.548
101582.554
101582.559
101582.565
101582.571
101582.577
101582.583
101582.59
101582.596
101582.602
101582.609
101582.615
101582.622
101582.629
101582.636
101582.643
101582.65
101582.658
101582.665
101582.673
101582.681
101582.689
101582.698
101582.707
101582.716
101582.726
101582.737
101582.748
101582.761
101582.774
101582.789
101582.805
101582.822
101582.842
101582.863
101582.887
101582.914
101582.944
101582.977
101583.015
101583.058
101583.107
101583.162
101583.224
101583.294
101583.374
101583.463
101583.564
101583.676
101583.801
101583.939
101584.092
101584.26
101584.443
101584.641
101584.854
101585.08
101585.318
101585.564
101585.817
101586.071
101586.32
101586.556
101586.771
101586.952
101587.086
101587.155
101587.141
101587.02
101586.765
101586.364
101585.796
101585.027
101584.018
101582.726
101581.096
101579.076
101576.57
101573.31
101583.67
101583.673
101583.676
101583.68
101583.684
101583.688
101583.693
101583.698
101583.703
101583.709
101583.715
101583.722
101583.729
101583.737
101583.745
101583.753
101583.762
101583.772
101583.782
101583.793
101583.805
101583.817
101583.83
101583.844
101583.859
101583.875
101583.892
101583.91
101583.93
101583.952
101583.975
101584
101584.027
101584.057
101584.088
101584.123
101584.161
101584.204
101584.252
101584.306
101584.366
101584.433
101584.506
101584.588
101584.678
101584.779
101584.89
101585.014
101585.152
101585.305
101585.475
101585.663
101585.869
101586.096
101586.343
101586.611
101586.9
101587.21
101587.539
101587.886
101588.248
101588.621
101589.001
101589.381
101589.752
101590.105
101590.428
101590.707
101590.924
101591.059
101591.089
101590.995
101590.767
101590.386
101589.827
101589.039
101588.037
101586.678
101585.108
101582.841
101584.744
101584.743
101584.743
101584.744
101584.746
101584.748
101584.751
101584.754
101584.758
101584.763
101584.768
101584.775
101584.781
101584.789
101584.798
101584.807
101584.817
101584.828
101584.84
101584.853
101584.867
101584.882
101584.899
101584.916
101584.935
101584.957
101584.979
101585.004
101585.03
101585.058
101585.089
101585.123
101585.16
101585.2
101585.245
101585.294
101585.347
101585.404
101585.464
101585.53
101585.603
101585.683
101585.771
101585.868
101585.972
101586.088
101586.224
101586.383
101586.557
101586.747
101586.955