/*--------------------------------*- C++ -*----------------------------------*\
  =========                 |
  \\      /  F ield         | OpenFOAM: The Open Source CFD Toolbox
   \\    /   O peration     | Website:  https://openfoam.org
    \\  /    A nd           | Version:  8
     \\/     M anipulation  |
\*---------------------------------------------------------------------------*/
FoamFile
{
    version     2.0;
    format      ascii;
    class       surfaceScalarField;
    location    "0.072";
    object      phi;
}
// * * * * * * * * * * * * * * * * * * * * * * * * * * * * * * * * * * * * * //

dimensions      [1 0 -1 0 0 0 0];

internalField   nonuniform List<scalar> 
84340
(
-6.11426938e-08
3.05119672e-07
-2.44024278e-07
-2.42139744e-07
9.27463236e-07
-7.46542605e-07
-5.45403955e-07
1.58245596e-06
-1.27928596e-06
-9.74742516e-07
2.27267489e-06
-1.84344591e-06
-1.53516933e-06
3.00124888e-06
-2.44094528e-06
-2.23257633e-06
3.77067528e-06
-3.07340428e-06
-3.0734407e-06
4.58271367e-06
-3.74199786e-06
-4.06454223e-06
5.43855031e-06
-4.44761028e-06
-5.21270457e-06
6.33899147e-06
-5.19100423e-06
-6.52456703e-06
7.2845662e-06
-5.97289339e-06
-8.00638904e-06
8.2755732e-06
-6.79395647e-06
-9.66388582e-06
9.31210583e-06
-7.65483124e-06
-1.15020919e-05
1.03940737e-05
-8.556108e-06
-1.35252466e-05
1.15212215e-05
-9.49832667e-06
-1.5736686e-05
1.26931359e-05
-1.04819773e-05
-1.81387513e-05
1.39092588e-05
-1.15074967e-05
-2.07326808e-05
1.5168883e-05
-1.25752805e-05
-2.35185044e-05
1.64711486e-05
-1.36856773e-05
-2.64949144e-05
1.78150352e-05
-1.48390039e-05
-2.96591206e-05
1.91993416e-05
-1.60355419e-05
-3.30066794e-05
2.06226606e-05
-1.72755372e-05
-3.65312964e-05
2.20833442e-05
-1.85591924e-05
-4.02245921e-05
2.35794515e-05
-1.98866513e-05
-4.40758435e-05
2.51086942e-05
-2.12579694e-05
-4.80716709e-05
2.66683518e-05
-2.26730817e-05
-5.21956887e-05
2.82551791e-05
-2.41317493e-05
-5.64281e-05
2.9865274e-05
-2.56334803e-05
-6.0745209e-05
3.14939138e-05
-2.71774507e-05
-6.51188432e-05
3.3135339e-05
-2.87623765e-05
-6.95157471e-05
3.47825802e-05
-3.03863713e-05
-7.38971518e-05
3.64274482e-05
-3.20467573e-05
-7.821854e-05
3.80604427e-05
-3.37397827e-05
-8.24293458e-05
3.96703524e-05
-3.54602814e-05
-8.64711784e-05
4.12426748e-05
-3.72015795e-05
-9.02728255e-05
4.27567691e-05
-3.89558542e-05
-9.37554233e-05
4.41958247e-05
-4.07139316e-05
-9.68362494e-05
4.55434055e-05
-4.24632407e-05
-9.94423625e-05
4.67804144e-05
-4.41749236e-05
-0.000101455993
4.78492677e-05
-4.58361991e-05
-0.000102709825
4.86863082e-05
-4.74329595e-05
-0.00010300782
4.92415682e-05
-4.89439563e-05
-0.000102128921
4.94351095e-05
-5.03142687e-05
-9.98327762e-05
4.91900589e-05
-5.14863103e-05
-9.58529917e-05
4.84041544e-05
-5.23838643e-05
-8.98820252e-05
4.69661826e-05
-5.29368574e-05
-8.15930865e-05
4.47614422e-05
-5.30498384e-05
-7.06024887e-05
4.1640848e-05
-5.26306108e-05
-5.64367487e-05
3.7386904e-05
-5.15514714e-05
-3.86240796e-05
3.18502483e-05
-4.9661356e-05
-1.67739688e-05
2.49334919e-05
-4.67815891e-05
9.80828576e-06
1.60973327e-05
-4.26770515e-05
4.20954072e-05
4.97349016e-06
-3.72575115e-05
8.10123969e-05
-8.75766134e-06
-3.01556112e-05
0.000127647083
-2.53052453e-05
-2.13249199e-05
0.0001832457
-4.56668703e-05
-9.92631069e-06
0.000249171442
-7.02274238e-05
4.30813677e-06
0.000326834824
-9.95315221e-05
2.18756855e-05
0.000418126676
-0.000134286583
4.30035599e-05
0.000524564965
-0.000175341164
6.89130626e-05
0.000648081927
-0.000223488187
9.99829857e-05
0.000790688432
-0.000279544422
0.000136951168
0.000954378075
-0.000344307958
0.000180633038
0.00114109049
-0.00041871114
0.000232014582
0.00135254304
-0.000503377202
0.000291941393
0.00159056525
-0.000599376563
0.000361369981
0.00185664918
-0.000707207561
0.00044113696
0.00214876665
-0.000823769403
0.000531661952
0.00247175033
-0.00096297892
0.00064000135
0.00283904553
-0.00111975789
0.000752463648
0.00321245454
-0.00123539972
0.000861985948
0.00356577163
-0.00142615405
0.00107282533
0.00404604463
-0.0017319914
0.00125169927
0.00463641077
-0.00183435811
0.00124396481
0.00502788041
-0.00184266665
0.00145116115
0.00531303536
-0.0021943827
0.00190918242
0.00580531656
-0.00260539802
0.00211306557
0.00653237921
-0.00274040298
0.00201328499
0.00710068219
-0.00270896812
0.00214060357
0.00732609221
-0.00288886284
0.00266337181
-0.00312551434
0.00301326795
0.00743827397
-4.87627128e-08
3.53774459e-07
-1.92756027e-07
1.07130177e-06
-4.33642458e-07
1.82316291e-06
-7.74318148e-07
2.6131485e-06
-1.21859862e-06
3.44530621e-06
-1.77102812e-06
4.3228613e-06
-2.43661501e-06
5.24803675e-06
-3.22055549e-06
6.22220614e-06
-4.12798762e-06
7.24611723e-06
-5.16376702e-06
8.32001637e-06
-6.33226524e-06
9.44371805e-06
-7.63719224e-06
1.06166539e-05
-9.08143728e-06
1.18379127e-05
-1.06669222e-05
1.31062717e-05
-1.23944693e-05
1.4420218e-05
-1.42636559e-05
1.57779482e-05
-1.62726727e-05
1.7177369e-05
-1.84181651e-05
1.86160746e-05
-2.06950492e-05
2.00913157e-05
-2.30963098e-05
2.15999595e-05
-2.56127653e-05
2.31384326e-05
-2.82327914e-05
2.47026439e-05
-3.09420113e-05
2.62879008e-05
-3.37229265e-05
2.78887924e-05
-3.65544852e-05
2.9499046e-05
-3.94116009e-05
3.11113809e-05
-4.22646352e-05
3.27173443e-05
-4.50788853e-05
3.4307148e-05
-4.7814011e-05
3.58693977e-05
-5.04230281e-05
3.73904769e-05
-5.28518875e-05
3.88551327e-05
-5.50400915e-05
4.02474247e-05
-5.69192397e-05
4.15482422e-05
-5.84183913e-05
4.27405185e-05
-5.94584004e-05
4.37954234e-05
-5.99251422e-05
4.46611809e-05
-5.96704229e-05
4.528727e-05
-5.85147278e-05
4.56232748e-05
-5.62651137e-05
4.55981994e-05
-5.27186002e-05
4.51383325e-05
-4.7633496e-05
4.41550123e-05
-4.07577333e-05
4.25579284e-05
-3.17910778e-05
4.02220455e-05
-2.03892253e-05
3.70010289e-05
-6.21396675e-06
3.27897734e-05
1.11817134e-05
2.73647688e-05
3.2084355e-05
2.07374155e-05
5.72602977e-05
1.22104316e-05
8.74579221e-05
1.65241355e-06
0.000123520192
-1.11286043e-05
0.000166429489
-2.68113331e-05
0.000217320431
-4.591626e-05
0.000277326224
-6.87616205e-05
0.000347968037
-9.59444502e-05
0.000430471951
-0.000128167325
0.000526394126
-0.000166145125
0.000637491654
-0.000210623502
0.000765588178
-0.000262376338
0.000912547584
-0.000322292705
0.00108016266
-0.000391094197
0.00127023486
-0.000469606627
0.00148443578
-0.000558498322
0.001724219
-0.000658484608
0.00199050497
-0.000769654746
0.00228385274
-0.000892718136
0.00260604261
-0.00102939366
0.00295351524
-0.00117124178
0.00331685474
-0.00132632192
0.0037168547
-0.00151976635
0.00416566162
-0.00168422036
0.00455186963
-0.00181238221
0.00490509579
-0.00208524351
0.00542605712
-0.00235535143
0.00599214216
-0.00240879013
0.00632756381
-0.00252984711
0.00649061081
-0.00276849412
0.00672589744
-0.00297574796
0.0071064
-0.00308952491
0.00739662278
-0.00317913957
-0.00328676703
0.00755782448
-3.68453168e-08
3.90556931e-07
-1.45174288e-07
1.17954154e-06
-3.25745774e-07
2.00363168e-06
-5.80347977e-07
2.86763532e-06
-9.11520462e-07
3.7763511e-06
-1.32226022e-06
4.73346114e-06
-1.81574312e-06
5.74136687e-06
-2.39526044e-06
6.80155684e-06
-3.06388127e-06
7.91455643e-06
-3.82423997e-06
9.08017695e-06
-4.67833568e-06
1.02975976e-05
-5.62734532e-06
1.15654275e-05
-6.67144765e-06
1.28817575e-05
-7.8096534e-06
1.42441963e-05
-9.03963475e-06
1.56498927e-05
-1.03575536e-05
1.70955328e-05
-1.17578669e-05
1.85773184e-05
-1.32331209e-05
2.00909327e-05
-1.47737103e-05
2.16314756e-05
-1.63676079e-05
2.31933915e-05
-1.80000403e-05
2.47703616e-05
-1.96530887e-05
2.63551492e-05
-2.13052243e-05
2.79394522e-05
-2.29308045e-05
2.95137455e-05
-2.44995905e-05
3.10671615e-05
-2.59764482e-05
3.25875233e-05
-2.73213983e-05
3.40615336e-05
-2.84890979e-05
3.54740396e-05
-2.94292288e-05
3.6808681e-05
-3.00866748e-05
3.80470371e-05
-3.03972065e-05
3.91647364e-05
-3.02757611e-05
4.01250109e-05
-2.9620176e-05
4.08916573e-05
-2.83007344e-05
4.14200468e-05
-2.61663667e-05
4.1660002e-05
-2.30563408e-05
4.15500855e-05
-1.87902162e-05
4.1020066e-05
-1.31544421e-05
3.99864197e-05
-5.92854308e-06
3.83712365e-05
3.14640011e-06
3.60623554e-05
1.4367472e-05
3.29329557e-05
2.80478564e-05
2.88766261e-05
4.45774784e-05
2.36916024e-05
6.41558721e-05
1.74219295e-05
8.75502621e-05
9.39483106e-06
0.000115424545
-5.09875369e-07
0.000148529912
-1.23680892e-05
0.000187729771
-2.69892878e-05
0.000234003532
-4.4620868e-05
0.000288545588
-6.56697661e-05
0.000352425602
-9.06899687e-05
0.000426788774
-0.000120277469
0.000513097904
-0.000155068125
0.000612919842
-0.000195762958
0.0007278707
-0.000243113907
0.000859609357
-0.000297878562
0.00100983073
-0.000360838765
0.00118023554
-0.000432774018
0.00137244664
-0.000514495819
0.00158803735
-0.000606676405
0.00182822492
-0.000709786251
0.00209364819
-0.000823914458
0.00238459334
-0.000949424098
0.00270068277
-0.00108574009
0.00303986504
-0.00123189874
0.00340110212
-0.00139063164
0.0037855562
-0.00155570034
0.00417750912
-0.00171828307
0.00456047025
-0.00190274054
0.00498772788
-0.00211149588
0.0054327269
-0.0022574032
0.00575559231
-0.00240813555
0.00601836722
-0.00261816393
0.00636587237
-0.00275633407
0.00669327534
-0.00285728334
0.00687144731
-0.00294670662
0.00696589224
-0.00307023945
0.00707320645
-0.00319689558
0.0071993518
-0.00330533336
-0.00341116092
0.00732371106
-2.86454314e-08
4.1905604e-07
-1.12049878e-07
1.26273579e-06
-2.49996775e-07
2.14133488e-06
-4.42996725e-07
3.06036124e-06
-6.92139755e-07
4.02519214e-06
-9.98770438e-07
5.03976299e-06
-1.36427224e-06
6.10651327e-06
-1.78965716e-06
7.22655941e-06
-2.27541442e-06
8.39990346e-06
-2.82156183e-06
9.62588499e-06
-3.42724605e-06
1.09028119e-05
-4.09055128e-06
1.22282306e-05
-4.80830581e-06
1.35989759e-05
-5.57589404e-06
1.50112126e-05
-6.38705507e-06
1.64604441e-05
-7.23366019e-06
1.79414884e-05
-8.10546501e-06
1.9448432e-05
-8.98979493e-06
2.09745273e-05
-9.8711913e-06
2.25120903e-05
-1.07310374e-05
2.40524073e-05
-1.15472499e-05
2.55856929e-05
-1.22944384e-05
2.71014021e-05
-1.29434642e-05
2.85874853e-05
-1.34611875e-05
3.00304184e-05
-1.38102008e-05
3.14150646e-05
-1.39458372e-05
3.27219853e-05
-1.38134659e-05
3.39279215e-05
-1.33490394e-05
3.50083005e-05
-1.24767882e-05
3.59350455e-05
-1.11046256e-05
3.66734125e-05
-9.12449664e-06
3.71830639e-05
-6.41655465e-06
3.74154438e-05
-2.84141702e-06
3.73148089e-05
1.76171266e-06
3.68151126e-05
7.57523678e-06
3.58445821e-05
1.47983371e-05
3.43249984e-05
2.36622124e-05
3.21541169e-05
3.44244144e-05
2.92220557e-05
4.73701434e-05
2.54232674e-05
6.28459662e-05
2.05842184e-05
8.10551844e-05
1.47213504e-05
0.000102682634
7.24676442e-06
0.00012830845
-1.93661367e-06
0.000158588784
-1.28608406e-05
0.000194351437
-2.63702738e-05
0.000236421359
-4.25821986e-05
0.000285932381
-6.18814115e-05
0.00034371744
-8.47764878e-05
0.000410887581
-0.000111792926
0.000488727517
-0.000143511309
0.000578606232
-0.000180569902
0.00068196857
-0.000223640511
0.000800319357
-0.000273419013
0.000935190184
-0.000330633156
0.00108809789
-0.000396020224
0.00126053434
-0.000470312719
0.00145395009
-0.00055425138
0.00166959373
-0.00064841375
0.00190830938
-0.00075320739
0.00217042795
-0.000868790849
0.00245568543
-0.000995040091
0.00276287341
-0.00113109938
0.00308978888
-0.00127633773
0.00343419147
-0.00143014219
0.00379198118
-0.0015896901
0.00415630033
-0.00175495473
0.0045269704
-0.00192637756
0.00490217115
-0.00209349443
0.00525023576
-0.00225081959
0.00555212103
-0.00241339811
0.00584758763
-0.00255289082
0.00610308525
-0.00266366259
0.00625868187
-0.00277379299
0.00639196396
-0.00288965107
0.00653319513
-0.00299856485
0.00668446089
-0.00309801761
0.00680709252
-0.00319291246
0.00690448185
-0.00329433144
0.00699651563
-0.00339739832
-0.00350419037
0.00708952195
-2.52094199e-08
4.44184127e-07
-9.7659392e-08
1.33506719e-06
-2.16066109e-07
2.25960282e-06
-3.79629604e-07
3.22376736e-06
-5.87740298e-07
4.23312783e-06
-8.39801137e-07
5.29163128e-06
-1.13501053e-06
6.40151197e-06
-1.47196688e-06
7.56328566e-06
-1.84861194e-06
8.77629745e-06
-2.26163714e-06
1.00386363e-05
-2.70648339e-06
1.13473594e-05
-3.17738307e-06
1.26988043e-05
-3.66692456e-06
1.40881619e-05
-4.16579947e-06
1.55096999e-05
-4.66254867e-06
1.69567709e-05
-5.14330739e-06
1.84217874e-05
-5.59156547e-06
1.98961902e-05
-5.9880631e-06
2.13704818e-05
-6.31045902e-06
2.28338968e-05
-6.53241692e-06
2.42737279e-05
-6.62245977e-06
2.56750483e-05
-6.54415236e-06
2.70223529e-05
-6.25519631e-06
2.82977311e-05
-5.70611184e-06
2.94804779e-05
-4.83874628e-06
3.05467824e-05
-3.5865561e-06
3.14688135e-05
-1.87291768e-06
3.22132362e-05
3.92773116e-07
3.27414963e-05
3.31786828e-06
3.30087682e-05
7.02739019e-06
3.29626351e-05
1.16630384e-05
3.25460882e-05
1.73802344e-05
3.1696849e-05
2.4357876e-05
3.03356988e-05
3.27986515e-05
2.83727985e-05
4.29422514e-05
2.56993763e-05
5.5047848e-05
2.22177317e-05
6.94410138e-05
1.77592231e-05
8.63011245e-05
1.23601532e-05
0.00010625643
5.46614182e-06
0.000129806259
-2.96744079e-06
0.000157533798
-1.30080631e-05
0.000190167432
-2.53887844e-05
0.000228452662
-4.02237558e-05
0.000273440676
-5.78507407e-05
0.000325796414
-7.87278403e-05
0.000386540068
-0.000103327589
0.000456831128
-0.00013217407
0.000537885264
-0.000165832032
0.000631002259
-0.000204911073
0.000737544207
-0.000250054069
0.000858897385
-0.000301923483
0.000996449392
-0.000361192423
0.00115155236
-0.000428521345
0.00132544472
-0.000504524226
0.00151921812
-0.000589791654
0.00173368334
-0.000684775342
0.00196921342
-0.000789778579
0.00222566089
-0.000904858157
0.00250212822
-0.00102967179
0.00279690652
-0.00116356639
0.00310747629
-0.00130560769
0.00343052152
-0.00145414309
0.0037606469
-0.00160646275
0.00409266444
-0.00176216065
0.00442093491
-0.00191796348
0.00473801154
-0.0020720363
0.00503589112
-0.00222426478
0.00530579867
-0.0023634125
0.00554015301
-0.00248518826
0.00571468066
-0.00258794393
0.00585352745
-0.00269176017
0.00598727118
-0.00279743409
0.00611553814
-0.00290209135
0.00622513509
-0.00299928868
0.00632285844
-0.00309632593
0.00641163241
-0.00318682151
0.0065032943
-0.0032846127
0.00659743452
-0.00338850579
0.00669362609
-0.0034936255
-0.00360353469
0.00679294293
-2.55776483e-08
4.69561924e-07
-9.81422497e-08
1.40734596e-06
-2.1526504e-07
2.37639531e-06
-3.74647168e-07
3.38277903e-06
-5.73810127e-07
4.43188341e-06
-8.09812493e-07
5.52719112e-06
-1.07899678e-06
6.67021907e-06
-1.37694639e-06
7.86072278e-06
-1.69812162e-06
9.09692372e-06
-2.03540039e-06
1.03753279e-05
-2.38007339e-06
1.16914051e-05
-2.72124145e-06
1.30393031e-05
-3.04579513e-06
1.44120021e-05
-3.33818988e-06
1.58013343e-05
-3.58007848e-06
1.71978498e-05
-3.74992516e-06
1.85907737e-05
-3.82244178e-06
1.99677938e-05
-3.76833133e-06
2.13154006e-05
-3.55376377e-06
2.26182967e-05
-3.139897e-06
2.38587661e-05
-2.48246321e-06
2.50164547e-05
-1.52954046e-06
2.60682008e-05
-2.20115509e-07
2.69870045e-05
1.51752274e-06
2.77414591e-05
3.76747516e-06
2.82953642e-05
6.6253985e-06
2.86093357e-05
1.01983681e-05
2.86386203e-05
1.46091215e-05
2.83289989e-05
1.99983612e-05
2.76176816e-05
2.65266616e-05
2.64323786e-05
3.43808182e-05
2.46898619e-05
4.3784721e-05
2.22907554e-05
5.49743351e-05
1.91437705e-05
6.82497394e-05
1.50949445e-05
8.38054184e-05
1.01411005e-05
0.000102161924
3.85851604e-06
0.000123761838
-3.84350282e-06
0.000149129584
-1.30105789e-05
0.000178904937
-2.43123826e-05
0.000213755346
-3.78211804e-05
0.000254605425
-5.38616251e-05
0.000302051941
-7.28389304e-05
0.000356997571
-9.51731478e-05
0.000420473429
-0.000121330476
0.000493566807
-0.000151825189
0.00057744292
-0.000187207728
0.000673326141
-0.000228061302
0.000782484813
-0.00027499463
0.000906192158
-0.000328622189
0.00104568187
-0.000389547317
0.00120209492
-0.000458339758
0.00137640456
-0.000535504918
0.00156934588
-0.000621465087
0.00178130794
-0.000716488125
0.00201218461
-0.000820669531
0.00226128999
-0.000933881335
0.00252721707
-0.00105570588
0.00280777822
-0.00118541921
0.00310001029
-0.0013219037
0.00339994754
-0.00146350349
0.00370271862
-0.00160837895
0.00400311168
-0.00175453675
0.00429464995
-0.00189800247
0.00457126077
-0.00203877387
0.004826952
-0.00217365847
0.00505302784
-0.00229811763
0.00524015774
-0.00241140339
0.0053876235
-0.00251088845
0.00551004571
-0.00260762227
0.00562141764
-0.00269933613
0.00572585434
-0.0027962197
0.00581948933
-0.00289109059
0.00590522483
-0.00298785495
0.00598692773
-0.00308101658
0.00606334321
-0.00317276596
0.00614260199
-0.00326611256
0.00622033794
-0.00336237878
0.00630054701
-0.00346874164
0.00638408012
-0.00357718126
-0.0036872552
0.00646778613
-2.76281688e-08
4.97054574e-07
-1.04863518e-07
1.4843844e-06
-2.27713191e-07
2.49901507e-06
-3.92012908e-07
3.54681868e-06
-5.9297729e-07
4.63255946e-06
-8.24878103e-07
5.75877591e-06
-1.08075197e-06
6.92574873e-06
-1.35211778e-06
8.13171489e-06
-1.62870193e-06
9.37310275e-06
-1.89849907e-06
1.06446858e-05
-2.14714747e-06
1.19395776e-05
-2.35735567e-06
1.32489961e-05
-2.50886357e-06
1.45629518e-05
-2.57806124e-06
1.58699271e-05
-2.53737049e-06
1.71565047e-05
-2.3547925e-06
1.84074895e-05
-1.99353919e-06
1.96057793e-05
-1.4110283e-06
2.07320683e-05
-5.57468147e-07
2.17638507e-05
6.24513969e-07
2.26758301e-05
2.19999626e-06
2.3439948e-05
4.24407026e-06
2.40230277e-05
6.84244851e-06
2.43874481e-05
1.00930409e-05
2.44896052e-05
1.410755e-05
2.42795073e-05
1.90159527e-05
2.36994946e-05
2.49697424e-05
2.26832985e-05
3.21422733e-05
2.11548381e-05
4.0735589e-05
1.90226349e-05
5.09642285e-05
1.62019043e-05
6.30994583e-05
1.25526878e-05
7.73350471e-05
8.05310309e-06
9.4122121e-05
2.35453962e-06
0.000113855054
-4.64023505e-06
0.000136988338
-1.2994566e-05
0.000164078514
-2.32341862e-05
0.000195708105
-3.54757454e-05
0.000232708313
-5.00135664e-05
0.000275591758
-6.71987301e-05
0.000325173005
-8.74054549e-05
0.000382359202
-0.000111050965
0.000448112652
-0.000138595639
0.000523470851
-0.000170534704
0.000609532283
-0.000207395336
0.000707430779
-0.000249727147
0.00081831021
-0.000298090627
0.00094328872
-0.00035304325
0.00108340984
-0.000415119114
0.00123958734
-0.000484802956
0.00141253809
-0.000562501178
0.00160269924
-0.000648503862
0.00181013195
-0.000742940298
0.00203437682
-0.000845712226
0.00227435114
-0.000956464282
0.002528252
-0.00107457191
0.00279346078
-0.00119909136
0.0030666137
-0.00132885989
0.00334350422
-0.00146231068
0.00361975573
-0.0015981562
0.00389003052
-0.00173377932
0.00414957932
-0.00186792907
0.00439187004
-0.0019968291
0.00461344072
-0.00211957526
0.00480704892
-0.0022323848
0.00496832009
-0.00233493404
0.00509831986
-0.00242812275
0.00520311042
-0.00251619992
0.00529801909
-0.00260580624
0.00538437393
-0.00269398758
0.00546840546
-0.0027833789
0.00554776474
-0.00287559353
0.00562478627
-0.00296813018
0.00569516358
-0.00305825126
0.00576397392
-0.00314984643
0.005831791
-0.00324060792
0.00590175182
-0.00333609857
0.00597255732
-0.00343320613
0.00603978162
-0.00353598815
0.00611298606
-0.00365041218
-0.00376451285
0.00619022616
-2.78959792e-08
5.24694375e-07
-1.04317924e-07
1.56044131e-06
-2.23370208e-07
2.61764658e-06
-3.78477045e-07
3.70145429e-06
-5.61916426e-07
4.81548109e-06
-7.64462399e-07
5.96075964e-06
-9.75058645e-07
7.13573863e-06
-1.18049284e-06
8.33649795e-06
-1.36499092e-06
9.55690337e-06
-1.50983639e-06
1.07887847e-05
-1.59303893e-06
1.20219821e-05
-1.58909569e-06
1.32442009e-05
-1.46819043e-06
1.44411368e-05
-1.19555777e-06
1.55963234e-05
-7.30991079e-07
1.66909033e-05
-2.83675768e-08
1.7703764e-05
9.65325784e-07
1.86109127e-05
2.31100755e-06
1.93851379e-05
4.0779869e-06
1.99955439e-05
6.34587377e-06
2.04065328e-05
9.20628868e-06
2.05780339e-05
1.2764254e-05
2.04634692e-05
1.71401474e-05
2.00098631e-05
2.24714782e-05
1.91564786e-05
2.89154057e-05
1.7833674e-05
3.66541325e-05
1.59587467e-05
4.59010011e-05
1.34342894e-05
5.68505219e-05
1.0203044e-05
6.97457565e-05
6.12498111e-06
8.49590101e-05
9.86106018e-07
0.000102835354
-5.32632588e-06
0.000123774506
-1.28888983e-05
0.000148261608
-2.21356051e-05
0.000176803378
-3.3185232e-05
0.000210109009
-4.63036182e-05
0.000248671562
-6.18003638e-05
0.000293202036
-8.00100545e-05
0.000344489064
-0.000101304648
0.000403379527
-0.000126093476
0.000470787374
-0.000154817819
0.000547680401
-0.000187948724
0.000635060827
-0.000225980994
0.000733943338
-0.000269422322
0.000845324808
-0.000318782074
0.000970146766
-0.000374554505
0.00110924828
-0.000437197651
0.00126330774
-0.000507108281
0.00143277586
-0.000584592862
0.00161779948
-0.000669832254
0.00181815706
-0.000762864383
0.00203313168
-0.00086348376
0.00226140785
-0.0009712212
0.00250100255
-0.00108531119
0.00274919633
-0.00120466189
0.00300256805
-0.00132794712
0.00325698788
-0.00145351439
0.00350789629
-0.00157977127
0.00375015341
-0.00170457059
0.00397957814
-0.0018275836
0.00419198964
-0.00194619327
0.00438103683
-0.00205697853
0.004543056
-0.00215885054
0.00467769147
-0.00225421375
0.00478686659
-0.00234156311
0.00488089263
-0.00242896312
0.00496234657
-0.00250958094
0.00503284072
-0.00258670055
0.0050979881
-0.00267096103
0.00516092766
-0.0027569354
0.00522043791
-0.00284290053
0.00527718285
-0.00293235261
0.00533796224
-0.00302892813
0.00540751676
-0.00312782359
0.00547933996
-0.003221684
0.00555342529
-0.00331471053
0.00562984563
-0.00341254125
0.00571138422
-0.00351476578
0.00579080453
-0.00361542689
0.00587092477
-0.00373054886
-0.00384531649
0.0059517199
-2.44141242e-08
5.48899427e-07
-8.8196215e-08
1.62392229e-06
-1.82658686e-07
2.71175942e-06
-2.97923678e-07
3.81632538e-06
-4.22316223e-07
4.93943843e-06
-5.41932168e-07
6.07990021e-06
-6.40220452e-07
7.23351067e-06
-6.97562431e-07
8.39328125e-06
-6.90786917e-07
9.54952454e-06
-5.92672219e-07
1.06900186e-05
-3.71375902e-07
1.17999828e-05
1.00873705e-08
1.28619796e-05
5.94351569e-07
1.38560555e-05
1.43039585e-06
1.47593989e-05
2.57425516e-06
1.55460962e-05
4.09009662e-06
1.6186903e-05
6.05148067e-06
1.66484334e-05
8.5425213e-06
1.68929206e-05
1.16593433e-05
1.68774585e-05
1.55117593e-05
1.65527616e-05
2.022529e-05
1.58630515e-05
2.59427973e-05
1.47444081e-05
3.28290669e-05
1.31219333e-05
4.10694543e-05
1.09143173e-05
5.08426913e-05
8.05853781e-06
6.24028156e-05
4.39660485e-06
7.60429584e-05
-2.07971149e-07
9.2071485e-05
-5.82772824e-06
0.000110845572
-1.26515178e-05
0.000132785617
-2.09565151e-05
0.000158334809
-3.08782529e-05
0.000188101151
-4.26581412e-05
0.000222531887
-5.6569415e-05
0.000262251794
-7.29083932e-05
0.000307949004
-9.20042681e-05
0.000360364489
-0.000114219485
0.000420296342
-0.000139945747
0.000488590015
-0.000169602359
0.000566124189
-0.000203631871
0.00065379289
-0.000242490922
0.000752480912
-0.000286641323
0.000863031457
-0.000336536283
0.00098620702
-0.000392602784
0.00112263999
-0.000455220092
0.00127277475
-0.000524694442
0.00143680269
-0.000601230884
0.00161459442
-0.000684905447
0.00180563782
-0.000775641858
0.00200897374
-0.000873173704
0.00222309392
-0.000976989747
0.00244591436
-0.00108630906
0.00267475226
-0.00120006369
0.00290634893
-0.00131691222
0.00313695064
-0.00143526777
0.00336242815
-0.00155342864
0.00357858163
-0.00166967174
0.00378121282
-0.00178240624
0.00396696108
-0.00189032252
0.00413045758
-0.00199108332
0.00426838756
-0.00208412607
0.00438369921
-0.00217229298
0.00448037015
-0.00225552483
0.00456324458
-0.00233709113
0.00463815198
-0.00241647321
0.00470459309
-0.00249540744
0.00476829414
-0.00257328549
0.00482929092
-0.00264770182
0.00487870822
-0.00272038362
0.00492673279
-0.00280496571
0.00497683482
-0.00289300976
0.00502609083
-0.00298161757
0.00507231357
-0.00307516209
0.00512498372
-0.00318050574
0.00518859195
-0.00328530278
0.00525706165
-0.00338319306
0.00532845905
-0.00348395373
0.00540454965
-0.00359087267
0.00548672686
-0.0036976174
0.00556447764
-0.00380831019
-0.00392335692
0.00564250733
-1.56335345e-08
5.64220324e-07
-5.02249231e-08
1.65806885e-06
-9.11860123e-08
2.75220806e-06
-1.23970746e-07
3.84853619e-06
-1.31409691e-07
4.94624663e-06
-9.31868648e-08
6.04099201e-06
1.46784037e-08
7.12490529e-06
2.20387913e-07
8.18677553e-06
5.56877157e-07
9.21218089e-06
1.06237573e-06
1.01836045e-05
1.78104097e-06
1.10803373e-05
2.7636001e-06
1.18783717e-05
4.06831941e-06
1.25502148e-05
5.76176015e-06
1.30647603e-05
7.92019205e-06
1.33863857e-05
1.06306909e-05
1.34750388e-05
1.39926067e-05
1.32850604e-05
1.81191079e-05
1.27648653e-05
2.31390585e-05
1.18558514e-05
2.91995566e-05
1.04904995e-05
3.64664869e-05
8.59424145e-06
4.5102099e-05
6.10679107e-06
5.53438231e-05
2.87808495e-06
6.74380788e-05
-1.18217937e-06
8.16607825e-05
-6.1665498e-06
9.83256783e-05
-1.22708381e-05
0.000117780495
-1.96654996e-05
0.000140462385
-2.85125027e-05
0.000166833732
-3.90259305e-05
0.00019731784
-5.14438819e-05
0.000232463678
-6.60275513e-05
0.000272869162
-8.30673007e-05
0.000319178454
-0.000102882609
0.00037208569
-0.000125819776
0.000432327464
-0.000152250431
0.000500671871
-0.00018256852
0.000577904172
-0.000217182918
0.00066480696
-0.000256510261
0.000762133574
-0.00030096384
0.000870576205
-0.000350939152
0.0009907251
-0.00040679605
0.00112302027
-0.000468837521
0.00126769624
-0.000537285029
0.00142472097
-0.000612251316
0.00159373163
-0.00069371181
0.00177397202
-0.000781478236
0.0019642505
-0.000875191028
0.00216288175
-0.000974280028
0.0023676542
-0.00107795268
0.00257583027
-0.00118517201
0.00278425986
-0.00129474454
0.00298950741
-0.00140531687
0.00318794794
-0.00151535814
0.00337593614
-0.00162326117
0.00354998548
-0.00172748299
0.00370751776
-0.00182720883
0.00384665116
-0.00192154426
0.00396567123
-0.00200934684
0.00406503211
-0.00209044793
0.00414789915
-0.00216699685
0.00422023941
-0.00224463724
0.00429002713
-0.0023253156
0.00435541318
-0.00240247916
0.00441857809
-0.00247963994
0.00447975318
-0.00255658422
0.00453944331
-0.00263297757
0.00460123615
-0.00270949722
0.00465671243
-0.00277586282
0.00470402596
-0.0028522827
0.00474836696
-0.00293735583
0.00479423024
-0.00302748706
0.00483789816
-0.00311883689
0.0048752155
-0.00321783406
0.00491932778
-0.00332942743
0.00497732648
-0.00344120257
0.00504336684
-0.00355000489
0.00511279669
-0.00366031109
0.00518422791
-0.0037690569
0.00525515833
-0.0038792541
-0.00399538676
0.00532717752
-8.08521245e-10
5.64739365e-07
1.28403345e-08
1.64400522e-06
5.8908248e-08
2.70566001e-06
1.58197142e-07
3.74870744e-06
3.35117265e-07
4.76873091e-06
6.18280612e-07
5.75717886e-06
1.0410985e-06
6.70138293e-06
1.64239385e-06
7.5847191e-06
2.46705148e-06
8.38670254e-06
3.56682076e-06
9.08295098e-06
5.00115296e-06
9.6450531e-06
6.83796656e-06
1.00405342e-05
9.1551322e-06
1.02319485e-05
1.20414205e-05
1.01772882e-05
1.55979141e-05
9.8286192e-06
1.99395326e-05
9.13205308e-06
2.5197052e-05
8.02607401e-06
3.15188718e-05
6.44147109e-06
3.90549466e-05
4.31808696e-06
4.801062e-05
1.53302352e-06
5.86016751e-05
-1.99873365e-06
7.10708785e-05
-6.36447084e-06
8.56924489e-05
-1.17456914e-05
0.000102775042
-1.82671287e-05
0.000122695638
-2.60896604e-05
0.000145822313
-3.54001949e-05
0.000172560311
-4.64063554e-05
0.000203383293
-5.93385278e-05
0.000238806356
-7.44522303e-05
0.00027938725
-9.20282184e-05
0.000325727594
-0.000112371554
0.000378466914
-0.000135810502
0.000438274478
-0.00016269427
0.000505838069
-0.000193387686
0.00058184835
-0.000228265253
0.000666977488
-0.000267702423
0.000761853694
-0.000312064111
0.000867028387
-0.000361690166
0.000982937092
-0.000416877976
0.00110985433
-0.000477862043
0.00124784355
-0.000544791122
0.00139670346
-0.000617703503
0.00155591374
-0.000696501572
0.00172458327
-0.000780927357
0.00190140614
-0.000870541455
0.00208463858
-0.000964717544
0.00227206751
-0.00106262662
0.0024610352
-0.00116325413
0.00264851357
-0.00126543723
0.0028312283
-0.00136789274
0.00300591438
-0.00146943646
0.00316959637
-0.00156900455
0.00332044447
-0.00166621174
0.00345576112
-0.00175858318
0.00357431124
-0.00184603832
0.0036759406
-0.00192884333
0.00376204754
-0.00200765605
0.0038352985
-0.00208260175
0.00390078423
-0.00215593774
0.00396172466
-0.00222794104
0.0040130709
-0.00229598645
0.00405467393
-0.00236692124
0.00409639719
-0.00244420429
0.0041388544
-0.00252209878
0.0041835224
-0.00260125368
0.00423299357
-0.00268245002
0.00428785096
-0.00276435599
0.00434698609
-0.00283500001
0.00440276128
-0.00290806064
0.00445619642
-0.00299079409
0.00451012042
-0.0030814159
0.00456600069
-0.00317472303
0.00461808001
-0.00326991907
0.00466383364
-0.00337518796
0.00470475545
-0.00348213293
0.00474782051
-0.00359308149
0.00479872271
-0.00371122484
0.0048608851
-0.00383123243
0.00493316745
-0.00395155008
-0.0040680686
0.00500584083
2.05097312e-08
5.43855186e-07
1.02893267e-07
1.5610886e-06
2.72034313e-07
2.53590453e-06
5.56727616e-07
3.46332557e-06
9.90512014e-07
4.33418898e-06
1.61237207e-06
5.13449466e-06
2.46744609e-06
5.84541812e-06
3.60780028e-06
6.44340557e-06
5.09328764e-06
6.90018418e-06
6.99231398e-06
7.1828187e-06
9.38329125e-06
7.25289065e-06
1.23554651e-05
7.06708965e-06
1.60104042e-05
6.57564748e-06
2.04636013e-05
5.72263329e-06
2.58458821e-05
4.44477775e-06
3.2294097e-05
2.68216688e-06
3.99847555e-05
3.33634528e-07
4.91059104e-05
-2.68157952e-06
5.98696169e-05
-6.44764831e-06
7.25148661e-05
-1.11143963e-05
8.73097998e-05
-1.67959837e-05
0.000104579191
-2.36363323e-05
0.000124630512
-3.17996464e-05
0.000147828538
-4.1467961e-05
0.000174579555
-5.28436667e-05
0.000205326975
-6.61507959e-05
0.000240552641
-8.16354065e-05
0.000280775958
-9.95654493e-05
0.000326549824
-0.000120229926
0.000378454832
-0.000143937285
0.000437090802
-0.000171011816
0.000503064521
-0.000201788752
0.000576973185
-0.000236607709
0.000659384075
-0.000275803601
0.000750808688
-0.000319695142
0.000851671531
-0.0003685708
0.00096227384
-0.000422672209
0.00108275296
-0.000482175336
0.00121303835
-0.000547169658
0.00135280648
-0.000617636732
0.00150143722
-0.000693428649
0.00165797559
-0.000774248909
0.00182110399
-0.000859637264
0.00198913126
-0.000948962242
0.00216000905
-0.00104142691
0.00233135172
-0.00113606765
0.00250051238
-0.00123179444
0.00266469901
-0.00132744767
0.00282118606
-0.00142193096
0.00296751749
-0.00151423074
0.00310169034
-0.00160361581
0.00322269737
-0.00169001761
0.00332843448
-0.00177195433
0.00341910886
-0.00184926306
0.00349591562
-0.00192285039
0.00356120485
-0.00199413694