/*--------------------------------*- C++ -*----------------------------------*\
  =========                 |
  \\      /  F ield         | OpenFOAM: The Open Source CFD Toolbox
   \\    /   O peration     | Website:  https://openfoam.org
    \\  /    A nd           | Version:  8
     \\/     M anipulation  |
\*---------------------------------------------------------------------------*/
FoamFile
{
    version     2.0;
    format      ascii;
    class       volScalarField;
    location    "0.072";
    object      T;
}
// * * * * * * * * * * * * * * * * * * * * * * * * * * * * * * * * * * * * * //

dimensions      [0 0 0 1 0 0 0];

internalField   nonuniform List<scalar> 
42400
(
472.206606
470.60231
468.955945
467.266612
465.533469
463.755741
461.932743
460.063904
458.148788
456.187125
454.178841
452.124093
450.0233
447.877189
445.686826
443.453662
441.179575
438.866908
436.518513
434.137787
431.72871
429.295873
426.844503
424.380482
421.910353
419.441317
416.981218
414.538513
412.122226
409.741889
407.407464
405.129249
402.917774
400.783677
398.737578
396.789933
394.950896
393.230185
391.636963
390.179692
388.865975
387.702429
386.694518
385.846431
385.160929
384.639211
384.280786
384.083349
384.043508
384.153213
384.404257
384.784215
385.27742
385.864002
386.520335
387.212505
387.905563
388.57598
389.223281
389.565425
389.54972
389.209465
388.421896
387.386052
386.023999
384.252391
381.9308
378.985535
375.44259
371.355999
366.263844
360.786963
355.722441
349.652603
342.175152
335.804586
330.26494
324.998546
317.874289
312.881772
472.240271
470.704066
469.127629
467.510146
465.850864
464.149102
462.40428
460.615935
458.783751
456.907586
454.987506
453.023814
451.01709
448.968228
446.878478
444.749482
442.583321
440.382553
438.150256
435.890061
433.606193
431.303496
428.98746
426.664232
424.340627
422.024118
419.722821
417.445459
415.201318
413.000174
410.852216
408.767946
406.758062
404.833332
403.004469
401.281975
399.675961
398.195953
396.850705
395.647949
394.594164
393.694366
392.951887
392.368133
391.942294
391.671156
391.548731
391.566491
391.712486
391.970052
392.319275
392.73298
393.179837
393.630461
394.070823
394.349392
394.352106
394.089307
393.344181
392.39285
391.158873
389.573064
387.516812
384.91486
381.734752
377.962331
373.625237
368.681097
363.198193
357.505921
351.233952
344.377528
338.169538
332.36967
325.942738
319.556066
314.323398
309.817493
305.951187
302.233061
472.283833
470.835735
469.349785
467.825278
466.261574
464.658116
463.014455
461.330272
459.605402
457.839865
456.033899
454.18799
452.302913
450.379764
448.420004
446.425498
444.398552
442.341956
440.259021
438.153614
436.03019
433.893816
431.750194
429.605667
427.46722
425.342469
423.239628
421.167476
419.13529
417.152776
415.229977
413.377164
411.604694
409.922848
408.341645
406.870629
405.518608
404.293392
403.201521
402.247969
401.435835
400.76599
400.236834
399.843842
399.57972
399.433031
399.387692
399.421463
399.512921
399.634851
399.766526
399.823451
399.708515
399.331304
398.628214
397.681863
396.503177
395.026966
393.172809
390.825989
387.948112
384.513032
380.513583
375.969553
370.914727
365.398135
359.532531
353.361743
346.905055
340.509064
334.304298
327.95571
321.948085
316.796749
312.153914
307.989947
304.376117
301.468593
300.18043
299.991847
472.334081
470.987615
469.606044
468.188785
466.735334
465.245278
463.718323
462.154315
460.553265
458.915383
457.241104
455.531125
453.786435
452.008359
450.198586
448.359213
446.492779
444.6023
442.691301
440.763849
438.824573
436.878681
434.931972
432.990834
431.062229
429.153675
427.273196
425.429263
423.630715
421.886649
420.206295
418.598854
417.073295
415.638142
414.301207
413.06932
411.948019
410.941214
410.050784
409.276309
408.614606
408.059614
407.601186
407.225352
406.916194
406.655141
406.424629
406.131057
405.723776
405.150202
404.34855
403.3299
402.123044
400.669116
398.904873
396.736963
394.104971
390.973763
387.319842
383.137781
378.440739
373.264982
367.664621
361.716149
355.50889
349.131181
342.714815
336.394772
330.221115
324.327415
318.984228
314.161245
309.843722
306.221285
303.31439
301.160627
300.148267
299.928249
299.870247
299.847199
472.387354
471.14864
469.877734
468.57419
467.237646
465.867846
464.46466
463.02811
461.558393
460.055914
458.52131
456.955485
455.359641
453.735311
452.08439
450.409169
448.712364
446.997141
445.267143
443.526505
441.779867
440.032372
438.289663
436.557859
434.843515
433.153576
431.495291
429.87612
428.303605
426.785216
425.328158
423.939156
422.624201
421.38827
420.235008
419.166381
418.18227
417.280246
416.455221
415.699137
415.001108
414.348417
413.709248
413.03939
412.301341
411.451473
410.440055
409.300073
408.001247
406.497463
404.736635
402.648043
400.172201
397.272506
393.919125
390.093465
385.790186
381.018346
375.803645
370.188031
364.235547
358.029626
351.663228
345.236788
338.863028
332.648625
326.705844
321.182526
316.173369
311.734733
307.949322
304.90677
302.502204
300.789371
300.058561
299.908118
299.862827
299.853484
299.847441
299.848516
472.439556
471.306426
470.143965
468.951857
467.729882
466.477933
465.196035
463.884372
462.543305
461.173402
459.775464
458.350549
456.900003
455.425484
453.928985
452.412857
450.87983
449.333022
447.775951
446.212528
444.647054
443.084191
441.528932
439.986539
438.462476
436.96231
435.491588
434.055691
432.659656
431.307968
430.004323
428.75136
427.550367
426.400938
425.300739
424.245228
423.227229
422.233988
421.246487
420.241513
419.192083
418.067934
416.853661
415.539076
414.092054
412.476443
410.649628
408.555051
406.148246
403.393944
400.260899
396.724759
392.770355
388.393129
383.600476
378.412718
372.863792
366.998854
360.881818
354.591059
348.216826
341.860707
335.632605
329.633289
323.970466
318.751922
314.070102
310.021041
306.662162
304.026403
302.09651
300.67809
300.086596
299.948955
299.906817
299.879492
299.865582
299.853771
299.843664
299.832441
472.486065
471.447006
470.38116
469.288328
468.168403
467.021395
465.847442
464.646832
463.420026
462.167672
460.890632
459.589994
458.267098
456.923545
455.561212
454.182259
452.78913
451.384549
449.971502
448.553214
447.133108
445.714751
444.301779
442.89781
441.506323
440.130525
438.773182
437.436434
436.12157
434.828788
433.556908
432.303132
431.06275
429.828757
428.590222
427.333094
426.041016
424.699599
423.291643
421.796394
420.18941
418.441626
416.516972
414.376952
411.989433
409.322714
406.347074
403.036646
399.371126
395.337237
390.930178
386.154909
381.02717
375.574244
369.835213
363.859975
357.709817
351.457821
345.187547
338.992838
332.97297
327.230801
321.87209
316.991666
312.669915
308.980544
305.96451
303.634676
301.953
300.846114
300.176647
300.000473
299.937788
299.910804
299.889966
299.870631
299.853312
299.834482
299.821625
299.818929
472.521954
471.555478
470.56417
469.5479
468.506626
467.440405
466.34941
465.23394
464.094436
462.931488
461.745853
460.538459
459.310411
458.062994
456.797668
455.516059
454.219937
452.911192
451.591792
450.26373
448.928955
447.589288
446.246319
444.901278
443.554894
442.207226
440.857479
439.503801
438.143091
436.770786
435.380621
433.964398
432.511789
431.010108
429.445691
427.802638
426.061488
424.198093
422.188682
420.008069
417.630008
415.027911
412.175819
409.049497
405.62757
401.892722
397.832897
393.442465
388.723308
383.685802
378.349763
372.745162
366.912826
360.904775
354.783815
348.621903
342.498503
336.500154
330.717076
325.247966
320.187905
315.62317
311.627295
308.255224
305.536096
303.463765
301.980868
301.00265
300.422437
300.12006
300.016346
299.959044
299.918067
299.887198
299.856267
299.834678
299.821579
299.818404
299.818202
299.818885
472.542558
471.617741
470.669187
469.696771
468.700437
467.6802
466.636156
465.568485
464.477454
463.363423
462.226835
461.068219
459.888175
458.68736
457.466465
456.226224
454.967352
453.690501
452.396205
451.084808
449.756373
448.41058
447.046597
445.662925
444.257226
442.826098
441.364767
439.866734
438.324917
436.730634
435.073512
433.341391
431.520228
429.594174
427.545712
425.355824
423.004272
420.470016
417.731788
414.76874
411.561158
408.0912
404.343883
400.308015
395.977146
391.35049
386.433815
381.240292
375.791313
370.117236
364.258143
358.264584
352.198656
346.132879
340.147315
334.328645
328.766158
323.549895
318.764582
314.486971
310.776835
307.675451
305.192481
303.307629
301.961896
301.06816
300.519231
300.206564
300.048301
299.95796
299.897953
299.85763
299.832201
299.817141
299.816583
299.8175
299.817902
299.818303
299.818201
299.817548
472.544402
471.623277
470.678427
469.709647
468.71677
467.69967
466.658257
465.592476
464.502298
463.387716
462.248729
461.085321
459.897446
458.684994
457.447762
456.185387
454.897305
453.582682
452.240325
450.868575
449.465174
448.027105
446.550391
445.029439
443.458363
441.830859
440.139728
438.376978
436.532421
434.594488
432.550283
430.385642
428.085261
425.632895
423.011644
420.204311
417.193856
413.963938
410.499351
406.786822
402.815734
398.578903
394.07338
389.301272
384.270576
378.995996
373.499727
367.81225
361.973054
356.031219
350.04569
344.086235
338.231856
332.568504
327.18558
322.171012
317.606721
313.562322
310.086966
307.201767
304.904654
303.163897
301.915014
301.070941
300.535168
300.216665
300.02911
299.920632
299.856006
299.839782
299.832914
299.82609
299.82052
299.817029
299.816587
299.816872
299.817332
299.817994
299.818659
299.818906
472.527649
471.572616
470.592885
469.588138
468.558058
467.502323
466.420596
465.31251
464.177658
463.015574
461.825721
460.607457
459.359645
458.080362
456.767621
455.41956
454.033931
452.608034
451.138662
449.622039
448.053794
446.428935
444.741849
442.986863
441.156769
439.242812
437.235255
435.123378
432.895492
430.53902
428.04062
425.386373
422.56202
419.55327
416.346188
412.927484
409.285091
405.408746
401.290621
396.926015
392.314093
387.458691
382.369159
377.061243
371.557953
365.890373
360.098327
354.230876
348.346476
342.51254
336.803956
331.302243
326.092937
321.259954
316.880062
313.015088
309.707796
306.975549
304.806297
303.155727
301.954237
301.123655
300.578218
300.23667
300.031813
299.912538
299.858862
299.844334
299.840009
299.834874
299.830934
299.826028
299.820281
299.816551
299.81507
299.815273
299.816226
299.817325
299.818628
299.821337
472.491402
471.463022
470.407883
469.325479
468.215257
467.076596
465.908792
464.710888
463.481291
462.218632
460.921293
459.587361
458.214953
456.802423
455.347542
453.847208
452.297849
450.695382
449.035151
447.311862
445.519561
443.651582
441.700485
439.658057
437.515282
435.262355
432.888731
430.383198
427.733999
424.928991
421.955852
418.802348
415.456573
411.907306
408.144507
404.159822
399.947167
395.503384
390.828978
385.928925
380.813548
375.499429
370.010338
364.378087
358.64323
352.855462
347.073543
341.364565
335.80244
330.465264
325.43118
320.77586
316.568613
312.861773
309.6894
307.060258
304.957486
303.340066
302.146825
301.305019
300.731423
300.35391
300.116623
299.973317
299.89316
299.857382
299.847108
299.842987
299.838059
299.831909
299.826396
299.822025
299.819683
299.818464
299.817978
299.817612
299.817768
299.819241
299.820336
299.821557
472.436867
471.29815
470.129591
468.930433
467.699803
466.436696
465.139515
463.806865
462.437586
461.029833
459.581477
458.090064
456.552786
454.966437
453.327367
451.631431
449.873944
448.049653
446.152701
444.176578
442.11412
439.957495
437.698209
435.327127
432.83452
430.210138
427.443308
424.523081
421.438411
418.178367
414.732327
411.090394
407.243805
403.185419
398.910275
394.41625
389.704791
384.781736
379.658197
374.351478
368.885981
363.294023
357.616464
351.903009
346.212033
340.609742
335.168388
329.963473
325.069876
320.55753
316.485941
312.898764
309.820455
307.257
305.189671
303.578307
302.366091
301.487163
300.874388
300.466001
300.204194
300.04152
299.94392
299.890234
299.86217
299.845592
299.834889
299.828825
299.825549
299.821808
299.819263
299.819173
299.81877
299.819026
299.821128
299.822781
299.824249
299.823354
299.822625
299.821663
472.368377
471.091114
469.780222
468.434699
467.053375
465.634781
464.177529
462.679819
461.139577
459.554404
457.921548
456.237862
454.499766
452.703209
450.843641
448.915979
446.914566
444.833165
442.66494
440.402455
438.03768
435.562019
432.966355
430.241117
427.376375
424.361975
421.187707
417.843436
414.319409
410.606597
406.697093
402.584586
398.264923
393.736757
389.002278
384.06803
378.945775
373.653382
368.215675
362.665168
357.042569
351.396936
345.785328
340.271797
334.925621
329.818584
325.02124
320.598627
316.605235
313.080998
310.048197
307.5071
305.436383
303.801871
302.553194
301.629013
300.96894
300.515359
300.21762
300.032476
299.92735
299.874108
299.849307
299.838136
299.832864
299.830578
299.827918
299.82534
299.822703
299.820919
299.819518
299.819321
299.819274
299.819476
299.820756
299.823105
299.827455
299.828872
299.826541
299.822992
472.289205
470.85181
469.376462
467.861926
466.306747
464.709258
463.06765
461.37971
459.642886
457.854247
456.010444
454.107683
452.141679
450.107635
448.000214
445.813521
443.541093
441.175894
438.710328
436.136268
433.445094
430.627764
427.674909
424.576953
421.324259
417.907298
414.316948
410.54482
406.583649
402.427766
398.073652
393.52058
388.771335
383.833002
378.717808
373.44395
368.036384
362.527458
356.957317
351.373921
345.832578
340.394827
335.126596
330.095551
325.367894
321.004056
317.054136
313.554964
310.526249
307.969829
305.869062
304.190941
302.88645
301.902925
301.18537
300.679006
300.335342
300.112722
299.975959
299.901353
299.870567
299.854715
299.845342
299.838301
299.833233
299.829447
299.826811
299.824371
299.821989
299.820145
299.818527
299.818177
299.81856
299.819171
299.820247
299.821773
299.824127
299.834008
299.834504
299.828694
472.201367
470.58632
468.928555
467.226621
465.478829
463.683275
461.83771
459.939514
457.98567
455.97273
453.89678
451.753407
449.537675
447.244104
444.866655
442.398737
439.833204
437.162393
434.37816
431.471946
428.434875
425.257872
421.93178
418.447587
414.796693
410.971229
406.964444
402.771171
398.388368
393.815739
389.056437
384.117816
379.012226
373.757792
368.379128
362.907898
357.383126
351.851147
346.36506
340.983596
335.769295
330.785987
326.095627
321.754708
317.811052
314.299871
311.239321
308.632275
306.465034
304.709796
303.326879
302.268671
301.482281
300.916158
300.52276
300.258645
300.087831
299.981216
299.918424
299.881461
299.857163
299.841877
299.834239
299.829137
299.825119
299.821866
299.819365
299.817965
299.817015
299.81657
299.81636
299.815873
299.816239
299.817412
299.818444
299.819326
299.821505
299.829855
299.838539
299.840039
472.106225
470.298764
468.443469
466.538701
464.58253
462.5727
460.506587
458.38116
456.192946
453.93799
451.61183
449.209473
446.725377
444.15345
441.487054
438.719031
435.841741
432.84713
429.726814
426.472202
423.074611
419.525504
415.816735
411.940867
407.891546
403.663951
399.255316
394.665529
389.897796
384.959359
379.862236
374.623953
369.268195
363.825313
358.332588
352.834146
347.380418
342.027048
336.833192
331.859194
327.163745
322.800643
318.815455
315.24257
312.102191
309.400273
307.128467
305.26427
303.774114
302.615381
301.740815
301.101824
300.649958
300.339883
300.135171
300.005357
299.926173
299.877198
299.851042
299.836376
299.829136
299.827416
299.826404
299.825009
299.822763
299.82023
299.818628
299.818475
299.818401
299.81799
299.817928
299.817223
299.817196
299.818398
299.819919
299.820373
299.819662
299.823288
299.836111
299.841995
472.004849
469.992371
467.926607
465.805698
463.627451
461.389299
459.08826
456.720896
454.283286
451.770989
449.179033
446.501898
443.733522
440.867318
437.89621
434.812693
431.60892
428.276801
424.808145
421.194867
417.429236
413.504169
409.413597
405.152889
400.719355
396.112805
391.336184
386.396238
381.304218
376.07655
370.735451
365.309399
359.833388
354.348858
348.903225
343.548897
338.341752
333.339058
328.596924
324.167457
320.095884
316.417786
313.157028
310.32381
307.915216
305.915822
304.29743
303.020949
302.04196
301.313278
300.788324
300.424136
300.181979
300.027108
299.932236
299.877257
299.84818
299.839218
299.834783
299.830536
299.828503
299.826763
299.826363
299.825374
299.823812
299.822447
299.8208
299.820227
299.82128
299.82302
299.824797
299.825421
299.825655
299.824898
299.824922
299.825829
299.824077
299.823031
299.830125
299.83899
471.898154
469.669906
467.38264
465.034276
462.622359
460.144014
457.595907
454.974215
452.274597
449.49218
446.621551
443.65677
440.591398
437.418549
434.130967
430.721119
427.181333
423.503991
419.681755
415.707858
411.576435
407.282935
402.824587
398.200932
393.414409
388.470995
383.380846
378.158949
372.825691
367.407326
361.936237
356.45093
350.995668
345.619669
340.375804
335.318792
330.502927
325.979518
321.79419
317.984372
314.577177
311.58774
309.018416
306.858178
305.083138
303.660306
302.549946
301.707357
301.086717
300.643863
300.338428
300.135649
300.006951
299.929009
299.884281
299.861045
299.848323
299.839536
299.833304
299.829031
299.824858
299.822658
299.822047
299.82236
299.822273
299.822386
299.822893
299.82309
299.823822
299.825947
299.828115
299.83015
299.833258
299.836487
299.837885
299.839353
299.8404
299.838113
299.830998
299.83276
471.787246
469.33471
466.817203
464.23243
461.577678
458.849779
456.045078
453.159406
450.188068
447.125847
443.967017
440.705386
437.334362
433.847039
430.23632
426.495087
422.616419
418.593854
414.421704
410.095434
405.612097
400.970833
396.173416
391.224848
386.133975
380.914091
375.583499
370.165972
364.691047
359.194085
353.716023
348.302749
343.004052
337.872122
332.959591
328.317235
323.991323
320.021176
316.436861
313.257661
310.49077
308.131257
306.161547
304.553685
303.271415
302.274455
301.520626
300.96754
300.574654
300.304922
300.126177
300.012311
299.942571
299.900962
299.875273
299.857907
299.844956
299.836802
299.829354
299.823639
299.820545
299.818396
299.818191
299.819561
299.821155
299.82172
299.821952
299.822883
299.823981
299.824868
299.827271
299.829544
299.831273
299.834641
299.838364
299.841837
299.84353
299.841961
299.83688
299.831805
472.615642
471.838495
471.04112
470.223158
469.384248
468.524022
467.642106
466.738116
465.811658
464.862319
463.889668
462.893249
461.872577
460.827129
459.756342
458.659597
457.536221
456.385467
455.206504
453.998406
452.760135
451.490519
450.188237
448.85179
447.479479
446.069371
444.619267
443.126669
441.58873
440.00222
438.363467
436.668315
434.912067
433.089499
431.194934
429.222116
427.164224
425.013923
422.763456
420.404576
417.927871
415.323698
412.582245
409.693538
406.646058
403.411446
399.989766
396.387974
392.603985
388.640677
384.506352
380.215647
375.790494
371.264857
366.683612
362.103041
357.590373
353.221996
349.079964
345.246596
341.797266
338.791979
336.266881
334.227278
332.644169
331.456842
330.582898
329.933237
329.42632
328.996704
328.595707
328.187511
327.748094
327.270376
326.764169
326.257961
325.791967
325.405518
325.120319
325.006823
472.617677
471.84465
471.051507
470.237892
469.403441
468.547784
467.670538
466.771311
465.849694
464.905258
463.93755
462.946089
461.930355
460.889787
459.82377
458.731631
457.612621
456.465912
455.290573
454.085562
452.849704
451.581674
450.279972
448.9429
447.568531
446.154683
444.698886
443.198344
441.6499
440.050002
438.394662
436.67943
434.899364
433.048867
431.121703
429.111029
427.009377
424.808663
422.500201
420.074737
417.522597
414.83402
411.999049
408.993019
405.806504
402.446404
398.906348
395.18379
391.279977
387.200906
382.958209
378.569914
374.06375
369.479173
364.866566
360.287246
355.812288
351.519809
347.49043
343.800971
340.516917
337.684783
335.325275
333.429278
331.959647
330.856206
330.0425
329.434794
328.953582
328.535696
328.13923
327.740643
327.327336
326.89695
326.461095
326.051237
325.714863
325.542457
325.564355
325.826126
472.615832
471.839077
471.042116
470.224591
469.386138
468.526379
467.644927
466.741381
465.81532
464.866307
463.893874
462.897524
461.876723
460.830887
459.759381
458.661503
457.536474
456.383428
455.201393
453.989278
452.745852
451.469724
450.159319
448.812852
447.428294
446.003343
444.535381
443.021442
441.458167
439.841774
438.168014
436.432133
434.628836
432.752254
430.795913
428.752724
426.614999
424.374499
422.022553
419.547537
416.934674
414.17036
411.243547
408.156885
404.901196
401.469965
397.859037
394.067464
390.098313
385.959511
381.664623
377.233454
372.697473
368.098774
363.489766
358.932898
354.499785
350.268229
346.318083
342.724632
339.549721
336.828766
334.573335
332.777243
331.398694
330.367067
329.597964
329.015267
328.556951
328.164704
327.794517
327.418926
327.036964
326.662025
326.312332
326.004283
325.773701
325.743631
325.977565
326.482912
472.609912
471.821196
471.011975
470.181892
469.33058
468.457661
467.562742
466.645419
465.70527
464.741855
463.754707
462.743333
461.707202
460.64574
459.558321
458.444257
457.302785
456.133055
454.934117
453.704907
452.444229
451.150742
449.822933
448.459098
447.057317
445.615434
444.130794
442.600226
441.02015
439.38652
437.694748
435.939618
434.115531
432.216393
430.23533
428.164669
425.995915
423.719725
421.325855
418.805754
416.152949
413.359237
410.414372
407.309711
404.037866
400.5933
396.972962
393.177016
389.209621
385.079717
380.80177
376.396312
371.896784
367.348248
362.808746
358.35282
354.025981
349.91
346.065162
342.541187
339.36265
336.673106
334.505579
332.706117
331.255652
330.113589
329.298447
328.725123
328.250715
327.843107
327.461372
327.138948
326.838193
326.554726
326.282038
326.050292
325.968771
326.068678
326.436568
327.142901
472.599702
471.790349
470.959968
470.108205
469.234688
468.339036
467.420858
466.479749
465.515293
464.527058
463.514594
462.477427
461.415059
460.326955
459.212542
458.0712
456.902258
455.704846
454.4779
453.220258
451.930759
450.608074
449.250674
447.856803
446.424433
444.951223
443.434695
441.872178
440.260601
438.596463
436.875809
435.094212
433.246443
431.326485
429.327751
427.243049
425.06459
422.784041
420.392632
417.881338
415.241029
412.462568
409.537093
406.45648
403.213818
399.803937
396.223955
392.473772
388.556176
384.477182
380.268949
375.949878
371.544173
367.086858
362.628433
358.225987
353.942027
349.857281
346.039777
342.553746
339.462927
336.773105
334.498473
332.656433
331.200267
330.084211
329.260005
328.689582
328.211604
327.803681
327.44001
327.09153
326.803096
326.559063
326.380597
326.33075
326.436078
326.775904
327.388369
328.224739
472.585018
471.745981
470.885158
470.002183
469.096682
468.168265
467.216533
466.24108
465.241486
464.217324
463.168152
462.093513
460.99293
459.86581
458.711457
457.529235
456.318438
455.078409
453.808506
452.507976
451.175817
449.810906
448.411976
446.977591
445.506122
443.995712
442.444249
440.849324
439.208181
437.517674
435.774208
433.973688
432.111465
430.182295
428.180304
426.098977
423.931151
421.669045
419.30432
416.828177
414.231505
411.505076
408.639805
405.627054
402.458973
399.128819
395.631209
391.97982
388.180171
384.238022
380.151679
375.946784
371.65939
367.315038
362.961415
358.653932
354.454507
350.429859
346.646474
343.166069
340.040141
337.301903
334.96839
333.03975
331.491647
330.283387
329.364863
328.676282
328.166762
327.757543
327.4053
327.10444
326.859557
326.679206
326.593253
326.636073
326.863098
327.251427
327.750514
328.499151
472.565699
471.687603
470.786711
469.862645
468.915013
467.943414
466.947436
465.926664
464.880674
463.809039
462.711326
461.587014
460.435591
459.256654
458.049846
456.814673
455.550617
454.257126
452.933612
451.579429
450.193869
448.776136
447.325337
445.840456
444.32033
442.763619
441.168772
439.533987
437.857165
436.135862
434.367234
432.547978
430.674279
428.741748
426.745374
424.679481
422.537704
420.312985
417.997603
415.583238
413.061095
410.422081
407.657069
404.757244
401.714563
398.522334
395.176667
391.684732
388.047019
384.270365
380.358073
376.325867
372.195219
367.998084
363.77727
359.583213
355.472777
351.507109
347.748311
344.255396
341.079756
338.260235
335.819872
333.76403
332.079126
330.734888
329.688723
328.890393
328.287828
327.82772
327.467837
327.1839
326.969151
326.82907
326.794364
326.859923
327.074912
327.404193
327.825665
328.631647
472.541631
471.614873
470.664056
469.688781
468.688639
467.663211
466.612073
465.534799
464.430966
463.300147
462.141874
460.955819
459.741638
458.498965
457.227443
455.926724
454.596466
453.23633
451.845974
450.425047
448.97318
447.489976
445.974996
444.42774
442.847625
441.233959
439.585909
437.902459
436.182366
434.424108
432.625828
430.785265
428.899688
426.965827
424.979802
422.937058
420.832315
418.65953
416.411886
414.081821
411.661095
409.140926
406.512185
403.765679
400.892529
397.884646
394.734798
391.448963
388.028309
384.478197
380.792488
376.982654
373.065854
369.064794
365.015601
360.963439
356.960064
353.062152
349.328657
345.817337
342.580695
339.661704
337.090095
334.879789
333.027782
331.515009
330.309073
329.368218
328.646197
328.09713
327.681042
327.368634
327.145049
327.009009
326.982986
327.035259
327.195249
327.445329
327.829731
328.557288
472.512759
471.527627
470.516912
469.480193
468.417035
467.326999
466.209645
465.064537
463.891254
462.689385
461.458608
460.198586
458.909013
457.589621
456.240182
454.86051
453.45046
452.009934
450.538877
449.037276
447.505157
445.942578
444.349622
442.726381
441.072938
439.389348
437.675603
435.931597
434.157081
432.351611
430.514483
428.644668
426.740732
424.800755
422.822246
420.802056
418.736303
416.620301
414.448514
412.214534
409.911101
407.530174
405.063065
402.50066
399.833742
397.053446
394.151903
391.112695
387.956286
384.685751
381.291728
377.772575
374.139502
370.409463
366.605024
362.761209
358.922326
355.138482
351.463788
347.953695
344.661586
341.634932
338.911479
336.516074
334.45864
332.733742
331.321848
330.192084
329.306193
328.623256
328.104389
327.716857
327.438305
327.258652
327.181195
327.180808
327.289376
327.488319
327.901895
328.528318
472.479206
471.426228
470.345894
469.237747
468.101323
466.936156
465.74179
464.517785
463.263732
461.979269
460.664061
459.317824
457.940328
456.531409
455.090973
453.619003
452.115568
450.580822
449.015016
447.418497
445.79171
444.135199
442.4496
440.735637
438.994105
437.225851
435.431752
433.612677
431.769442
429.902761
428.013184
426.101017
424.166247
422.208447
420.22668
418.219394
416.184328
414.118413
412.017693
409.877265
407.691254
405.452823
403.154247
400.787046
398.342191
395.810386
393.182407
390.445275
387.577676
384.612881
381.553509
378.390199
375.113325
371.732832
368.26399
364.727707
361.152931
357.580357
354.055725
350.628124
347.347606
344.262224
341.414759
338.839516
336.559659
334.585531
332.914259
331.530766
330.410113
329.520933
328.829135
328.301814
327.911652
327.638788
327.4733
327.411611
327.435562
327.562065
327.924981
328.351215
472.441355
471.311837
470.152953
468.964207
467.745098
466.495134
465.213838
463.900758
462.55548
461.177636
459.766918
458.323088
456.845987
455.335551
453.791818
452.214937
450.605185
448.962973
447.288854
445.583536
443.847885
442.082932
440.289874
438.470066
436.62502
434.756385
432.865928
430.955501
429.027002
427.08232
425.123274
423.15154
421.168558
419.175441
417.172864
415.160953
413.139165
411.106174
409.059765
406.996735
404.912824
402.802686
400.659892
398.477009
396.245746
393.957205
391.602268
389.172165
386.659691
384.034668
381.299152
378.493238
375.61019
372.643293
369.584168
366.445568
363.24558
360.007168
356.761777
353.549003
350.41109
347.391017
344.530189
341.865911
339.428933
337.241385
335.315413
333.652741
332.245275
331.076685
330.12435
329.362547
328.766659
328.311782
327.982042
327.770399
327.682222
327.703816
327.902312
328.070114
472.400001
471.18686
469.94215
468.665322
467.355832
466.013145
464.63675
463.22617
461.780978
460.300807
458.785366
457.234453
455.647973
454.025949
452.368539
450.67605
448.948955
447.187905
445.393745
443.567527
441.710523
439.824231
437.910384
435.970951
434.008132
432.024347
430.022221
428.004552
425.974274
423.934408
421.887997
419.838035
417.787368
415.738603
413.693985
411.655284
409.623662
407.599544
405.582494
403.571096
401.56286
399.554148
397.540143
395.514863
393.471235
391.401233
389.29609
387.146575
384.943313
382.676934
380.340484
377.902957
375.369001
372.790704
370.160899
367.474736
364.720192
361.912087
359.069866
356.216941
353.379535
350.592264
347.890112
345.30686
342.873305
340.615506
338.553333
336.699497
335.059154
333.630118
332.403251
331.363922
330.49572
329.779934
329.182906
328.710588
328.358737
328.122681
328.108533
328.198748
472.356417
471.055135
469.71995
468.35025
466.945432
465.504913
464.028138
462.514597
460.96384
459.375491
457.749267
456.084995
454.382628
452.642266
450.864173
449.048797
447.19679
445.309024
443.386614
441.430931
439.443622
437.426623
435.382166
433.312788
431.221327
429.110918
426.984975
424.847166
422.701374
420.551651
418.402155
416.257076
414.120538
411.996505
409.888656
407.800264
405.734059
403.69209
401.675587
399.684833
397.719044
395.77628
393.853382
391.945943
390.048343
388.153832
386.254694
384.342471
382.408254
380.443006
378.438021
376.385323
374.280779
372.087295
369.810044
367.512535
365.193253
362.846239
360.466522
358.058311
355.641276
353.237469
350.870297
348.563302
346.339203
344.222522
342.234095
340.390336
338.702693
337.177349
335.814965
334.610718
333.55632
332.640668
331.841603
331.131615
330.516643
330.003675
329.591765
329.286571
472.31242
470.922159
469.495624
468.032133
466.531017
464.991633
463.413376
461.795694
460.138108
458.440224
456.70176
454.922558
453.102612
451.242087
449.34134
447.400944
445.421713
443.404722
441.351332
439.263207
437.14234
434.991065
432.812072
430.608415
428.383514
426.14115
423.88545
421.620862
419.352117
417.084177
414.822175
412.571336
410.336877
408.123909
405.93731
403.781603
401.660815
399.578338
397.536789
395.537875
393.582274
391.669536
389.798008
387.964796
386.165765
384.395576
382.647787
380.915025
379.189247
377.462066
375.725131
373.970627
372.192017