/*--------------------------------*- C++ -*----------------------------------*\
  =========                 |
  \\      /  F ield         | OpenFOAM: The Open Source CFD Toolbox
   \\    /   O peration     | Website:  https://openfoam.org
    \\  /    A nd           | Version:  8
     \\/     M anipulation  |
\*---------------------------------------------------------------------------*/
FoamFile
{
    version     2.0;
    format      ascii;
    class       volVectorField;
    location    "0.072";
    object      U;
}
// * * * * * * * * * * * * * * * * * * * * * * * * * * * * * * * * * * * * * //

dimensions      [0 1 -1 0 0 0 0];

internalField   nonuniform List<vector> 
42400
(
(-0.0168791724 0.016142622 -8.50869158e-27)
(-0.050239586 0.0471123759 2.74104954e-26)
(-0.0838120978 0.0771789454 2.68709186e-26)
(-0.117651227 0.106353488 0)
(-0.151801549 0.134693381 0)
(-0.186288503 0.162206968 -5.42091784e-28)
(-0.221106948 0.188861075 0)
(-0.256228772 0.214599849 5.99404309e-28)
(-0.29161373 0.239358184 0)
(-0.327214968 0.263068606 6.63740189e-28)
(-0.362980813 0.285664716 6.9883403e-28)
(-0.398855481 0.307083392 -7.36054334e-28)
(-0.434779691 0.327266508 7.8411788e-27)
(-0.47069126 0.346162313 1.30493512e-26)
(-0.506525634 0.363726506 -8.619904e-28)
(-0.542216332 0.379923056 0)
(-0.577695323 0.394724868 0)
(-0.612893309 0.408114286 0)
(-0.647739855 0.420083482 0)
(-0.682163354 0.430634679 0)
(-0.716090756 0.439780236 0)
(-0.749447062 0.447542576 -2.52951076e-27)
(-0.782154573 0.453953968 7.64023725e-26)
(-0.81413186 0.459056171 1.74867824e-25)
(-0.845292464 0.462899941 9.92126214e-26)
(-0.875543281 0.465544401 -3.18675497e-27)
(-0.904782581 0.467056288 -3.38207702e-27)
(-0.93289756 0.467509111 7.18458429e-27)
(-0.959761302 0.466982264 0)
(-0.985229319 0.465560127 0)
(-1.00913632 0.463330535 -1.7743e-25)
(-1.03129177 0.4603809 -1.93885041e-25)
(-1.05147052 0.456790653 9.87295346e-27)
(-1.06940384 0.45262249 2.29581173e-25)
(-1.08484489 0.447958168 2.38527308e-25)
(-1.09757753 0.442921485 0)
(-1.10701823 0.438041376 0)
(-1.11286128 0.432583877 0)
(-1.11456811 0.426823334 0)
(-1.1114746 0.420720041 4.22080659e-25)
(-1.10371358 0.414952032 3.79457494e-25)
(-1.08886769 0.40977383 3.78322648e-25)
(-1.06622765 0.404354682 8.90116799e-25)
(-1.03406157 0.398535587 -4.68652428e-26)
(-0.989966972 0.39261541 -6.02861121e-25)
(-0.933676439 0.385811778 -8.13297909e-25)
(-0.862794587 0.378896454 5.94606873e-26)
(-0.775133683 0.371714297 8.55291016e-25)
(-0.668387488 0.36416381 6.68990553e-26)
(-0.540571882 0.355924381 1.12906362e-24)
(-0.387417981 0.347347345 4.11115763e-33)
(-0.209084617 0.338602202 -2.95463306e-24)
(0.00433307743 0.331167093 -1.85282881e-24)
(0.247265888 0.324940828 2.00318945e-25)
(0.540701028 0.316454064 0)
(0.884571529 0.305828992 0)
(1.28253241 0.294777032 0)
(1.74223002 0.284219177 -2.7807243e-25)
(2.27072216 0.273962222 -2.91388523e-25)
(2.87283853 0.2639133 0)
(3.55369142 0.254495954 8.14794688e-24)
(4.31772859 0.246284998 9.30302211e-24)
(5.16849056 0.239778841 -9.75472796e-24)
(6.10750825 0.236019158 -1.04077958e-23)
(7.13531605 0.234923923 0)
(8.24858639 0.242022686 0)
(9.42488151 0.25318916 -9.15525977e-24)
(10.7327226 0.20755914 -9.35327965e-24)
(12.0388449 0.247740695 -9.04022737e-26)
(13.168336 0.529438331 0)
(14.8984783 0.0231712374 0)
(16.683894 -0.495022804 1.87213631e-25)
(17.0915364 0.87619827 6.64000822e-25)
(17.9279105 1.87308377 0)
(20.1894988 -0.308473233 1.95866039e-25)
(22.0656102 -1.35880762 1.57059667e-23)
(22.4929363 -0.208179562 4.00993218e-24)
(22.3180284 1.95206606 -2.60882041e-24)
(23.2583145 1.53695583 -4.28936182e-24)
(23.6825815 0.2894744 -2.52404877e-24)
(-0.0209617996 0.0185600871 0)
(-0.0618849451 0.0540756522 2.1849977e-26)
(-0.102592009 0.0885513213 2.07345766e-26)
(-0.143211049 0.122071733 0)
(-0.183853476 0.154746183 0)
(-0.224579453 0.186617248 1.30678025e-26)
(-0.265397271 0.217671133 1.13635758e-26)
(-0.306275442 0.247858311 9.55346938e-28)
(-0.347157276 0.277109258 0)
(-0.387969847 0.305343935 1.05601781e-27)
(-0.428628848 0.332477751 1.11052869e-27)
(-0.469041887 0.358425971 5.98683499e-27)
(-0.509111111 0.383107251 2.20727052e-26)
(-0.548735243 0.406446385 1.52051909e-26)
(-0.587811014 0.428376324 -2.17089116e-26)
(-0.626234062 0.448839605 -2.29804175e-26)
(-0.663899391 0.467789304 0)
(-0.700701457 0.485189651 3.19501663e-27)
(-0.736533928 0.501016372 0)
(-0.771289124 0.515256798 0)
(-0.804857166 0.527909801 0)
(-0.837124822 0.53898558 6.30926275e-26)
(-0.86797407 0.548505336 1.46430238e-25)
(-0.89728035 0.556500886 8.40447861e-26)
(-0.924910425 0.563014197 0)
(-0.950719801 0.568096785 -9.67355402e-27)
(-0.974549586 0.571808692 -5.06573753e-27)
(-0.996222466 0.574216457 1.06867694e-26)
(-1.01553641 0.575390444 1.35551953e-25)
(-1.03225619 0.575403317 1.47682445e-25)
(-1.04613108 0.574339273 -1.26859207e-26)
(-1.05691437 0.572282534 -1.33171657e-26)
(-1.0643645 0.569302301 2.24582234e-25)
(-1.06793674 0.565871289 2.42646253e-25)
(-1.06759951 0.561443769 -3.02047645e-25)
(-1.06248956 0.556527238 -3.16162767e-25)
(-1.05236545 0.550907073 0)
(-1.03683683 0.54532996 1.92471499e-26)
(-1.01378532 0.539587421 0)
(-0.982364407 0.533022406 4.42987251e-26)
(-0.940369665 0.526201577 4.21604767e-25)
(-0.88775445 0.518361654 4.45817293e-25)
(-0.822494077 0.510255822 5.10663066e-26)
(-0.742868094 0.501858673 -5.36296848e-26)
(-0.647063519 0.493097089 1.13901389e-25)
(-0.532979558 0.483950719 -5.89167624e-26)
(-0.398809522 0.474080152 6.2827068e-26)
(-0.240322466 0.463686423 8.26572304e-25)
(-0.0554651534 0.454208928 1.05877041e-24)
(0.155249199 0.446477307 0)
(0.404995072 0.436930565 -8.31269562e-26)
(0.702052822 0.424775611 1.74290427e-25)
(1.04518874 0.41171096 1.36345779e-24)
(1.44138497 0.398981532 1.96414975e-24)
(1.89760812 0.386449567 2.13360113e-25)
(2.41898869 0.373885349 4.68075715e-24)
(3.01106622 0.361544848 5.32681012e-24)
(3.67916517 0.34975279 -2.20200521e-25)
(4.42816646 0.338865483 -2.16475355e-25)
(5.26180104 0.33004243 7.56274763e-24)
(6.18226886 0.324782576 8.3087423e-24)
(7.18877976 0.32403873 1.63220602e-25)
(8.27850176 0.328686706 -1.43018529e-25)
(9.44279261 0.340515833 0)
(10.6745523 0.354557087 -8.80240307e-24)
(11.9655468 0.376639027 -1.63961272e-23)
(13.2456239 0.442651827 -7.73480957e-24)
(14.616936 0.440839872 0)
(16.0899244 0.310968244 4.01984989e-26)
(17.1294458 0.670627037 3.49712106e-25)
(18.2514259 0.984864815 1.02077852e-23)
(20.1814942 -0.0539247969 1.22617587e-23)
(21.3070245 -0.278003511 -7.31658061e-24)
(21.4061608 1.43278796 -8.81003074e-24)
(22.1538591 1.73287276 5.77471865e-26)
(23.410286 0.362820481 7.78592797e-24)
(23.8535546 -0.192477859 1.46107426e-23)
(23.8912678 0.294650516 -4.1969659e-24)
(23.8920939 0.855120318 -1.37133018e-23)
(23.8344382 0.834049316 -2.0228562e-23)
(-0.0244115894 0.019984398 2.51383776e-27)
(-0.0717059413 0.0581776099 4.57667597e-28)
(-0.118406493 0.0952706966 -4.84066887e-28)
(-0.164719232 0.131412107 5.07302472e-28)
(-0.210798663 0.166742277 0)
(-0.256739316 0.201330853 -9.00043131e-27)
(-0.302560896 0.235181997 1.10528222e-33)
(-0.348224074 0.268252541 3.88378864e-27)
(-0.393652052 0.300470076 9.15566196e-28)
(-0.438741858 0.331744972 -4.71215544e-27)
(-0.48337201 0.361978251 -4.4848911e-27)
(-0.527408297 0.391067663 1.53230242e-27)
(-0.570708358 0.418912621 1.61214392e-27)
(-0.613125084 0.445418022 -1.8722877e-26)
(-0.654508918 0.470497022 -2.3692791e-26)
(-0.694709185 0.494072941 5.63810551e-27)
(-0.733574616 0.516080477 3.07766335e-26)
(-0.770953249 0.536466425 8.16468551e-26)
(-0.806691777 0.555190027 4.73090307e-26)
(-0.840634468 0.572223047 4.61881211e-27)
(-0.87262164 0.587549675 -4.85665958e-27)
(-0.902487633 0.601166319 -5.10574505e-27)
(-0.930058084 0.613081263 0)
(-0.95514677 0.623314213 1.12283766e-26)
(-0.977551609 0.631895426 -9.46230093e-26)
(-0.997050483 0.638863745 6.36807951e-29)
(-1.01340201 0.644263762 1.12762162e-25)
(-1.0263515 0.648140071 1.21808331e-25)
(-1.03563297 0.650535497 1.36424645e-25)
(-1.04086294 0.651619783 -1.42461846e-25)
(-1.041883 0.651310386 -1.54578217e-26)
(-1.03825983 0.649861547 3.76836764e-25)
(-1.02948366 0.647480967 2.45755805e-25)
(-1.01536144 0.644030062 0)
(-0.994794272 0.640071789 0)
(-0.966384523 0.635150837 -2.04313286e-26)
(-0.929128577 0.629032041 0)
(-0.881237748 0.622123144 4.56374349e-26)
(-0.82260222 0.614165452 3.13830319e-25)
(-0.751456718 0.605678616 9.85331185e-26)
(-0.666222239 0.59669086 -3.06762374e-25)
(-0.565024652 0.587040229 0)
(-0.445621489 0.576528605 0)
(-0.305568796 0.565242133 5.11676365e-25)
(-0.144905334 0.553667922 7.15079983e-25)
(0.0435207583 0.543417435 6.62282244e-26)
(0.253752949 0.534842372 0)
(0.507725246 0.523850595 0)
(0.803362566 0.510619338 8.67735494e-25)
(1.14456341 0.497153232 1.028203e-24)
(1.53762808 0.48412199 -8.35503298e-26)
(1.98749462 0.471388163 0)
(2.49944404 0.459005902 -1.29094245e-24)
(3.07914249 0.447198084 -1.72876382e-24)
(3.73215307 0.43620123 -3.91525333e-24)
(4.46357311 0.426677659 -4.41640975e-24)
(5.27734614 0.419620379 -5.33031207e-24)
(6.17566153 0.416014389 -2.02130654e-32)
(7.15866387 0.416708724 2.22264527e-32)
(8.22354645 0.422443645 -1.59444714e-23)
(9.36563421 0.434435089 -8.23933913e-24)
(10.5745013 0.453829207 8.27384997e-24)
(11.8390364 0.48060972 8.31943698e-24)
(13.1388736 0.519440748 0)
(14.4573096 0.566971777 8.52561502e-24)
(15.7996922 0.60403361 1.63627326e-23)
(17.0670458 0.688150063 7.8833344e-24)
(18.2633688 0.83936569 0)
(19.5971909 0.73570754 -4.17060063e-26)
(20.793924 0.629308674 7.34781333e-24)
(21.4334598 1.22035999 8.17939684e-24)
(22.3523874 1.33341318 0)
(23.5057613 0.512539986 0)
(23.8825884 0.615134337 1.26227543e-24)
(23.9525821 1.09391068 -7.54587922e-25)
(23.8550721 1.487964 7.19229491e-24)
(23.9164778 1.14087297 1.51607448e-23)
(23.9390085 0.87687487 0)
(23.9561126 0.811167974 -1.86950114e-24)
(23.9579893 0.79512651 6.09481571e-24)
(-0.0272847708 0.0206155429 3.48067037e-28)
(-0.079874939 0.0599590614 5.47555012e-28)
(-0.131552195 0.0981598316 5.63060826e-27)
(-0.182585895 0.13541338 -3.41362418e-27)
(-0.233187791 0.171893319 -3.69685987e-27)
(-0.283464251 0.207682807 0)
(-0.333424686 0.24279273 -2.66754105e-27)
(-0.383033232 0.277187652 -1.24483605e-27)
(-0.432183209 0.310796911 3.3394927e-27)
(-0.48073583 0.343525045 6.7149686e-27)
(-0.528527933 0.375263838 1.3953796e-26)
(-0.575378422 0.405899679 4.47107458e-34)
(-0.621094443 0.435319242 1.94594465e-27)
(-0.665476094 0.463413978 2.6222704e-33)
(-0.708319529 0.490083445 -2.15558703e-27)
(-0.749418595 0.515237547 3.94726856e-26)
(-0.788565292 0.538797932 -4.58479962e-26)
(-0.82554918 0.560698843 -4.9846878e-27)
(-0.860155903 0.580887666 5.4782897e-26)
(-0.89216529 0.599325276 5.49659481e-27)
(-0.921349145 0.615985664 -1.15863443e-26)
(-0.947464928 0.630850772 -7.83461338e-26)
(-0.970253264 0.643907048 -8.67525407e-26)
(-0.989440048 0.655146955 6.67008747e-27)
(-1.00473662 0.664566868 0)
(-1.01584903 0.67220656 7.28082195e-27)
(-1.02249283 0.678139141 0)
(-1.02434094 0.682470502 1.54702992e-25)
(-1.02103675 0.685392406 3.15501065e-25)
(-1.01226758 0.686916957 1.74019144e-25)
(-0.997232971 0.687238997 -1.54688658e-25)
(-0.974799391 0.686101278 -1.78539335e-25)
(-0.944130931 0.683441277 4.05062189e-26)
(-0.904034855 0.679329748 2.13806134e-26)
(-0.853495084 0.673922424 -2.37693995e-25)
(-0.791857243 0.667410971 -2.82755188e-25)
(-0.717614339 0.659998924 0)
(-0.62914621 0.65170991 3.14554569e-25)
(-0.524681664 0.642460159 3.03235855e-25)
(-0.402092969 0.632154883 5.28295879e-26)
(-0.259298237 0.620849263 5.61108269e-26)
(-0.0957755232 0.609219804 0)
(0.0948833263 0.599109584 0)
(0.304602376 0.590626287 0)
(0.560740564 0.579504153 6.75278628e-26)
(0.855907307 0.566242618 7.06951828e-25)
(1.19476819 0.553607508 7.26477164e-25)
(1.58338554 0.541957638 0)
(2.02616914 0.531035794 0)
(2.52842303 0.521023651 1.00038105e-24)
(3.09578239 0.512197195 1.09121182e-24)
(3.73366476 0.505066466 1.39582073e-24)
(4.44698561 0.500357393 1.62369547e-24)
(5.23949803 0.49882674 -1.70232431e-25)
(6.11337353 0.50113079 -2.3567687e-24)
(7.06891485 0.507839735 -2.4335004e-24)
(8.10456217 0.519578238 -6.02525623e-24)
(9.21620791 0.537136747 -6.8920501e-24)
(10.3978319 0.560838511 0)
(11.6379797 0.591332271 2.69930056e-26)
(12.9214246 0.630068968 -7.84143674e-24)
(14.2268129 0.679174093 -1.6025085e-23)
(15.5375143 0.735301234 8.91366923e-26)
(16.8294438 0.798063716 1.2811164e-25)
(18.0718226 0.875456426 -8.96803907e-24)
(19.2734559 0.943505303 8.59942129e-24)
(20.3970527 0.978463048 8.62472637e-24)
(21.3699674 1.12057301 -6.03108984e-25)
(22.1894151 1.24777818 -7.75869634e-24)
(23.1277118 1.09628108 -1.42939029e-23)
(23.7357288 1.05005137 7.42632513e-26)
(23.8884183 1.30590453 -1.17365948e-23)
(23.9224427 1.39138899 -1.03449107e-23)
(23.9376053 1.23426435 0)
(23.9525512 1.17718659 -9.1651857e-24)
(23.9428284 1.17184781 -3.48490052e-23)
(23.9403734 1.29469068 5.82237661e-25)
(23.9316741 1.21772951 1.13815925e-23)
(23.9396268 1.18281331 6.91591348e-24)
(23.9404399 1.1171612 8.41939858e-24)
(-0.0298511864 0.0207711249 2.03798804e-27)
(-0.0871521255 0.0603106471 0)
(-0.143240283 0.0986302622 0)
(-0.198440945 0.135957876 1.0850078e-30)
(-0.252999231 0.172488275 0)
(-0.3070424 0.208325274 0)
(-0.360590721 0.243489441 0)
(-0.413549415 0.277936646 -3.47252205e-27)
(-0.465774335 0.311594703 0)
(-0.517114478 0.344369531 1.9327993e-27)
(-0.567348558 0.376155435 1.86719426e-26)
(-0.616239281 0.406832864 2.68114431e-33)
(-0.66353551 0.436282453 -2.20188634e-26)
(-0.708975613 0.464390102 0)
(-0.752290944 0.491050261 -2.49154199e-27)
(-0.793207821 0.516168254 5.25092806e-27)
(-0.831447878 0.539661309 0)
(-0.866722859 0.561456055 5.7158509e-26)
(-0.898731149 0.581488198 6.12007654e-27)
(-0.927159941 0.599707016 -1.38306571e-25)
(-0.951707841 0.616042963 -8.52126275e-26)
(-0.972043429 0.63056435 6.97951097e-27)
(-0.987883006 0.643264901 0)
(-0.998895672 0.654201532 -1.1981392e-25)
(-1.00472455 0.66346784 -1.3291624e-25)
(-1.00483938 0.671007223 -1.35875808e-25)
(-0.998505948 0.676767413 -1.54186607e-25)
(-0.985077736 0.680746625 1.64107884e-25)
(-0.963786726 0.682948773 1.67089791e-25)
(-0.93367858 0.683399989 0)
(-0.893891109 0.682250879 -2.0611844e-25)
(-0.843764054 0.679713423 -2.22183557e-25)
(-0.782070819 0.675895429 2.24548893e-26)
(-0.707484684 0.670846307 -2.25778439e-25)
(-0.618437094 0.664617029 -2.63920814e-25)
(-0.51303303 0.65719714 -5.09673836e-26)
(-0.389258772 0.64849908 2.63947883e-26)
(-0.245453043 0.638637249 -3.38777364e-25)
(-0.0804559217 0.628493697 -4.37392588e-25)
(0.111024342 0.6197386 4.44744903e-25)
(0.322073507 0.612318042 6.71201508e-25)
(0.578031731 0.602369565 4.24796339e-25)
(0.872003564 0.590725492 0)
(1.20809848 0.580243529 -7.07415451e-26)
(1.59196555 0.571182871 -5.78717196e-25)
(2.02772624 0.56325644 -7.4081964e-26)
(2.52062043 0.556864444 1.47279742e-32)
(3.07617384 0.552559574 -7.70206901e-25)
(3.69949381 0.550982879 0)
(4.39511476 0.552770502 -8.03643542e-26)
(5.16657234 0.558588419 -1.46007076e-24)
(6.01603083 0.569095416 -1.52868075e-24)
(6.94407759 0.584936335 -2.76519046e-25)
(7.94940475 0.60675945 -2.40306813e-24)
(9.02856917 0.635111118 -2.54947497e-24)
(10.1755262 0.670498301 -3.02036421e-24)
(11.3823212 0.712256694 -9.67386627e-24)
(12.6364897 0.760411173 -6.82880759e-24)
(13.920892 0.815091821 -7.20075048e-24)
(15.2159354 0.876225155 -7.65660178e-24)
(16.4997653 0.942037705 0)
(17.7460539 1.01585815 1.25725415e-25)
(18.9292938 1.09336621 -8.53107606e-24)
(20.0388794 1.16531172 -9.18281769e-24)
(21.0393693 1.23094383 -4.81218362e-26)
(21.9235707 1.30608563 0)
(22.6938356 1.32797129 1.18851103e-23)
(23.3494746 1.32665632 1.25200919e-23)
(23.7879429 1.39392942 6.98090951e-25)
(23.8734766 1.43899443 -7.24688421e-25)
(23.8712907 1.46212357 -4.01352415e-26)
(23.9121982 1.4058233 -7.34407763e-25)
(23.9292999 1.37790788 -1.32807803e-23)
(23.9342079 1.38084601 -8.71079397e-24)
(23.926158 1.32841475 -6.98546696e-25)
(23.9317601 1.35294143 0)
(23.9373456 1.29886842 -9.89192399e-24)
(23.94905 1.26158299 -1.20517732e-23)
(23.9636596 1.24591752 0)
(23.9553633 1.17974261 -1.57114905e-23)
(-0.0323831006 0.0206953657 -3.24338865e-27)
(-0.0942967727 0.0599381537 -4.27107088e-27)
(-0.154663184 0.0978316608 -5.16866378e-27)
(-0.213852136 0.13462309 -8.01808684e-28)
(-0.272129331 0.17051828 1.8913663e-27)
(-0.329620952 0.205627945 -1.78441131e-27)
(-0.386325055 0.239982907 2.94274813e-27)
(-0.442140441 0.273556192 6.15921319e-28)
(-0.496900054 0.306271825 2.09394185e-27)
(-0.550331091 0.338025758 4.41119545e-27)
(-0.602161063 0.368708864 -6.97566961e-27)
(-0.652122 0.398204364 -3.69149038e-26)
(-0.699881674 0.426405269 -3.06543208e-26)
(-0.745099773 0.453197755 -3.46042447e-26)
(-0.787425334 0.478479747 2.86477985e-27)
(-0.826498007 0.502163738 5.69405341e-26)
(-0.861968794 0.524139703 0)
(-0.893449209 0.544408379 0)
(-0.92059146 0.562925527 7.63992138e-26)
(-0.942982409 0.579638071 1.88204641e-25)
(-0.960117346 0.594519034 1.04511719e-25)
(-0.971557932 0.607513996 1.17184081e-25)
(-0.97673327 0.618641687 2.54322053e-33)
(-0.975023952 0.627888591 -1.49057194e-25)
(-0.965726767 0.635239368 1.43907212e-25)
(-0.948182762 0.640814886 3.33488192e-25)
(-0.921711578 0.64472613 1.7116463e-25)
(-0.885388944 0.64701239 -1.04984173e-26)
(-0.838185175 0.647727682 1.09467204e-26)
(-0.778950145 0.646935837 -2.28209375e-26)
(-0.706372809 0.644710506 0)
(-0.618910402 0.641155485 2.83114683e-25)
(-0.514774484 0.636367274 -2.58450655e-26)
(-0.392159076 0.630359993 -2.74834368e-25)
(-0.248944849 0.623063375 0)
(-0.0841914234 0.615275404 -4.29679552e-25)
(0.10764219 0.608786275 -3.50097873e-25)
(0.318227233 0.603336825 0)
(0.573560555 0.595619708 0)
(0.865114805 0.586860851 -4.30266977e-25)
(1.197662 0.579599525 -4.99996218e-25)
(1.57630965 0.574050435 1.41333032e-25)
(2.00497859 0.570122639 0)
(2.48864711 0.568380372 5.43068826e-25)
(3.03248813 0.569395407 1.30046712e-24)
(3.64122145 0.573814296 6.98332641e-25)
(4.31908521 0.582312273 7.83486244e-26)
(5.06952352 0.595597922 -2.47136302e-27)
(5.89485629 0.614451007 0)
(6.79599555 0.639667258 -1.43571022e-24)
(7.77205987 0.671994036 -1.23404957e-25)
(8.81999959 0.71206722 1.9088406e-24)
(9.93431444 0.76033291 -7.79769469e-26)
(11.1067928 0.817073965 -2.71548762e-24)
(12.3270765 0.881395306 -5.75874111e-24)
(13.5813586 0.952425126 8.48179759e-34)
(14.8520092 1.02884312 3.20247538e-24)
(16.1193087 1.10961251 0)
(17.3597344 1.19264834 0)
(18.5508897 1.27779273 1.0229094e-25)
(19.6686145 1.35852626 1.23063649e-25)
(20.694304 1.43765924 0)
(21.588366 1.51314355 9.17201833e-24)
(22.3649539 1.58445939 9.19703295e-24)
(22.9956039 1.6237073 -9.18354154e-24)
(23.5019705 1.65746935 -2.32030258e-23)
(23.8576892 1.66802779 -1.10694146e-23)
(23.9436859 1.6698052 -1.21740769e-23)
(23.934936 1.67680936 -7.59295175e-24)
(23.8894396 1.6942029 -8.26294583e-25)
(23.8924021 1.63740585 1.49253349e-23)
(23.9052934 1.62764224 7.5380435e-24)
(23.9536362 1.56001265 -1.13508103e-23)
(23.9767751 1.55327122 -1.16270235e-23)
(23.9696253 1.50281102 -8.71903018e-24)
(23.9408719 1.48682571 -1.09622981e-23)
(23.9279728 1.44937364 -1.44921079e-23)
(23.9355502 1.39644875 7.92133671e-32)
(23.9391949 1.3481794 2.20842109e-23)
(23.9414992 1.2978479 1.79117219e-23)
(-0.0350954721 0.0205323833 1.71289378e-27)
(-0.101881033 0.0592663353 8.24704011e-28)
(-0.166680783 0.0964714629 3.60873118e-27)
(-0.229895538 0.132404805 -1.44027073e-33)
(-0.291795289 0.167276375 -1.48770115e-27)
(-0.352488965 0.201198336 -1.87782622e-27)
(-0.411940551 0.234202237 4.09886757e-27)
(-0.470000161 0.266262818 1.92609452e-27)
(-0.526433432 0.297318055 6.54432804e-27)
(-0.580947205 0.327280514 8.81980931e-27)
(-0.633200193 0.356037182 1.108299e-26)
(-0.682770653 0.383474986 1.10523448e-26)
(-0.729262792 0.409478184 1.76702525e-26)
(-0.772246321 0.433976099 2.54496459e-26)
(-0.811297968 0.456844828 3.2503e-27)
(-0.845939834 0.478024947 3.41491858e-27)
(-0.875668149 0.497485872 7.74519776e-26)
(-0.900015682 0.515134981 8.90488597e-26)
(-0.91841397 0.53094817 -7.87401917e-27)
(-0.930280081 0.544924339 -8.33292066e-27)
(-0.935022345 0.55709401 1.1270225e-25)
(-0.931962059 0.567455676 1.26077751e-25)
(-0.92035903 0.576028154 0)
(-0.899360068 0.582859321 1.00609097e-26)
(-0.868055035 0.587981602 0)
(-0.825415482 0.591462368 0)
(-0.770286149 0.593390133 1.15094876e-26)
(-0.701360821 0.593872165 -2.54663249e-25)
(-0.617125182 0.593029734 -2.36239775e-25)
(-0.515873368 0.590982666 2.36544734e-25)
(-0.395800725 0.587773145 2.71843766e-25)
(-0.254809526 0.583382075 2.79608918e-26)
(-0.0918996846 0.578467299 -2.92506635e-26)
(0.0981629252 0.574501389 0)
(0.308646099 0.571374398 3.12204618e-26)
(0.560430347 0.566933381 0)
(0.847933034 0.561971333 0)
(1.17564053 0.558593534 3.58177616e-26)
(1.54788089 0.557132478 0)
(1.96840903 0.557674738 0)
(2.44183723 0.560838052 5.72138351e-25)
(2.97292374 0.567225178 7.06661712e-25)
(3.56605675 0.577516283 0)
(4.22525867 0.592445259 0)
(4.95392688 0.612796061 0)
(5.75447233 0.639407301 7.83027124e-26)
(6.62806535 0.673096508 7.18173442e-26)
(7.57428997 0.714615979 1.29233803e-24)
(8.59079218 0.764607465 1.58813992e-24)
(9.67296138 0.823556823 1.86390856e-24)
(10.8136352 0.891746223 2.19430164e-24)
(12.0028983 0.969219533 2.53155335e-24)
(13.2282499 1.05534927 2.78906837e-24)
(14.4739514 1.14898895 0)
(15.7213728 1.24860391 0)
(16.9499807 1.35221909 -3.13861622e-24)
(18.1377901 1.45631053 -6.63347625e-24)
(19.2630221 1.55761772 -3.56560952e-24)
(20.3050706 1.65266379 -3.77907703e-24)
(21.2424792 1.74170882 -3.60777331e-24)
(22.0570514 1.81912881 8.32284029e-24)
(22.7455361 1.88624936 1.56843261e-23)
(23.2780847 1.92512158 3.11025656e-25)
(23.6945269 1.98531893 -1.14543983e-23)
(23.9431514 2.01388124 2.4942683e-25)
(24.0100082 2.00486262 -7.77120397e-25)
(23.9919457 2.01259 5.84296395e-24)
(23.9581781 2.01291171 -8.59349497e-32)
(23.953011 1.97043392 -1.13438463e-23)
(23.9541136 1.93799148 -4.69095609e-25)
(23.9805303 1.90515618 9.76790638e-24)
(24.0054099 1.877663 9.61222511e-24)
(24.0120038 1.85460516 0)
(24.007906 1.7976701 4.72766268e-25)
(23.9838257 1.78310987 0)
(23.951361 1.71581553 1.26452362e-23)
(23.9318123 1.71538629 1.97483263e-23)
(23.9309144 1.63005127 9.14552532e-24)
(23.9352671 1.55680725 8.73454687e-24)
(23.923309 1.48342282 3.35557011e-23)
(-0.0379805631 0.0202627485 1.66255044e-27)
(-0.1098349 0.0582675481 4.98160912e-27)
(-0.179106061 0.0945497826 -1.00091436e-27)
(-0.246207715 0.129367148 -2.29184252e-27)
(-0.311394403 0.162926049 -4.68486239e-28)
(-0.374737723 0.195335259 3.46961929e-28)
(-0.4361478 0.226625203 -2.47622314e-27)
(-0.495408086 0.256771638 -8.89952518e-27)
(-0.552207869 0.285714417 -1.18844966e-26)
(-0.606165756 0.313372287 -1.54981961e-26)
(-0.656839004 0.339668529 0)
(-0.703752821 0.364489533 -6.41213659e-27)
(-0.746376644 0.387756966 3.37828844e-27)
(-0.784167367 0.409364733 0)
(-0.816510197 0.429272996 0)
(-0.842810766 0.447411275 0)
(-0.862429683 0.463750592 0)
(-0.874685143 0.478277096 -4.33857336e-27)
(-0.878842877 0.490990413 0)
(-0.874108384 0.501913816 -7.45780622e-26)
(-0.859652539 0.511073996 -8.23629073e-26)
(-0.834492083 0.518546726 1.5051578e-25)
(-0.797600105 0.524388554 1.77872804e-25)
(-0.74781221 0.528698431 -1.83975237e-25)
(-0.68383252 0.531585803 -2.26048058e-25)
(-0.604186132 0.533181656 -2.32708384e-25)
(-0.507210488 0.533648883 -2.31919065e-25)
(-0.391187721 0.533028205 -2.84968944e-25)
(-0.254048388 0.531379292 -5.89220111e-25)
(-0.0946874112 0.529327914 -3.54611914e-25)
(0.0916466524 0.528080354 0)
(0.299453908 0.527535443 -3.1919532e-26)
(0.546672345 0.526273186 -3.38453166e-26)
(0.828670038 0.52497936 0)
(1.14965552 0.525440461 3.62171263e-26)
(1.51364489 0.52803705 0)
(1.92429043 0.532972501 0)
(2.38582225 0.540858755 5.97091195e-25)
(2.90258237 0.55234028 -4.17169293e-26)
(3.4786594 0.568150841 -6.71645177e-25)
(4.11785661 0.589071811 7.9017792e-25)
(4.82345956 0.615906534 8.33338567e-25)
(5.59790196 0.64949229 4.29939023e-26)
(6.44254837 0.690633383 0)
(7.35738812 0.740060329 1.14731273e-24)
(8.34071618 0.798387638 1.49316525e-24)
(9.38881804 0.86606202 0)
(10.4956813 0.943304166 0)
(11.6527561 1.03005558 -2.30214733e-24)
(12.8488853 1.12594433 -2.65525595e-24)
(14.0702431 1.23022483 2.93290462e-24)
(15.3001924 1.34153669 3.08394118e-24)
(16.5191825 1.45849526 -3.18414672e-24)
(17.7055977 1.57902053 1.09705676e-32)
(18.8375853 1.70024175 3.50450345e-24)
(19.8933033 1.81912232 1.80808184e-26)
(20.8545841 1.93238607 0)
(21.700586 2.03231939 1.79580428e-25)
(22.4315188 2.117767 -3.90738506e-24)
(23.0289131 2.18531095 2.78195807e-25)
(23.5089205 2.24054561 5.02676303e-24)
(23.8149044 2.26644564 0)
(24.0132963 2.30532827 3.30515351e-25)
(24.0386856 2.26401395 0)
(24.0511511 2.2766944 2.19794077e-25)
(24.0099185 2.27289763 -2.69046626e-25)
(23.9668136 2.26074502 -6.27198279e-25)
(23.961157 2.17140882 -1.54159806e-23)
(23.9653931 2.16075669 -9.55825022e-24)
(23.9643279 2.10628158 -5.58411548e-25)
(23.9888559 2.05205022 -1.03824523e-23)
(24.0127621 1.97009505 -9.62208167e-24)
(24.0128039 1.92215854 -1.32121353e-23)
(24.0060371 1.93848378 -9.15183653e-24)
(23.973514 1.92550499 -1.32930992e-23)
(23.9447744 1.90932996 -1.08397618e-23)
(23.9262537 1.86909114 1.38041815e-23)
(23.9164531 1.90705639 7.79556723e-24)
(23.9495798 1.82893977 -1.72828722e-24)
(23.9573112 1.78840157 1.36010372e-24)
(-0.0407931423 0.0197502068 1.31715311e-27)
(-0.117407056 0.0565710551 -4.85005438e-27)
(-0.190652099 0.0915009162 -1.15357353e-27)
(-0.260930898 0.124792886 -1.18673708e-33)
(-0.328458782 0.156644106 1.69629e-27)
(-0.393246642 0.187157522 -1.34963609e-27)
(-0.455128474 0.216362696 6.92066958e-27)
(-0.513796137 0.244247327 2.26926152e-33)
(-0.568834803 0.270749275 -2.4757598e-26)
(-0.619737136 0.295804765 -1.76026359e-26)
(-0.665936046 0.319321772 3.5050019e-27)
(-0.706783828 0.341239126 -2.93415774e-26)
(-0.74161505 0.36147796 -2.67953088e-26)
(-0.769716256 0.37998582 -3.60657228e-26)
(-0.790335321 0.396727444 -4.18948381e-26)
(-0.802679522 0.411687291 4.8262446e-26)
(-0.805900975 0.4248759 5.50127475e-26)
(-0.799103576 0.436310027 -4.92044196e-27)
(-0.78131417 0.446055126 0)
(-0.75144513 0.454176301 -7.22455372e-26)
(-0.70834253 0.460763786 -8.63510143e-26)
(-0.650714807 0.465940765 -1.2012591e-26)
(-0.577121713 0.469852042 1.04377199e-25)
(-0.485984231 0.47266286 1.24321104e-25)
(-0.375655331 0.474449137 -2.73188482e-26)
(-0.244134856 0.475320226 0)
(-0.088737572 0.475994686 1.49187147e-26)
(0.0893270012 0.477430405 1.91503019e-28)
(0.294123596 0.479242949 -3.09692764e-25)
(0.534948796 0.480741393 -3.43270881e-25)
(0.809525997 0.482830354 4.08472496e-25)
(1.12192658 0.486832673 3.82482508e-25)
(1.47587351 0.493125854 -7.66320382e-26)
(1.87481224 0.502015468 -4.52247831e-25)
(2.32264993 0.514158753 -2.94122522e-32)
(2.82338199 0.530242809 5.81675704e-25)
(3.38081766 0.551019055 -6.82472171e-25)
(3.99852816 0.577278905 -7.04553574e-25)
(4.67966413 0.609827174 -9.15487843e-26)
(5.42665451 0.649497688 4.65305772e-26)
(6.24101736 0.697089273 4.51555661e-26)
(7.12308084 0.753326102 -1.1155852e-24)
(8.07168403 0.818814299 -2.51710262e-24)
(9.0838751 0.893990902 -1.47839125e-24)
(10.1546246 0.97906149 -1.78910202e-24)
(11.2765848 1.07393158 -1.9954434e-24)
(12.4399376 1.17814244 0)
(13.6323678 1.29082804 2.64530598e-24)
(14.8391357 1.4107381 3.07413239e-24)
(16.0437032 1.53589013 3.26761482e-24)
(17.2266178 1.66432103 6.86427268e-24)
(18.3667467 1.79372203 7.16253401e-24)
(19.4429008 1.92185502 7.47503696e-24)
(20.4341541 2.04587977 7.76185005e-24)
(21.3227854 2.16278447 4.00082691e-24)
(22.0925665 2.26873578 -2.93779474e-25)
(22.7388518 2.36648148 0)
(23.2454238 2.44068378 -4.05512226e-24)
(23.6408456 2.49310115 -5.07357591e-24)
(23.9140302 2.53551426 0)
(24.0164118 2.54757231 -6.24595484e-24)
(24.0504465 2.56619461 -4.40709074e-24)
(24.0376158 2.52761147 0)
(24.0325204 2.54730918 -1.05223469e-25)
(24.0197366 2.49748436 0)
(23.9982606 2.48635951 -1.10063854e-23)
(23.947067 2.49911854 -6.21108014e-25)
(23.9233113 2.45421324 9.67405777e-24)
(23.9321602 2.38366515 -3.15641569e-25)
(23.9298487 2.32863385 -3.43383966e-25)
(23.923029 2.28120126 -1.08367827e-23)
(23.9477105 2.20648863 -8.52724692e-24)
(23.9848942 2.0867811 -7.49220019e-25)
(23.9976505 2.06368123 -4.69404745e-25)
(23.9767371 2.05236503 -5.2279373e-26)
(23.9712411 2.0082167 -6.5261938e-25)
(23.9680657 1.98982935 1.21580763e-23)
(23.9582411 1.99402412 3.17215546e-23)
(23.9697018 1.98165482 1.04707607e-23)
(23.9620684 1.93561061 -2.03623492e-24)
(-0.0431698343 0.018854389 0)
(-0.123479821 0.0537795596 -1.25973252e-27)
(-0.199403047 0.0866960607 1.32754175e-27)
(-0.271302639 0.117852247 -4.47397016e-27)
(-0.339324476 0.147431 1.47488807e-27)
(-0.403382982 0.175531236 1.5537147e-27)
(-0.463195264 0.20218396 -1.20217871e-26)
(-0.518324327 0.227368391 0)
(-0.568201546 0.251053027 3.61780019e-27)
(-0.612173577 0.273179883 -2.38117856e-26)
(-0.649505907 0.293695137 -2.46598128e-26)
(-0.6793996 0.312551613 3.39255175e-26)
(-0.700999489 0.329715423 4.44050536e-27)
(-0.713396084 0.345171823 -8.72251523e-26)
(-0.715618645 0.358935441 -1.05070872e-25)
(-0.706656499 0.371019355 -5.42496886e-26)
(-0.685379992 0.381513009 -5.4002769e-27)
(-0.650611783 0.390478885 -7.52494799e-26)
(-0.601058311 0.398041357 -7.79345827e-26)
(-0.535302528 0.404346877 6.17406194e-27)
(-0.451806426 0.409562555 -6.51855493e-27)
(-0.348952134 0.413795073 -2.71792763e-26)
(-0.224791184 0.417270439 -1.30446435e-25)
(-0.0773348002 0.420722625 -2.85979493e-25)
(0.092946216 0.424558854 -1.39690811e-25)
(0.292505494 0.428557549 -1.6280317e-26)
(0.524256888 0.432762426 -1.35368085e-25)
(0.789320949 0.438091995 1.77231854e-26)
(1.09123729 0.445369313 -1.84412113e-26)
(1.43327766 0.45498506 -1.94547074e-25)
(1.81871689 0.46740012 0)
(2.25115958 0.483310384 -5.21957176e-25)
(2.73427677 0.503424342 -4.31007768e-26)
(3.2716082 0.528506194 6.40030414e-25)
(3.86650774 0.55935854 7.01469593e-25)
(4.52199358 0.596791607 7.67781607e-25)
(5.24047669 0.64164106 -4.776901e-26)
(6.02359248 0.694708877 0)