/*--------------------------------*- C++ -*----------------------------------*\
  =========                 |
  \\      /  F ield         | OpenFOAM: The Open Source CFD Toolbox
   \\    /   O peration     | Website:  https://openfoam.org
    \\  /    A nd           | Version:  8
     \\/     M anipulation  |
\*---------------------------------------------------------------------------*/
FoamFile
{
    version     2.0;
    format      ascii;
    class       surfaceScalarField;
    location    "0.063";
    object      phi;
}
// * * * * * * * * * * * * * * * * * * * * * * * * * * * * * * * * * * * * * //

dimensions      [1 0 -1 0 0 0 0];

internalField   nonuniform List<scalar> 
84340
(
-4.30822404e-08
2.91303442e-07
-2.48206693e-07
-1.82846544e-07
8.86928725e-07
-7.47141002e-07
-4.32644219e-07
1.51786449e-06
-1.26803787e-06
-8.05112536e-07
2.18863004e-06
-1.81612795e-06
-1.31173871e-06
2.90264027e-06
-2.39597596e-06
-1.96275773e-06
3.66215244e-06
-3.01109112e-06
-2.76709935e-06
4.46842509e-06
-3.66403698e-06
-3.73246947e-06
5.32195818e-06
-4.35653719e-06
-4.86548097e-06
6.22267938e-06
-5.08961229e-06
-6.1717915e-06
7.1701342e-06
-5.86376292e-06
-7.65621988e-06
8.16366574e-06
-6.67917094e-06
-9.32282515e-06
9.20255368e-06
-7.5358757e-06
-1.11749436e-05
1.02861031e-05
-8.43390494e-06
-1.32151834e-05
1.14136848e-05
-9.3733576e-06
-1.5445371e-05
1.25847297e-05
-1.03544461e-05
-1.78664716e-05
1.3798707e-05
-1.13775008e-05
-2.04784601e-05
1.50550722e-05
-1.24429674e-05
-2.32801726e-05
1.63532127e-05
-1.35513722e-05
-2.62691182e-05
1.76923927e-05
-1.4703306e-05
-2.94412655e-05
1.90716919e-05
-1.5899389e-05
-3.27907999e-05
2.04899522e-05
-1.7140246e-05
-3.63098491e-05
2.19457227e-05
-1.84264842e-05
-3.9988168e-05
2.34372011e-05
-1.9758673e-05
-4.38127961e-05
2.49621792e-05
-2.11373203e-05
-4.77676545e-05
2.65179667e-05
-2.25628537e-05
-5.18330996e-05
2.81013134e-05
-2.40355875e-05
-5.59854157e-05
2.97082976e-05
-2.5555672e-05
-6.01962152e-05
3.13341869e-05
-2.71230465e-05
-6.44317384e-05
3.2973247e-05
-2.87373488e-05
-6.86520822e-05
3.46185711e-05
-3.0397815e-05
-7.28105785e-05
3.62620756e-05
-3.2103127e-05
-7.685332e-05
3.78943675e-05
-3.38511306e-05
-8.07173086e-05
3.95029994e-05
-3.5638469e-05
-8.43296446e-05
4.10734324e-05
-3.74605029e-05
-8.76025554e-05
4.25850143e-05
-3.93114538e-05
-9.04400131e-05
4.40219305e-05
-4.11837758e-05
-9.2745719e-05
4.53710672e-05
-4.30646181e-05
-9.44043511e-05
4.65891237e-05
-4.49296862e-05
-9.52492175e-05
4.76187295e-05
-4.67729885e-05
-9.50825944e-05
4.8412772e-05
-4.8578453e-05
-9.3688237e-05
4.89053639e-05
-5.02987171e-05
-9.0838155e-05
4.90269085e-05
-5.18759175e-05
-8.63031326e-05
4.86901577e-05
-5.3224034e-05
-7.98035178e-05
4.78087998e-05
-5.43072e-05
-7.10289689e-05
4.62628597e-05
-5.50361287e-05
-5.96439117e-05
4.39175644e-05
-5.53012789e-05
-4.52641743e-05
4.06076893e-05
-5.49860264e-05
-2.75296346e-05
3.62303913e-05
-5.39634773e-05
-5.99237137e-06
3.05478611e-05
-5.20836221e-05
1.96217267e-05
2.35539589e-05
-4.91665094e-05
5.00496749e-05
1.45300881e-05
-4.49564686e-05
8.60040194e-05
3.34343073e-06
-3.92962253e-05
0.000128286125
-1.01705468e-05
-3.21100063e-05
0.000177870822
-2.65382408e-05
-2.30448624e-05
0.000235790228
-4.65798838e-05
-1.13378976e-05
0.00030320729
-7.05805207e-05
3.16509181e-06
0.000381613171
-9.89630334e-05
2.05588116e-05
0.000472053597
-0.000132460808
4.20220831e-05
0.000575864722
-0.000171760606
6.79512705e-05
0.000694618553
-0.000217529586
9.87776788e-05
0.000830064124
-0.00027056358
0.000135120167
0.00098382621
-0.000331545747
0.00017778612
0.00115736169
-0.000401110035
0.000227577485
0.00135186181
-0.000479673984
0.000285177418
0.0015683042
-0.000567893203
0.000351454986
0.00180726154
-0.000665874566
0.000426921966
0.00207003048
-0.000775849357
0.000513085943
0.00236219457
-0.000902834399
0.000610676816
0.00268057373
-0.0010308187
0.000712447344
0.0030107212
-0.00116507338
0.000834935184
0.00338441012
-0.00136225178
0.000988573919
0.00382886781
-0.00151999396
0.00107554918
0.00422203335
-0.00160124045
0.00120808929
0.00454772123
-0.00187657118
0.00155089848
0.00506692512
-0.00222531784
0.00170612882
0.00574144332
-0.00230457941
0.00163007378
0.00617735707
-0.00239645615
0.00196055052
0.00639965338
-0.00273207264
0.00250977869
0.00668218065
-0.00301195879
0.00272941107
-0.00315832921
0.00278675093
0.00705373197
-3.19327652e-08
3.23244147e-07
-1.36721665e-07
9.91726676e-07
-3.25628074e-07
1.70677984e-06
-6.09465441e-07
2.4724766e-06
-9.98073197e-07
3.29125779e-06
-1.5000502e-06
4.16414009e-06
-2.12282016e-06
5.09120686e-06
-2.87258989e-06
6.07174118e-06
-3.75442601e-06
7.10453055e-06
-4.77234618e-06
8.18807155e-06
-5.92939525e-06
9.32073453e-06
-7.22769047e-06
1.05008716e-05
-8.66842581e-06
1.17268646e-05
-1.02518322e-05
1.29971214e-05
-1.19771045e-05
1.43100369e-05
-1.38422754e-05
1.56639181e-05
-1.58440655e-05
1.70569086e-05
-1.79776941e-05
1.84868947e-05
-2.02366543e-05
1.9951414e-05
-2.26124601e-05
2.14475679e-05
-2.50943597e-05
2.2971932e-05
-2.76690062e-05
2.45204608e-05
-3.03201011e-05
2.60884001e-05
-3.30279809e-05
2.7670177e-05
-3.57691481e-05
2.92592672e-05
-3.85157256e-05
3.08480411e-05
-4.12348559e-05
3.24275966e-05
-4.38880622e-05
3.39875819e-05
-4.64305034e-05
3.55158986e-05
-4.88090546e-05
3.6997356e-05
-5.09627059e-05
3.84159845e-05
-5.28227172e-05
3.97546612e-05
-5.43133228e-05
4.09939151e-05
-5.53578854e-05
4.21183339e-05
-5.58578602e-05
4.30853564e-05
-5.56860557e-05
4.38505224e-05
-5.467119e-05
4.43566281e-05
-5.2633141e-05
4.45515327e-05
-4.93871319e-05
4.43732121e-05
-4.47196826e-05
4.3745848e-05
-3.84052361e-05
4.25914742e-05
-3.01857448e-05
4.08080051e-05
-1.97787962e-05
3.82838265e-05
-6.84871407e-06
3.48793639e-05
8.92369919e-06
3.04911189e-05
2.79319188e-05
2.49100412e-05
5.03494982e-05
1.81908289e-05
7.69609408e-05
9.61968e-06
0.000108409619
-9.00078535e-07
0.000145420748
-1.34564096e-05
0.000188825432
-2.88738123e-05
0.000239573712
-4.74040463e-05
0.000298841438
-6.94374393e-05
0.000367820189
-9.55161197e-05
0.000447510752
-0.000126269512
0.000539228756
-0.000162297509
0.000644578013
-0.00020431114
0.00076513983
-0.000253021302
0.000902507221
-0.00030912643
0.00105825185
-0.000373272344
0.00123384927
-0.000446158674
0.00143041068
-0.00052810433
0.00164876306
-0.000619459119
0.00188944483
-0.000720352099
0.00215325522
-0.000831699509
0.00244060589
-0.000953220647
0.00275012324
-0.00108536152
0.00308703355
-0.00123973885
0.00345854725
-0.00140232572
0.00384249352
-0.00154901214
0.00422002445
-0.00173977434
0.00466484872
-0.00196480916
0.00517284664
-0.00210922899
0.00555708835
-0.00226080379
0.00586896333
-0.00253718527
0.00632136471
-0.00275697598
0.00676588194
-0.00284097229
0.00698296989
-0.00294916406
0.00709253058
-0.00312152633
-0.00326963156
0.00720382142
-2.16023896e-08
3.44848895e-07
-9.40945614e-08
1.06422028e-06
-2.26694862e-07
1.83938053e-06
-4.28172828e-07
2.67395428e-06
-7.06475363e-07
3.56955969e-06
-1.06841112e-06
4.52607511e-06
-1.51945929e-06
5.54225438e-06
-2.06378188e-06
6.61606341e-06
-2.70447641e-06
7.74522519e-06
-3.44347669e-06
8.92707258e-06
-4.28159217e-06
1.01588516e-05
-5.21852212e-06
1.14378043e-05
-6.25283217e-06
1.27611788e-05
-7.38188718e-06
1.41261823e-05
-8.60174156e-06
1.55298994e-05
-9.90699451e-06
1.69691817e-05
-1.12905992e-05
1.84405271e-05
-1.27436458e-05
1.99399589e-05
-1.42551054e-05
2.14628956e-05
-1.58115426e-05
2.30040322e-05
-1.73967759e-05
2.45571983e-05
-1.89914509e-05
2.61151758e-05
-2.05725461e-05
2.76695431e-05
-2.21128391e-05
2.92105266e-05
-2.35802821e-05
3.07267769e-05
-2.4937144e-05
3.22049809e-05
-2.614039e-05
3.36309331e-05
-2.71413785e-05
3.49886743e-05
-2.78867005e-05
3.62613388e-05
-2.83202158e-05
3.74310053e-05
-2.83700793e-05
3.84659993e-05
-2.79492168e-05
3.93339682e-05
-2.69521816e-05
3.99970688e-05
-2.52412187e-05
4.04075798e-05
-2.26695396e-05
4.05139068e-05
-1.90758209e-05
4.02570555e-05
-1.42846171e-05
3.95656992e-05
-8.10753771e-06
3.83747508e-05
-3.2562177e-07
3.65916161e-05
9.30608508e-06
3.4114483e-05
2.10730594e-05
3.08248632e-05
3.53147465e-05
2.65667012e-05
5.22317592e-05
2.13672162e-05
7.21366629e-05
1.49748802e-05
9.56910752e-05
6.93713631e-06
0.000123458071
-2.85651971e-06
0.000156100895
-1.44515448e-05
0.000194464108
-2.8743066e-05
0.000239357905
-4.57933941e-05
0.000291900859
-6.59988668e-05
0.000352921656
-8.989409e-05
0.000423542914
-0.000118024754
0.000505088254
-0.000150982177
0.000598974869
-0.000189402063
0.000706662318
-0.000233956182
0.00082967825
-0.000285312527
0.000969612737
-0.000344244522
0.00112787358
-0.000411280792
0.00130574453
-0.000486995688
0.00150425187
-0.000571777605
0.00172430529
-0.000666209683
0.00196672143
-0.000770517812
0.00223211129
-0.000884846055
0.00252017741
-0.00100841502
0.00283065481
-0.0011421734
0.00316312996
-0.00128569197
0.00351404056
-0.00143626796
0.00387978268
-0.00160547646
0.0042666406
-0.00178917878
0.00468460902
-0.00196697532
0.0050787734
-0.00213393322
0.0054478665
-0.00233389692
0.00585346204
-0.00251481983
0.00622661206
-0.00263394992
0.00644664497
-0.00275721518
0.0065910693
-0.00290139863
0.00678257787
-0.00303248198
0.00697496277
-0.00314155318
0.00710488239
-0.00325145149
-0.00335336327
0.00718860885
-1.53295305e-08
3.601575e-07
-6.74395786e-08
1.1162988e-06
-1.6352706e-07
1.93543054e-06
-3.10309775e-07
2.8206944e-06
-5.13597537e-07
3.77280039e-06
-7.78104109e-07
4.79053062e-06
-1.10717652e-06
5.87127199e-06
-1.5028633e-06
7.0116918e-06
-1.96569283e-06
8.20799288e-06
-2.49496047e-06
9.45627499e-06
-3.08880425e-06
1.07526269e-05
-3.74404938e-06
1.20929777e-05
-4.45614925e-06
1.34732038e-05
-5.21909469e-06
1.488905e-05
-6.02527643e-06
1.63360007e-05
-6.86530018e-06
1.78091227e-05
-7.72776746e-06
1.93029094e-05
-8.59898548e-06
2.08110902e-05
-9.4625977e-06
2.23264198e-05
-1.02991469e-05
2.38404925e-05
-1.10856664e-05
2.53436287e-05
-1.17952531e-05
2.68246737e-05
-1.23971333e-05
2.82713352e-05
-1.28567473e-05
2.96700543e-05
-1.31359171e-05
3.10058629e-05
-1.31896472e-05
3.22586302e-05
-1.29634442e-05
3.34046528e-05
-1.23929254e-05
3.44180824e-05
-1.1401093e-05
3.5269438e-05
-9.89361729e-06
3.59234663e-05
-7.76694207e-06
3.63392666e-05
-4.90204885e-06
3.64690235e-05
-1.16078044e-06
3.62557551e-05
3.61364315e-06
3.56331169e-05
9.58448166e-06
3.45430354e-05
1.69383856e-05
3.29031244e-05
2.58813782e-05
3.06226853e-05
3.66569571e-05
2.7599155e-05
4.95512712e-05
2.36972897e-05
6.48780657e-05
1.8787679e-05
8.28003203e-05
1.29026012e-05
0.000103927866
5.43914832e-06
0.000128773478
-3.47840297e-06
0.0001579481
-1.41997546e-05
0.000192184867
-2.72996463e-05
0.00023223672
-4.29083957e-05
0.000279177756
-6.13926089e-05
0.000333663147
-8.32284941e-05
0.000396773456
-0.000108903742
0.000469724376
-0.000138949831
0.00055378811
-0.00017395786
0.000650327605
-0.000214564274
0.000760791508
-0.00026144607
0.000886613478
-0.000315223977
0.00102922853
-0.000376571096
0.00119001946
-0.000446103216
0.00137012794
-0.000524352585
0.00157050305
-0.000611655282
0.00179178801
-0.000708279807
0.00203420673
-0.000814195287
0.0022979893
-0.000929990988
0.00258307378
-0.00105560081
0.00288938534
-0.0011911559
0.00321458325
-0.00133361099
0.00355676482
-0.00148435283
0.003912574
-0.0016414988
0.00427948947
-0.00180318092
0.00464911673
-0.00197510107
0.0050103585
-0.00215041798
0.0053613791
-0.00231799358
0.00567719
-0.00244974211
0.00592107408
-0.00257777895
0.00610694922
-0.00270069325
0.00629393016
-0.00282093009
0.00646569624
-0.00292898138
0.00659601866
-0.00303172289
0.00670652961
-0.0031429965
0.00680773212
-0.00324275978
0.00690979631
-0.00335352088
-0.00345352119
0.00700994975
-1.40405437e-08
3.74175521e-07
-6.07151783e-08
1.16293986e-06
-1.45343322e-07
2.02001898e-06
-2.72572577e-07
2.94787857e-06
-4.45968519e-07
3.94614647e-06
-6.67778067e-07
5.01228588e-06
-9.38923909e-07
6.14235931e-06
-1.25888747e-06
7.33159264e-06
-1.62549929e-06
8.57453776e-06
-2.03500046e-06
9.86570498e-06
-2.48193229e-06
1.11994833e-05
-2.95956625e-06
1.25705319e-05
-3.45948641e-06
1.397304e-05
-3.97143814e-06
1.54009135e-05
-4.48312754e-06
1.68475977e-05
-4.97997108e-06
1.83058698e-05
-5.44479724e-06
1.97676354e-05
-5.85758517e-06
2.12237744e-05
-6.19528581e-06
2.26640135e-05
-6.43174873e-06
2.40768458e-05
-6.53598215e-06
2.54477504e-05
-6.47189171e-06
2.67604696e-05
-6.19748337e-06
2.79968122e-05
-5.66334308e-06
2.91357988e-05
-4.81102189e-06
3.01534269e-05
-3.57432259e-06
3.10218166e-05
-1.87791408e-06
3.17081318e-05
3.66382677e-07
3.21736755e-05
3.26273352e-06
3.237298e-05
6.93339794e-06
3.22526981e-05
1.15093825e-05
3.17631832e-05
1.71387994e-05
3.08395126e-05
2.39869728e-05
2.94074938e-05
3.22367566e-05
2.7383251e-05
4.2108272e-05
2.46714446e-05
5.38604793e-05
2.11508479e-05
6.77836066e-05
1.66994956e-05
8.40630066e-05
1.13196976e-05
0.000103215162
4.54508282e-06
0.000125690994
-3.68819977e-06
0.000152025919
-1.34323683e-05
0.000182843309
-2.53782855e-05
0.000218968776
-3.96039146e-05
0.000261219379
-5.64504057e-05
0.000310257372
-7.63376905e-05
0.000367050265
-9.97013492e-05
0.000432683256
-0.000127025669
0.000508302839
-0.00015884816
0.000595154536
-0.000195755532
0.000694539945
-0.000238335349
0.000807804479
-0.000287222508
0.000936301466
-0.000343061383
0.00108133921
-0.00040648393
0.00124418573
-0.00047807059
0.00142589878
-0.000558284194
0.00162718656
-0.000647390992
0.00184842406
-0.000745589975
0.00208953929
-0.000852770307
0.00235012542
-0.000968865597
0.00262903886
-0.00109310827
0.00292489993
-0.00122585145
0.0032355805
-0.00136628062
0.00355961484
-0.00151518933
0.00389244278
-0.00166643788
0.00423154119
-0.00182345007
0.00457034202
-0.00198029841
0.00489789049
-0.00213072828
0.00519182333
-0.00226903296
0.00543630613
-0.00239489997
0.00562861186
-0.00251029877
0.00579999171
-0.00262112187
0.00594881242
-0.00272660007
0.00607855781
-0.00283043992
0.00619516115
-0.00293753576
0.00630469253
-0.0030385153
0.00640512362
-0.0031321578
0.00649315383
-0.00323103136
0.00657919214
-0.00332880328
0.006668627
-0.00344296206
-0.00354404005
0.00675914133
-1.66535294e-08
3.9078902e-07
-6.94792043e-08
1.21570888e-06
-1.61968479e-07
2.1124433e-06
-2.96623129e-07
3.08246083e-06
-4.74586805e-07
4.12403099e-06
-6.95441284e-07
5.23305486e-06
-9.57085808e-07
6.40391222e-06
-1.25565159e-06
7.63006075e-06
-1.58566324e-06
8.90444562e-06
-1.93969644e-06
1.02196282e-05
-2.3083444e-06
1.15680149e-05
-2.67994891e-06
1.29420138e-05
-3.04085278e-06
1.43338149e-05
-3.37514453e-06
1.57350699e-05
-3.66422553e-06
1.71365371e-05
-3.88650932e-06
1.85280057e-05
-4.01699764e-06
1.98979703e-05
-4.02661552e-06
2.12332333e-05
-3.88134811e-06
2.25185815e-05
-3.54193425e-06
2.37372623e-05
-2.96464921e-06
2.48702915e-05
-2.09909217e-06
2.58947347e-05
-8.86294282e-07
2.67838332e-05
7.43041782e-07
2.75062786e-05
2.87060804e-06
2.80256739e-05
5.58932e-06
2.83029161e-05
9.00267935e-06
2.82945832e-05
1.32276253e-05
2.794854e-05
1.83956678e-05
2.72047488e-05
2.46538282e-05
2.599435e-05
3.21773669e-05
2.42394591e-05
4.11654683e-05
2.18512282e-05
5.18523529e-05
1.87204298e-05
6.45022671e-05
1.47331603e-05
7.93054308e-05
9.86810823e-06
9.67172945e-05
3.73881692e-06
0.000117148827
-3.73219744e-06
0.000141080414
-1.26120482e-05
0.000169067812
-2.34424718e-05
0.000201736103
-3.63566454e-05
0.000239958512
-5.165493e-05
0.000284290049
-6.9709978e-05
0.000335599865
-9.09138846e-05
0.000394853522
-0.000115704224
0.000463070877
-0.000144555211
0.000541358962
-0.000177989612
0.000630895652
-0.000216562545
0.000732904058
-0.000260856769
0.000848628108
-0.000311479797
0.000979331523
-0.000369039001
0.0011262156
-0.000434106838
0.00129033316
-0.000507179207
0.00147250015
-0.000588651205
0.00167310049
-0.000678671218
0.00189212023
-0.000777304195
0.00212909548
-0.000884366471
0.0023831842
-0.000999678867
0.00265296862
-0.00112255483
0.00293648241
-0.0012523794
0.00323070445
-0.00138733026
0.00353219471
-0.00152734154
0.00383606934
-0.00167015499
0.0041391379
-0.00181825751
0.0044363096
-0.00196360913
0.00471366088
-0.0021008009
0.00495589653
-0.00222253363
0.00515983019
-0.00233466156
0.00532530045
-0.00243450303
0.00546455568
-0.00253415532
0.00558814991
-0.00263389362
0.00570241545
-0.00273538864
0.00580440074
-0.00282858722
0.00589614264
-0.0029221842
0.00597704246
-0.00301843874
0.00605634375
-0.00311782057
0.00613985446
-0.00321567319
0.00622497473
-0.00331615709
0.00632226813
-0.00342610349
0.00642775874
-0.00354845868
-0.0036487636
0.00653247882
-2.10312085e-08
4.11779681e-07
-8.51264639e-08
1.27974647e-06
-1.93766649e-07
2.22101715e-06
-3.46999517e-07
3.23561957e-06
-5.4311078e-07
4.32006106e-06
-7.78440968e-07
5.46829725e-06
-1.04726323e-06
6.67264035e-06
-1.34168608e-06
7.92438325e-06
-1.65156432e-06
9.21421739e-06
-1.96451864e-06
1.05324698e-05
-2.26579309e-06
1.18691705e-05
-2.53762581e-06
1.32137215e-05
-2.75942614e-06
1.45554843e-05
-2.90730563e-06
1.58828127e-05
-2.95373793e-06
1.71828272e-05
-2.8671036e-06
1.8441224e-05
-2.61115479e-06
1.96418696e-05
-2.14454598e-06
2.07664687e-05
-1.41967358e-06
2.17935497e-05
-3.80597177e-07
2.26980234e-05
1.03663217e-06
2.34528977e-05
2.9049622e-06
2.4026239e-05
5.30689006e-06
2.43817395e-05
8.33573175e-06
2.44772718e-05
1.20965403e-05
2.42647023e-05
1.67105839e-05
2.36887126e-05
2.23190483e-05
2.26859635e-05
2.90830628e-05
2.11843757e-05
3.71858526e-05
1.91018164e-05
4.68405106e-05
1.63395576e-05
5.82883684e-05
1.27914766e-05
7.17198051e-05
8.41967692e-06
8.75330422e-05
2.90709134e-06
0.000106097132
-3.83101771e-06
0.000127838998
-1.1873832e-05
0.000153249341
-2.16715879e-05
0.000182878223
-3.33611265e-05
0.000217479961
-4.72138195e-05
0.000257595872
-6.35584015e-05
0.000303985654
-8.2746434e-05
0.000357498657
-0.000105167926
0.000419040348
-0.000131251653
0.00048959348
-0.000161466991
0.000570205696
-0.000196316411
0.000661982657
-0.00023633214
0.000766061351
-0.00028206828
0.000883583007
-0.000334084179
0.00101565183
-0.000392925581
0.00116326786
-0.000459095837
0.00132724474
-0.000533015917
0.00150812841
-0.000614990564
0.00170601484
-0.000705065725
0.00192053752
-0.000803173999
0.00215083263
-0.000908966461
0.00239554687
-0.00102201857
0.00265277148
-0.00114159122
0.00292003757
-0.00126694508
0.00319410111
-0.00139661848
0.00347126097
-0.00152953933
0.00374685369
-0.001662923
0.00401699425
-0.00179748207
0.00427502484
-0.00192818549
0.00450847926
-0.00205171177
0.00470969522
-0.0021648249
0.00487340923
-0.0022645147
0.0050095798
-0.00235870404
0.00512605461
-0.00245113631
0.0052338858
-0.00254233435
0.00533246723
-0.00263273719
0.00542692117
-0.00272834853
0.00551353731
-0.00282200611
0.00559463994
-0.00290969138
0.00566883787
-0.00299638433
0.00574131567
-0.00309091965
0.00582018109
-0.00319668985
0.00590808432
-0.0033035816
0.00599985668
-0.00340793471
0.00609185892
-0.0035181108
0.0061921357
-0.00364874025
-0.00375775034
0.0063011198
-2.43475119e-08
4.36093354e-07
-9.61255548e-08
1.35147878e-06
-2.14292738e-07
2.33913348e-06
-3.75835454e-07
3.3971067e-06
-5.75441691e-07
4.51960729e-06
-8.05339476e-07
5.69813079e-06
-1.05517359e-06
6.9224061e-06
-1.31188977e-06
8.18102701e-06
-1.55959606e-06
9.46184723e-06
-1.77941935e-06
1.07522127e-05
-1.94918195e-06
1.20388487e-05
-2.04335857e-06
1.33078097e-05
-2.03211739e-06
1.4544151e-05
-1.88100868e-06
1.57316083e-05
-1.55065098e-06
1.68523707e-05
-9.96011821e-07
1.78864833e-05
-1.65601285e-07
1.88113553e-05
9.99491683e-07
1.96012701e-05
2.56600822e-06
2.02269266e-05
4.60968414e-06
2.06542407e-05
7.21762005e-06
2.08448559e-05
1.04894474e-05
2.07543075e-05
1.45390338e-05
2.03320521e-05
1.9496256e-05
1.95199528e-05
2.55090812e-05
1.82517863e-05
3.27455918e-05
1.64521182e-05
4.13997394e-05
1.40317414e-05
5.16917776e-05
1.08922734e-05
6.38082335e-05
6.98530909e-06
7.80973001e-05
2.05045414e-06
9.48893472e-05
-4.00059061e-06
0.00011456401
-1.12549883e-05
0.000137556055
-2.00849355e-05
0.0001643526
-3.06275226e-05
0.0001956062
-4.31273695e-05
0.000231809832
-5.78751323e-05
0.000273633676
-7.51848559e-05
0.000321824966
-9.54049687e-05
0.000377185804
-0.00011891907
0.000440586925
-0.000146147358
0.000512959849
-0.000177540624
0.000595283257
-0.00021357481
0.000688566966
-0.000254750423
0.000793827856
-0.000301577004
0.000912054681
-0.000354558646
0.00104416045
-0.000414173721
0.00119092526
-0.000480848641
0.0013529252
-0.000554925171
0.00153043676
-0.000636607033
0.00172331082
-0.00072588963
0.00193089498
-0.000822574389
0.00215202592
-0.000926196368
0.00238501155
-0.00103615937
0.00262765327
-0.00115160796
0.00287708589
-0.00127145099
0.00312976628
-0.00139427143
0.0033816912
-0.00151886984
0.00362830499
-0.00164323213
0.00386564127
-0.00176687547
0.00408838765
-0.00188566924
0.0042876492
-0.00199674346
0.00445754644
-0.00209808255
0.00459463841
-0.0021888035
0.004707463
-0.00227764927
0.004806351
-0.00236340246
0.0048988241
-0.00245117695
0.00498356041
-0.00253587253
0.00506520739
-0.00262398137
0.00514483876
-0.0027123688
0.00522043991
-0.00280395014
0.00529734468
-0.00289891164
0.00537898636
-0.00299133426
0.00546590138
-0.00308330106
0.00555453977
-0.00317956033
0.00564247581
-0.00328462872
0.00573498548
-0.00339609413
0.00582948189
-0.00350243427
0.00591833707
-0.00360697091
0.00599793185
-0.003728339
-0.0038535478
0.00609372803
-2.35277614e-08
4.59578964e-07
-9.03486818e-08
1.41824114e-06
-1.96241924e-07
2.44496038e-06
-3.34317463e-07
3.53510892e-06
-4.94740511e-07
4.6799508e-06
-6.64590627e-07
5.86789573e-06
-8.27695851e-07
7.08542096e-06
-9.64441389e-07
8.31767732e-06
-1.05153724e-06
9.54884336e-06
-1.06173204e-06
1.07623037e-05
-9.63400007e-07
1.19404092e-05
-7.20022376e-07
1.30643214e-05
-2.89724561e-07
1.411374e-05
3.75233875e-07
1.5066535e-05
1.32938832e-06
1.58981006e-05
2.63500825e-06
1.65807478e-05
4.36302341e-06
1.7083226e-05
6.59451757e-06
1.73696645e-05
9.42162504e-06
1.73997117e-05
1.29491999e-05
1.71265639e-05
1.72965471e-05
1.64974141e-05
2.25990099e-05
1.54517591e-05
2.90102716e-05
1.3920716e-05
3.67063555e-05
1.18238077e-05
4.58876211e-05
9.07047474e-06
5.67334984e-05
5.60621251e-06
6.95481242e-05
1.21710756e-06
8.46262435e-05
-4.18583205e-06
0.000102304959
-1.06933673e-05
0.000122968755
-1.86132764e-05
0.000147047449
-2.80791886e-05
0.000175103764
-3.93111771e-05
0.0002075851
-5.25661106e-05
0.000245081416
-6.81236429e-05
0.000288248255
-8.62939766e-05
0.000337791842
-0.000107418449
0.000394477274
-0.000131869977
0.000459123163
-0.000160050508
0.000532590401
-0.00019238592
0.000615768054
-0.000229324586
0.000709554219
-0.000271326327
0.000814830118
-0.000318850215
0.000932418988
-0.000372338767
0.00106304029
-0.000432197755
0.00120725342
-0.000498771194
0.00136539082
-0.000572310521
0.00153747797
-0.000652935167
0.00172314907
-0.000740595634
0.00192150584
-0.000834963144
0.00213114431
-0.000935527483
0.00235015021
-0.0010415797
0.00257618343
-0.00115222903
0.00280628875
-0.00126626416
0.00303694151
-0.00138226021
0.00326411313
-0.00149862212
0.00348358792
-0.00161374576
0.0036912504
-0.00172653186
0.00388307501
-0.00183505632
0.00405209419
-0.00193589426
0.00419492744
-0.00202850209
0.00431136625
-0.00211318181
0.00441011555
-0.00219683145
0.0044985316
-0.00227721919
0.00457885921
-0.00235797653
0.00465510368
-0.0024396466
0.00472936966
-0.00252544256
0.0048018473
-0.00260834981
0.00487155871
-0.00269369245
0.00494270942
-0.00278351924
0.00501572879
-0.00287696938
0.00509221974
-0.00297540265
0.00517445653
-0.00307357135
0.00526156499
-0.00317041003
0.00534704119
-0.00326503743
0.00542268024
-0.00336026925
0.00549009808
-0.0034635141
0.00555913577
-0.00357147474
0.00563380507
-0.0036816431
0.00569902304
-0.00379355912
-0.00391460406
0.00576007832
-1.74156167e-08
4.76989749e-07
-6.2536323e-08
1.46335786e-06
-1.26754171e-07
2.50917584e-06
-1.98064301e-07
3.60641797e-06
-2.60753325e-07
4.74263986e-06
-2.95201081e-07
5.90234457e-06
-2.77657633e-07
7.06787969e-06
-1.79965725e-07
8.2199888e-06
3.08288403e-08
9.33805363e-06
3.92943689e-07
1.04001954e-05
9.50226983e-07
1.13831345e-05
1.75274542e-06
1.22618142e-05
2.85756279e-06
1.3008937e-05
4.32975022e-06
1.35943658e-05
6.24331931e-06
1.39845543e-05
8.68261781e-06
1.41414776e-05
1.17433346e-05
1.40225441e-05
1.55340778e-05
1.3578964e-05
2.01780416e-05
1.27558e-05
2.58143215e-05
1.14903469e-05
3.26017944e-05
9.71001665e-06
4.07214137e-05
7.33222975e-06
5.03433092e-05
4.29892777e-06
6.17321043e-05
4.35138214e-07
7.514972e-05
-4.34699433e-06
9.08946966e-05
-1.01385924e-05
0.000109306068
-1.71940637e-05
0.000130761657
-2.56411898e-05
0.000155745781
-3.56772261e-05
0.00018466157
-4.75287625e-05
0.000218026569
-6.1443844e-05
0.000256413303
-7.76975225e-05
0.000300440058
-9.65924292e-05
0.000350775668
-0.000118458765
0.000408135764
-0.00014365353
0.00047327423
-0.000172556317
0.000546972131
-0.000205567223
0.000630021828
-0.000243099492
0.000723205764
-0.000285569084
0.000827263914
-0.000333381906
0.000942855847
-0.000386917369
0.00107051504
-0.00044650846
0.00121059525
-0.000512417979
0.0013632097
-0.000584811143
0.00152816249
-0.000663722871
0.00170487018
-0.000749017035
0.00189226509
-0.000840328829
0.0020887525
-0.000937081786
0.0022922429
-0.00103845233
0.00250023972
-0.00114352312
0.00270981184
-0.00125115066
0.0029176323
-0.00136004834
0.00312007322
-0.00146870396
0.00331324675
-0.00157543264
0.00349329236
-0.00167866664
0.00365726003
-0.0017777124
0.00380132365
-0.00187059451
0.00392333615
-0.00195706785
0.00402453723
-0.00203709431
0.00411193476
-0.0021158988
0.00419046454
-0.00219171087
0.004262635
-0.0022690012
0.00433132737
-0.00234591099
0.00439710999
-0.00242375863
0.00446076986
-0.0025033059
0.00452437085
-0.00258904285
0.00459096519
-0.00267494338
0.00465791916
-0.00276064556
0.00472517783
-0.00285077695
0.00479170588
-0.00294349656
0.00485622822
-0.00303992425
0.00492046704
-0.00313780934
0.00498305051
-0.00323299284
0.00505020132
-0.00333218811
0.00512245299
-0.00343252129
0.00519442412
-0.00353548618
0.00526812891
-0.00364518054
0.00533728644
-0.00375080157
0.0054046536
-0.00386092674
-0.00397797481
0.00546802483
-5.28625626e-09
4.82243696e-07
-9.58894547e-09
1.46761624e-06
1.64055978e-09
2.49789666e-06
4.72203825e-08
3.56078385e-06
1.50580818e-07
4.63922125e-06
3.40051448e-07
5.71281258e-06
6.49129837e-07
6.75873741e-06
1.11684713e-06
7.75220575e-06
1.78819478e-06
8.6666391e-06
2.71471709e-06
9.4736059e-06
3.95524033e-06
1.01425447e-05
5.57673115e-06
1.06402584e-05
7.6551839e-06
1.09304222e-05
1.02772096e-05
1.09722821e-05
1.35408036e-05
1.0720908e-05
1.75567933e-05
1.01254427e-05
2.24506421e-05
9.1286594e-06
2.83645591e-05
7.6650221e-06
3.54601825e-05
5.66016504e-06
4.38966721e-05
3.05386137e-06
5.39027678e-05
-2.96056949e-07
6.57100998e-05
-4.47505965e-06
7.95817396e-05
-9.57264569e-06
9.58152233e-05
-1.57982527e-05
0.000114741076
-2.32727244e-05
0.00013677478
-3.21721422e-05
0.000162276973
-4.26960656e-05
0.00019169984
-5.5063828e-05
0.000225541403
-6.95185174e-05
0.000264340569
-8.63276118e-05
0.00030867972
-0.000105782631
0.000359182286
-0.000128199673
0.000416506303
-0.000153915978
0.000481335669
-0.000183287609
0.00055436756
-0.000216684844
0.000636295316
-0.000254483441
0.000727783303
-0.000297054521
0.000829435797
-0.000344751243
0.000941760044
-0.000397892532
0.00106512256
-0.000456743567
0.00119969949
-0.000521493397
0.00134542197
-0.000592229981
0.00150191837
-0.000668913375
0.00166845551
-0.000751347217
0.00184387432
-0.000839140557
0.00202650654
-0.000931648067
0.00221417578
-0.00102799688
0.00240431539
-0.00112722022
0.00259405472
-0.00122819049
0.00278027907
-0.00132974627
0.0029595027
-0.00143037308
0.00312824294
-0.00152878733
0.00328384578
-0.00162430553
0.00342376462
-0.0017153502
0.00354673151
-0.00180163225
0.00365142898
-0.00188240854
0.00373947631
-0.0019586406
0.00381498041
-0.00203257091
0.00388304735
-0.0021051602
0.00394572285
-0.0021785734
0.00400701018
-0.00225299743
0.0040673756
-0.00232936585
0.0041276693
-0.00240620399
0.00418848818
-0.00248457679
0.00424943299
-0.00256424992
0.00430724455
-0.00264685355
0.00436675792
-0.00273445574
0.00442730342
-0.00282118982
0.00448151987
-0.00290499199
0.00453184055
-0.00299381574
0.00457959883
-0.00308768059
0.00463010894
-0.00318831756
0.00468521075
-0.00328809344
0.0047426121
-0.00338958846
0.0048090214
-0.00349892998
0.00487630014
-0.00360276461
0.00494448515
-0.00371336529
0.00501423409
-0.00382055025
0.00507951666
-0.00392620807
-0.00403765911
0.00513920286
1.34404145e-08
4.68830767e-07
7.09864717e-08
1.41011075e-06
1.9492492e-07
2.37400611e-06
4.12755885e-07
3.34300739e-06
7.57588264e-07
4.29444946e-06
1.26848827e-06
5.20197897e-06
1.99088723e-06
6.03641065e-06
2.97709407e-06
6.76607707e-06
4.28692291e-06
7.3568947e-06
5.98846724e-06
7.77215268e-06
8.15886343e-06
7.97224677e-06
1.08859913e-05
7.91323667e-06
1.42689576e-05
7.54757082e-06
1.84198229e-05
6.82154134e-06
2.34683506e-05
5.67251527e-06
2.95480796e-05
4.04586055e-06
3.68155688e-05
1.86133039e-06
4.54637282e-05
-9.82963061e-07
5.56966423e-05
-4.57255924e-06
6.77447759e-05
-8.99406366e-06
8.18676293e-05
-1.44186806e-05
9.8352883e-05
-2.09600606e-05
0.000117554955
-2.87744394e-05
0.000139794323
-3.8037313e-05
0.000165464027
-4.89420886e-05
0.000194995256
-6.17029965e-05
0.000228855371
-7.65557658e-05
0.00026754917
-9.37571684e-05
0.000311617432
-0.000113586272
0.000361632118
-0.00013634174
0.000418189745
-0.000162339643
0.000481901486
-0.000191910741
0.000553379771
-0.000225393527
0.000633219208
-0.000263126243
0.000721971625
-0.000305436388
0.000820116746
-0.000352627616
0.000928027188
-0.00040496394
0.0010459284
-0.000462651356
0.00117385399
-0.000525816929
0.00131159819
-0.000594486507
0.00145866747
-0.000668561313
0.0016142345
-0.000747795569
0.00177709903
-0.000831776352
0.00194565818
-0.000919904698
0.00211786061
-0.00101134122
0.00229125162
-0.00110503729
0.00246309786
-0.00119984132
0.00263055831
-0.00129467885
0.00279062525
-0.00138825558
0.00294114311
-0.00148026225
0.00307870975
-0.00156793776
0.00320112351
-0.00165119912
0.00330734927
-0.00173052934
0.00339786686
-0.00180586583
0.0034741774
-0.00187794103
0.00354015624
-0.00194838567
0.00359933853
-0.00201782102
0.00365448098