/*--------------------------------*- C++ -*----------------------------------*\
  =========                 |
  \\      /  F ield         | OpenFOAM: The Open Source CFD Toolbox
   \\    /   O peration     | Website:  https://openfoam.org
    \\  /    A nd           | Version:  8
     \\/     M anipulation  |
\*---------------------------------------------------------------------------*/
FoamFile
{
    version     2.0;
    format      ascii;
    class       volVectorField;
    location    "0.063";
    object      U;
}
// * * * * * * * * * * * * * * * * * * * * * * * * * * * * * * * * * * * * * //

dimensions      [0 1 -1 0 0 0 0];

internalField   nonuniform List<vector> 
42400
(
(-0.0165594974 0.0158772182 -7.33727201e-27)
(-0.0489095994 0.0461758994 2.53498713e-26)
(-0.0813159993 0.0755696145 2.880563e-26)
(-0.114034504 0.104186894 0)
(-0.147221709 0.132110038 0)
(-0.180953244 0.159345027 -8.63060452e-28)
(-0.215241789 0.185847575 0)
(-0.250050351 0.211541475 9.47980242e-28)
(-0.285306904 0.236331486 0)
(-0.320918776 0.260115079 1.03893094e-27)
(-0.356784687 0.28279247 1.08662172e-27)
(-0.392803415 0.304273829 -1.13574041e-27)
(-0.428878898 0.324483426 -7.01237822e-26)
(-0.46492232 0.343361226 -7.58209192e-26)
(-0.50085207 0.360862771 -1.29101612e-27)
(-0.53659241 0.376958087 0)
(-0.572071527 0.391630224 0)
(-0.607219446 0.404873826 0)
(-0.641966095 0.416693967 0)
(-0.676239673 0.427105359 0)
(-0.709965329 0.436131924 0)
(-0.743064125 0.44380668 -3.36564836e-27)
(-0.775452186 0.450171857 -1.54340616e-25)
(-0.807039905 0.455279145 -3.29165546e-25)
(-0.837731107 0.459189976 -1.7560492e-25)
(-0.867422024 0.461975763 -3.80106453e-27)
(-0.895999961 0.463718005 -3.90081151e-27)
(-0.923341435 0.464508241 7.98954945e-27)
(-0.94930963 0.464447861 0)
(-0.973751362 0.463647877 0)
(-0.996494354 0.462228134 2.72039794e-25)
(-1.01734228 0.460313312 2.91256998e-25)
(-1.03605679 0.458023859 8.68343645e-27)
(-1.0523552 0.455473579 -3.32727875e-25)
(-1.06596267 0.452797286 -3.62998932e-25)
(-1.07661395 0.450168799 0)
(-1.08368885 0.44805527 0)
(-1.08669937 0.445897157 0)
(-1.08533467 0.443611144 0)
(-1.07906161 0.44242101 -5.26655255e-25)
(-1.06630475 0.442100328 -5.81960006e-25)
(-1.04611542 0.44204822 -5.75172503e-25)
(-1.01624666 0.442491821 -1.05161569e-24)
(-0.976621723 0.442604061 -1.44618183e-26)
(-0.925280364 0.443164391 5.43260985e-25)
(-0.860719328 0.444139242 5.36609566e-25)
(-0.781126654 0.445404727 8.99301314e-27)
(-0.684404516 0.446662242 -5.96294389e-25)
(-0.56843616 0.447649724 3.08509981e-27)
(-0.431289784 0.447705114 -6.05575435e-25)
(-0.268899515 0.446631532 2.15855657e-35)
(-0.0798131814 0.445914944 8.14598205e-25)
(0.135411849 0.447453314 5.87072168e-25)
(0.383423982 0.449055756 -2.5136763e-26)
(0.67970196 0.44668699 0)
(1.02274431 0.440794745 0)
(1.41585446 0.43390605 0)
(1.86650191 0.426164795 7.60234772e-26)
(2.37898279 0.417272088 9.81288948e-26)
(2.95818966 0.407480349 0)
(3.60916387 0.396746672 -2.82783005e-24)
(4.33512769 0.384723261 -3.51432227e-24)
(5.13760592 0.3712889 3.67127998e-24)
(6.01649403 0.356982129 3.93232577e-24)
(6.97106131 0.343451158 0)
(7.99412668 0.332209385 0)
(9.09010429 0.313500651 4.32539925e-24)
(10.2656249 0.29275229 4.57715335e-24)
(11.4263298 0.352932772 1.12001232e-24)
(12.6642147 0.339170632 0)
(14.1607735 0.0996115778 0)
(15.1432749 0.475819892 1.70799937e-24)
(16.0655487 1.08258528 1.90395237e-24)
(18.1671898 -0.127248488 0)
(19.7096027 -0.833861168 2.18096527e-24)
(19.7054868 1.06127304 -7.6336677e-24)
(20.8363143 1.83207414 -9.77961564e-25)
(22.6965276 -0.22288883 -7.65480412e-24)
(23.5638226 -0.83825833 -1.20004525e-23)
(23.5827883 -0.732279738 -4.0203197e-23)
(-0.0195315082 0.0173255091 0)
(-0.0580600599 0.0509848431 1.91998451e-26)
(-0.0969083055 0.0842253216 2.17496058e-26)
(-0.136244324 0.117098808 0)
(-0.176112474 0.149585886 0)
(-0.216486078 0.181602804 2.94025655e-26)
(-0.257275855 0.213023413 3.32917519e-26)
(-0.298356194 0.243702134 7.44290993e-28)
(-0.339580722 0.273488328 0)
(-0.380795828 0.302236927 8.13159181e-28)
(-0.421850727 0.329816186 8.4898794e-28)
(-0.462603625 0.35611231 -5.17723635e-26)
(-0.502924278 0.381031197 -1.11216323e-25)
(-0.542693813 0.404498053 -6.06323801e-26)
(-0.581802786 0.426455748 6.45057117e-26)
(-0.620148355 0.446862646 7.27543301e-26)
(-0.657631213 0.465690421 0)
(-0.694152679 0.4829222 2.18512509e-27)
(-0.729612174 0.498551163 0)
(-0.763905154 0.512579654 0)
(-0.796921456 0.52501874 0)
(-0.828543951 0.535888117 -1.14187109e-25)
(-0.858647378 0.545216262 -2.43635177e-25)
(-0.88709719 0.553040704 -1.30159564e-25)
(-0.913748197 0.559408288 0)
(-0.9384428 0.564375375 -5.5166171e-27)
(-0.961008886 0.568007799 -2.85661003e-27)
(-0.981256702 0.570379942 5.80424744e-27)
(-0.998973407 0.57157372 -1.89332809e-25)
(-1.01391144 0.571679831 -2.03724565e-25)
(-1.02580438 0.570801969 -5.62774979e-27)
(-1.03441541 0.569014036 -5.47391919e-27)
(-1.03935523 0.566464474 -2.30549271e-25)
(-1.04023465 0.563468438 -2.27978211e-25)
(-1.0368055 0.55973119 2.15786042e-25)
(-1.0283301 0.555765939 2.60326452e-25)
(-1.01503155 0.551033711 0)
(-0.994751397 0.546795276 5.10786531e-27)
(-0.966898462 0.542124297 0)
(-0.929780606 0.537169437 9.02470225e-27)
(-0.883070879 0.53160015 -3.62573092e-25)
(-0.825184219 0.525996038 -3.86933682e-25)
(-0.754835988 0.520439347 5.28150047e-27)
(-0.670396957 0.514861255 -4.06348684e-27)
(-0.5698301 0.508998873 3.06000459e-27)
(-0.451069073 0.502517639 7.8746505e-28)
(-0.311623425 0.495479714 -2.42271698e-27)
(-0.152247595 0.488380402 -2.93438114e-25)
(0.0341000937 0.482746204 -3.45385923e-25)
(0.24193195 0.47851011 0)
(0.491489179 0.471968625 1.46907243e-26)
(0.780805427 0.462670901 -3.20362908e-26)
(1.11372641 0.45251536 -3.0016238e-25)
(1.49597992 0.442199828 -4.01629463e-25)
(1.93336724 0.431463094 -6.97852061e-26)
(2.43035127 0.420348054 -8.6144142e-25)
(2.9924124 0.409146917 -9.4019269e-25)
(3.62457685 0.397687687 1.27924444e-25)
(4.33033177 0.386092496 1.59225035e-25)
(5.11222649 0.374923656 -6.87256938e-25)
(5.97187404 0.365215981 -4.8200748e-25)
(6.90847212 0.358967999 -2.95990966e-25)
(7.9176999 0.358733838 3.51152562e-25)
(8.98944948 0.365947044 0)
(10.1173582 0.379124134 1.18684131e-24)
(11.2888954 0.402605469 3.78775347e-25)
(12.5016412 0.418252095 2.89465861e-25)
(13.8070572 0.385153736 0)
(15.0547883 0.441462086 3.41815916e-27)
(16.1883007 0.639491732 1.31507734e-24)
(17.6622196 0.43537057 3.89415851e-24)
(18.9795238 0.227753777 3.63351216e-24)
(19.6216239 1.0386568 7.23380753e-25)
(20.6778129 1.33981168 -2.23923918e-24)
(22.3297175 0.10127413 3.75981661e-26)
(23.3241762 -0.18849692 1.14443241e-23)
(23.4388565 0.810930629 2.23819978e-23)
(23.5321435 1.1777064 -6.21904078e-24)
(23.6640449 0.519371482 -2.52040326e-23)
(23.6688524 0.145984969 -1.8678496e-23)
(-0.0218917216 0.0179478524 1.93739791e-27)
(-0.0654039408 0.0532757567 2.05321043e-28)
(-0.109521894 0.0886191824 -2.17417039e-28)
(-0.154331938 0.123972556 2.25065313e-28)
(-0.199786729 0.159244393 0)
(-0.24573924 0.194270852 -2.26424027e-26)
(-0.292010259 0.228863067 4.83289847e-34)
(-0.338380498 0.262820573 2.77979867e-26)
(-0.384623747 0.29594667 3.05779077e-26)
(-0.430519364 0.328059991 6.69101502e-26)
(-0.47586003 0.359000927 3.70468717e-26)
(-0.520455727 0.388634224 6.43817876e-28)
(-0.564134006 0.416848772 6.68718325e-28)
(-0.606737601 0.443555585 4.6221079e-26)
(-0.648120602 0.468684881 4.98379212e-26)
(-0.688144121 0.492183 2.21054077e-27)
(-0.726672069 0.514009623 -5.92829793e-26)
(-0.763567409 0.534135537 -1.24342439e-25)
(-0.798689031 0.552541057 -6.69315321e-26)
(-0.831889273 0.569215054 1.61487302e-27)
(-0.863011937 0.584154536 -1.64709616e-27)
(-0.891890501 0.597364741 -1.67428344e-27)
(-0.918346372 0.608859654 0)
(-0.942187036 0.618662625 3.48023154e-27)
(-0.96320362 0.62680682 1.04367747e-25)
(-0.981164485 0.633334816 -6.90158078e-29)
(-0.995815069 0.638296104 -1.21791726e-25)
(-1.00688429 0.641740434 -1.32445774e-25)
(-1.01409285 0.643705083 -1.38961412e-25)
(-1.01701285 0.644323458 1.41345731e-25)
(-1.01546409 0.643530434 -3.20122084e-27)
(-1.0089987 0.641592779 -2.84501134e-25)
(-0.99719415 0.638787377 -1.59947964e-25)
(-0.980067237 0.634897733 0)
(-0.955701264 0.630462497 0)
(-0.923490613 0.624867651 -2.56846771e-27)
(-0.881722293 0.61839236 0)
(-0.830361223 0.610759035 2.65112875e-27)
(-0.767978448 0.602511175 -2.48385604e-25)
(-0.693377023 0.593736942 -6.63252794e-28)
(-0.605055954 0.584442416 2.73365317e-25)
(-0.501101945 0.574516889 0)
(-0.379769828 0.563774164 0)
(-0.239062289 0.552283954 -2.57594982e-25)
(-0.0788000398 0.540715327 -1.87747407e-25)
(0.107253939 0.530837697 -1.12168428e-26)
(0.311140176 0.522477303 0)
(0.560005082 0.511307084 0)
(0.845343303 0.497896217 -2.21047559e-25)
(1.17206734 0.484834014 -1.76410251e-25)
(1.54641068 0.472234995 2.83106998e-26)
(1.97309755 0.459852279 0)
(2.45742349 0.447885137 6.51382557e-26)
(3.00477924 0.436414457 1.07385519e-25)
(3.62017821 0.425592265 -3.8298942e-26)
(4.30753999 0.415771095 -4.48655495e-25)
(5.07016003 0.407602653 -7.11739382e-25)
(5.91063426 0.402551893 2.47606379e-32)
(6.82941446 0.402238051 -3.74118075e-32)
(7.82325888 0.407641771 -3.14159514e-24)
(8.88600558 0.41974885 -1.97778824e-24)
(10.0062588 0.440589387 2.2331958e-24)
(11.173773 0.472838911 2.84953143e-24)
(12.3747913 0.518577845 0)
(13.6003274 0.570384791 3.86648614e-24)
(14.8355706 0.63718376 6.13482811e-24)
(16.0447058 0.712641622 3.96377335e-24)
(17.3337056 0.728293583 0)
(18.5913619 0.688432666 -2.65881725e-26)
(19.6301562 0.890157133 6.64832006e-24)
(20.6618081 1.08612293 6.28058404e-24)
(21.8330218 0.79309078 0)
(22.8164008 0.729659788 0)
(23.2618027 1.17346567 1.88330538e-24)
(23.5591552 1.30772207 -1.89805031e-24)
(23.6633832 0.929967689 9.36804816e-24)
(23.6845749 0.863865443 2.20025961e-23)
(23.683748 0.943794125 0)
(23.6436278 0.887469669 -5.10813266e-24)
(23.6062466 0.8484536 1.07747438e-23)
(-0.0237287482 0.0179502937 8.87730053e-29)
(-0.0712056981 0.0536254614 1.39911667e-28)
(-0.119595982 0.0896513055 5.81616995e-27)
(-0.168911145 0.125979607 -6.28457163e-27)
(-0.219009686 0.16246515 -7.5389278e-27)
(-0.269653914 0.198891744 0)
(-0.320537677 0.235007806 -1.91876606e-26)
(-0.371340784 0.270566237 -2.11822334e-26)
(-0.421776123 0.305341205 -2.25304012e-26)
(-0.471545114 0.33912764 -2.44666927e-26)
(-0.520377015 0.371744367 -2.56260102e-26)
(-0.568027118 0.403039788 1.03166082e-34)
(-0.614273629 0.432890273 4.35145636e-28)
(-0.658913256 0.461196599 5.80895962e-34)
(-0.701755597 0.487879934 -4.59780182e-28)
(-0.742617304 0.51287803 -3.59143564e-26)
(-0.781316697 0.536141971 3.8205048e-26)
(-0.817669086 0.55763375 -9.98135265e-28)
(-0.851483002 0.577324906 -4.42314349e-26)
(-0.882557091 0.595196216 1.01493383e-27)
(-0.910677385 0.611237311 -2.00591682e-27)
(-0.935608648 0.62544299 5.33158989e-26)
(-0.9570914 0.637810981 5.72060375e-26)
(-0.974848399 0.648340592 9.91113908e-28)
(-0.988585602 0.657019062 0)
(-0.997953707 0.663863553 9.0619019e-28)
(-1.00266713 0.668925969 0)
(-1.00239837 0.672309809 -7.20906604e-26)
(-0.996814105 0.674230551 -1.63023487e-25)
(-0.985755351 0.674741424 -1.00961534e-25)
(-0.968024701 0.673928774 1.22338585e-25)
(-0.942932229 0.671598175 1.34962942e-25)
(-0.909500593 0.667656998 8.92945872e-28)
(-0.866312811 0.662235785 -1.36119173e-29)
(-0.81323434 0.65540967 1.25799347e-25)
(-0.749029988 0.647494983 1.38447836e-25)
(-0.672562828 0.63857183 0)
(-0.582470376 0.628678915 -1.59623278e-25)
(-0.476972726 0.617791509 -1.68562207e-25)
(-0.354181171 0.605899659 -8.13088718e-27)
(-0.212447614 0.592858628 -9.99372061e-27)
(-0.0485859628 0.57950232 0)
(0.132880648 0.568387415 0)
(0.339471273 0.557906611 0)
(0.586623295 0.544643218 -1.83364718e-26)
(0.869105371 0.529798075 -1.31596425e-25)
(1.19186102 0.515741767 -8.73675469e-26)
(1.56053823 0.502697087 0)
(1.97929483 0.490439186 0)
(2.45338566 0.479174792 -4.89980658e-26)
(2.98821965 0.469044223 5.71389848e-26)
(3.58867428 0.460289742 1.26580254e-25)
(4.25918779 0.453612118 2.8992435e-25)
(5.003836 0.450261091 1.44455872e-25)
(5.82550536 0.4514346 -4.59118008e-25)
(6.7249526 0.458050541 -1.03536762e-24)
(7.70031692 0.470938141 -2.16724099e-24)
(8.74625233 0.490944458 -3.15651649e-24)
(9.85421424 0.519719474 0)
(11.0107191 0.558413791 -3.49846227e-25)
(12.2081443 0.606451573 -4.23955087e-24)
(13.432923 0.662987195 -8.87765516e-24)
(14.672854 0.73154524 4.30410929e-25)
(15.8990597 0.818711301 4.59129652e-25)
(17.106328 0.911905492 -6.43443237e-24)
(18.2833825 1.01351048 5.34484074e-24)
(19.3746375 1.11621212 5.80740313e-24)
(20.4735536 1.21839982 -1.19256364e-24)
(21.492091 1.19357783 -2.798752e-24)
(22.4940636 1.18124991 -1.06349819e-23)
(23.0917691 1.29854153 8.33954181e-26)
(23.5322006 1.39814909 -1.68458482e-23)
(23.6499712 1.25481067 -9.23610832e-24)
(23.6900859 1.30035824 0)
(23.6823189 1.36851716 -7.32728673e-24)
(23.6622822 1.34987931 -2.56221121e-23)
(23.6674923 1.20481859 4.15466539e-24)
(23.6644631 1.1696065 8.85210833e-24)
(23.6733236 1.15182774 1.10639979e-23)
(23.6436295 1.137642 1.81093772e-23)
(-0.0253471378 0.0176543016 1.29457468e-27)
(-0.0763331039 0.0529563246 0)
(-0.128520517 0.0888059397 0)
(-0.181847001 0.125119 1.68328152e-30)
(-0.236073325 0.161707191 0)
(-0.290852279 0.198314006 0)
(-0.345787066 0.234658398 0)
(-0.400475153 0.270458561 -4.57907821e-28)
(-0.454491157 0.305453175 0)
(-0.50747988 0.339419581 2.45014707e-28)
(-0.55911986 0.372173373 -1.77199537e-26)
(-0.609100368 0.40355945 3.29762754e-34)
(-0.657143926 0.433448676 1.98906487e-26)
(-0.702993888 0.46173863 0)
(-0.746406643 0.488348713 -2.81912922e-28)
(-0.787144275 0.51321554 5.61170376e-28)
(-0.82496771 0.536289501 0)
(-0.859630666 0.557531602 -2.15991482e-26)
(-0.890866831 0.576909719 5.48313199e-28)
(-0.918386025 0.594390773 4.90204146e-26)
(-0.941904057 0.609906398 2.74375683e-26)
(-0.961050757 0.623506137 4.83368017e-28)
(-0.975553589 0.63518067 0)
(-0.985108071 0.645000485 2.71371282e-26)
(-0.989402336 0.653099441 2.55907298e-26)
(-0.987944799 0.65943898 2.7279291e-26)
(-0.980026751 0.663973022 3.12404388e-26)
(-0.964975866 0.666669248 -3.61313102e-26)
(-0.941982454 0.667474236 -3.77050794e-26)
(-0.909984707 0.666391282 0)
(-0.868578011 0.663641213 3.55340533e-26)
(-0.816790346 0.659371025 4.00308611e-26)
(-0.75359236 0.653666473 -1.78778848e-27)
(-0.677848099 0.646610876 4.93486666e-26)
(-0.588235015 0.638291351 5.50514032e-26)
(-0.483100766 0.628799564 6.71796415e-27)
(-0.36068325 0.618264201 -4.33802795e-27)
(-0.219501513 0.606553433 7.60843492e-26)
(-0.0569573737 0.593863187 7.94262535e-27)
(0.129908361 0.58212683 -3.45796482e-26)
(0.334347861 0.571878169 -3.10143928e-25)
(0.580459405 0.559311913 -1.43942616e-25)
(0.860915135 0.545506343 0)
(1.1806348 0.532834236 2.13956498e-26)
(1.54459472 0.521397196 3.96095455e-26)
(1.95681313 0.511057747 2.94179759e-26)
(2.4222939 0.502192935 -6.44639904e-33)
(2.94625031 0.495125157 -1.29117627e-25)
(3.5336073 0.49046433 0)
(4.18895433 0.489207678 5.20492232e-26)
(4.91617992 0.49235862 -3.24035363e-25)
(5.71811923 0.500730937 -6.05829245e-25)
(6.59597237 0.515026336 3.4366819e-25)
(7.54890165 0.535929295 -6.94850284e-25)
(8.57378943 0.564296116 -1.44166401e-24)
(9.66421223 0.601055167 -1.85686232e-24)
(10.8100966 0.647629987 -6.94809542e-24)
(11.9962632 0.705180881 -5.16410257e-24)
(13.2105299 0.774836287 -5.18696988e-24)
(14.4342384 0.854891871 -6.01425823e-24)
(15.6608284 0.942830593 0)
(16.8696696 1.03148858 4.42120546e-25)
(18.0578357 1.12407467 -5.96648341e-24)
(19.1696055 1.22751656 -7.18305385e-24)
(20.2262372 1.33840013 -3.64789341e-26)
(21.1929332 1.44424129 0)
(22.0651343 1.52783929 1.13925075e-23)
(22.8417283 1.5730556 1.33301435e-23)
(23.4013188 1.62941104 1.24225145e-24)
(23.586297 1.56743238 -1.58694689e-24)
(23.6258496 1.63564032 -1.70456126e-26)
(23.6370799 1.64489004 -2.59222606e-24)
(23.6397911 1.65934667 -9.89640335e-24)
(23.6564127 1.53270455 -1.62621419e-23)
(23.6603661 1.5049923 -1.32623619e-24)
(23.655643 1.51678233 0)
(23.6562528 1.48395006 -1.36809169e-23)
(23.6467712 1.4746689 -1.20356741e-23)
(23.710323 1.36568255 0)
(23.6961663 1.30722466 -1.65250285e-23)
(-0.0270576225 0.0173047225 -2.72730539e-27)
(-0.0816606126 0.0519933932 -4.52675108e-27)
(-0.137675215 0.0872825539 -5.16159097e-27)
(-0.194957616 0.123054663 -6.05059764e-29)
(-0.253165632 0.159088719 5.60794756e-27)
(-0.311843473 0.195098153 -1.30264887e-28)
(-0.3704872 0.23077747 -5.91938959e-27)
(-0.428587839 0.265831748 -6.46157559e-27)
(-0.48566222 0.299988295 1.45982194e-28)
(-0.541246198 0.333006469 3.04858687e-28)
(-0.594903497 0.364698602 6.29117202e-27)
(-0.646312431 0.394908923 1.66820312e-26)
(-0.69511822 0.423524999 1.03235237e-26)
(-0.740998481 0.450448514 9.50427402e-27)
(-0.783642227 0.475603999 1.58127723e-28)
(-0.82273731 0.498936024 -6.25058208e-27)
(-0.857963101 0.520403522 0)
(-0.889011694 0.539935166 0)
(-0.915515862 0.557576509 -6.64118502e-27)
(-0.937164994 0.573355225 4.68181038e-28)
(-0.953535627 0.587226554 7.26192822e-27)
(-0.964173546 0.599154114 1.08036981e-26)
(-0.968511956 0.609148701 1.21413287e-35)
(-0.965926235 0.617173432 -1.27175302e-26)
(-0.955686114 0.623179848 1.34895272e-26)
(-0.937139581 0.627272559 2.85437138e-26)
(-0.909658288 0.629583029 1.57117657e-26)
(-0.872392631 0.63016479 4.55599283e-28)
(-0.824391526 0.62907479 -6.08869641e-28)
(-0.764604421 0.6263716 1.55307232e-27)
(-0.691854485 0.622136589 0)
(-0.604789512 0.616476988 1.42601203e-26)
(-0.501821956 0.609509308 2.71857142e-27)
(-0.381230216 0.601378064 -5.19313027e-29)
(-0.241444307 0.591994148 0)
(-0.0799764033 0.581539126 -6.03126873e-26)
(0.106061014 0.571675043 -6.50709465e-26)
(0.311290175 0.563064035 0)
(0.555050197 0.553033572 0)
(0.832869952 0.542119892 -5.05388721e-26)
(1.14902718 0.532312006 -5.31930596e-26)
(1.50821767 0.52396185 -4.20136299e-26)
(1.91417789 0.517074437 0)
(2.37165788 0.512186809 1.26758453e-25)
(2.88563699 0.509934279 3.35024626e-25)
(3.46078205 0.511057055 2.56418421e-25)
(4.10132128 0.516371922 -4.2609514e-26)
(4.81085016 0.526711879 -1.01477948e-27)
(5.59220517 0.542818436 0)
(6.44697995 0.565414702 -6.86626667e-25)
(7.37525093 0.595306591 1.64648626e-25)
(8.37497141 0.633296377 1.31158297e-24)
(9.44158032 0.680131792 2.35861173e-25)
(10.5669328 0.736417443 -1.81400477e-24)
(11.7394835 0.802901737 -5.29962651e-24)
(12.9428649 0.879816489 4.10735955e-32)
(14.1636859 0.967191688 2.9085124e-24)
(15.3836282 1.06298073 0)
(16.5887247 1.16846395 0)
(17.7511145 1.27950742 4.0720814e-25)
(18.8682969 1.39396477 4.29503016e-25)
(19.913435 1.49801835 0)
(20.9029339 1.58850317 8.55431966e-24)
(21.7629426 1.67053606 7.61794678e-24)
(22.5465863 1.72903067 -1.09102819e-23)
(23.1625329 1.79644146 -3.12473728e-23)
(23.4986483 1.83406589 -1.13646026e-23)
(23.5650744 1.86764406 -4.47947758e-24)
(23.5801127 1.91054521 -6.25247725e-24)
(23.5893315 1.93551285 -1.91671224e-24)
(23.6072317 1.82995481 1.32897311e-23)
(23.6127354 1.82541525 1.03555957e-23)
(23.6331106 1.77493299 -1.27313613e-23)
(23.6593183 1.72857566 -1.04093765e-23)
(23.6744037 1.68915617 -1.43666484e-23)
(23.6816691 1.65633253 -1.34429412e-23)
(23.6986703 1.60624454 -1.32218867e-23)
(23.7209429 1.57607735 2.00167383e-31)
(23.7911713 1.54815161 3.36858117e-23)
(23.7615294 1.56230918 2.42841957e-23)
(-0.0290751173 0.0170190258 1.60979212e-27)
(-0.0877776931 0.051102925 4.54416922e-29)
(-0.147965436 0.0857156706 5.56761351e-27)
(-0.209396824 0.120706011 -7.87995985e-35)
(-0.271613773 0.155826464 -5.41131202e-27)
(-0.33404201 0.190769293 -5.38864719e-27)
(-0.396063385 0.225213929 -1.00276418e-26)
(-0.457061938 0.258857056 -4.72896752e-27)
(-0.516451674 0.291429369 -4.1476842e-27)
(-0.573692779 0.322701879 -3.8689146e-27)
(-0.628301708 0.352476243 -3.45240645e-27)
(-0.679778927 0.380618433 -2.33807228e-27)
(-0.727738725 0.4070169 -5.33977819e-28)
(-0.771795187 0.431593532 1.07964336e-27)
(-0.811541698 0.45429819 1.16002792e-28)
(-0.846580026 0.475085361 1.08393443e-28)
(-0.876492884 0.493929468 1.31233147e-26)
(-0.900812516 0.51085184 2.00626346e-26)
(-0.919053695 0.525771193 -1.23255323e-28)
(-0.930636399 0.538663924 -9.47682819e-29)
(-0.935016336 0.549649606 2.89693081e-26)
(-0.931580674 0.558721127 3.3564263e-26)
(-0.919632074 0.565913321 0)
(-0.898371678 0.571274797 -1.3197399e-28)
(-0.866943105 0.574843722 0)
(-0.824383168 0.576676208 0)
(-0.769618047 0.576851574 -4.3414243e-28)
(-0.70144394 0.57547246 -5.92043979e-26)
(-0.61851084 0.572657119 -6.55932881e-26)
(-0.519265203 0.568539585 6.88031382e-26)
(-0.402020166 0.563280775 5.97021003e-26)
(-0.265160705 0.556853926 -2.79261166e-27)
(-0.106355774 0.549476316 3.13879231e-27)
(0.0770864242 0.542586363 0)
(0.280870025 0.536690967 -4.27261304e-27)
(0.52182602 0.529836536 0)
(0.79636756 0.522476586 0)
(1.1083833 0.516398809 -6.3721039e-27)
(1.46221009 0.512088717 0)
(1.86155694 0.509744342 0)
(2.31077401 0.509974095 1.65790426e-25)
(2.81440081 0.513399342 1.784385e-25)
(3.3767192 0.520735117 0)
(4.00167493 0.532773706 0)
(4.69266352 0.550339698 0)
(5.45257702 0.574246534 -4.60474357e-26)
(6.28328205 0.605313066 -5.62391825e-26)
(7.18528711 0.64434498 9.77025112e-25)
(8.15733303 0.692091649 1.16070383e-24)
(9.19592139 0.749164352 1.46445773e-24)
(10.2949864 0.816035109 1.8282969e-24)
(11.4449727 0.89290349 2.37576228e-24)
(12.6333671 0.979899175 2.83561532e-24)
(13.8418896 1.07688106 0)
(15.0552129 1.1831786 0)
(16.2550663 1.29548746 -3.02125609e-24)
(17.4267683 1.41332334 -6.78996543e-24)
(18.5462708 1.53053772 -3.81959049e-24)
(19.6025405 1.65050383 -4.02772993e-24)
(20.561901 1.76360801 -3.33209388e-24)
(21.430313 1.87105992 9.16809339e-24)
(22.1797735 1.96313638 1.86022309e-23)
(22.8392444 2.01007796 5.40841714e-25)
(23.3391549 2.06383709 -1.35099328e-23)
(23.5443623 2.07570905 5.6151542e-25)
(23.5614526 2.12208999 -1.14003966e-24)
(23.5783562 2.13160072 6.77781645e-24)
(23.5543461 2.12040574 -1.69498695e-31)
(23.5525138 2.09555141 -9.26381036e-24)
(23.6043445 2.05588404 -1.15597901e-24)
(23.637533 2.02936982 1.24025573e-23)
(23.6374331 2.01259507 7.96180323e-24)
(23.6287461 2.01020589 0)
(23.6580193 1.95823646 1.28826324e-24)
(23.7134531 1.88461032 0)
(23.7518353 1.85660128 1.33279108e-23)
(23.7762072 1.85290385 3.29999876e-23)
(23.8440557 1.77182222 1.18932269e-23)
(23.9966626 1.74834637 1.33052077e-23)
(23.9397656 1.71107542 3.15152906e-23)
(-0.0314573867 0.0167869075 1.76794825e-27)
(-0.0947984731 0.0502826094 5.71271696e-27)
(-0.159495794 0.0841451885 -6.82803211e-29)
(-0.225187516 0.118191012 -5.31439559e-27)
(-0.291282725 0.152151468 -4.83688292e-27)
(-0.357075259 0.185706205 -4.35552451e-27)
(-0.421821031 0.218529796 -1.65371986e-28)
(-0.484785843 0.250320409 2.45636354e-27)
(-0.545272949 0.280815251 1.31635129e-27)
(-0.602636831 0.30979653 -3.09770391e-29)
(-0.656282309 0.337095627 0)
(-0.705661931 0.362590021 -3.5573514e-28)
(-0.750261503 0.386172077 1.78728621e-28)
(-0.789552955 0.407799966 0)
(-0.82303128 0.427437434 0)
(-0.850170173 0.44507498 0)
(-0.870413955 0.460715813 0)
(-0.883164123 0.474381449 -1.47825454e-28)
(-0.887765568 0.486099185 0)
(-0.883489984 0.495907455 -2.46885441e-26)
(-0.869552206 0.503841566 -2.7958546e-26)
(-0.845046825 0.509976201 6.27308969e-26)
(-0.809020167 0.514382921 7.03383057e-26)
(-0.760385106 0.517160776 -7.77796281e-26)
(-0.697937118 0.518421118 -8.50846231e-26)
(-0.620335707 0.518294369 -9.28837875e-26)
(-0.526060798 0.516932614 -9.93418896e-26)
(-0.41345747 0.514513568 -9.69235893e-26)
(-0.280886853 0.511070576 -2.18266131e-25)
(-0.126155716 0.50684738 -1.52350061e-25)
(0.0532777987 0.503065461 0)
(0.254132752 0.50012477 2.47416735e-27)
(0.490820588 0.496712533 3.02413177e-27)
(0.760641395 0.49324272 0)
(1.06718322 0.491291465 -4.30721302e-27)
(1.41438678 0.491381924 0)
(1.80574895 0.493790523 0)
(2.24527162 0.499148569 2.17167664e-25)
(2.7371115 0.508114842 8.4935542e-27)
(3.2852467 0.521417273 -3.03867162e-25)
(3.89340554 0.539876052 3.54319783e-25)
(4.5648249 0.564370134 4.44530775e-25)
(5.30233227 0.59574546 -1.73367251e-26)
(6.10786728 0.634821787 0)
(6.98219706 0.682381442 8.93020988e-25)
(7.92458045 0.739121624 9.88145781e-25)
(8.93241509 0.80559634 0)
(10.000889 0.882162742 0)
(11.1225766 0.968948514 -1.86624859e-24)
(12.286943 1.0657097 -2.26608517e-24)
(13.4805558 1.17200236 2.84561681e-24)
(14.6842086 1.28735709 3.24866482e-24)
(15.8805063 1.41051169 -3.1296125e-24)
(17.0507828 1.5382746 4.67769087e-32)
(18.1775057 1.66962306 3.71353222e-24)
(19.2386374 1.79781383 1.92736396e-26)
(20.2228546 1.92475726 0)
(21.1031177 2.03560312 4.05261875e-25)
(21.8817933 2.14303803 -3.99443577e-24)
(22.5252392 2.22372512 5.25132282e-25)
(23.0650215 2.285161 6.20695159e-24)
(23.4376882 2.35009262 0)
(23.5648058 2.36204839 5.25153573e-25)
(23.5869753 2.37109584 0)
(23.5675791 2.39838552 3.32407879e-25)
(23.5659535 2.33740129 -6.52615799e-25)
(23.565973 2.34528408 -8.16159458e-25)
(23.5853906 2.30391663 -1.09676317e-23)
(23.6112262 2.28873392 -1.20551701e-23)
(23.6629947 2.25695841 -1.12682037e-24)
(23.7133612 2.2266914 -1.20169104e-23)
(23.7358259 2.22688988 -1.22914608e-23)
(23.7438575 2.23263506 -1.22037879e-23)
(23.7806242 2.24651095 -1.17230286e-23)
(23.8656465 2.19455249 -1.34618579e-23)
(23.9623014 2.16464982 -1.51266416e-23)
(24.0087808 2.16843185 1.49900809e-23)
(23.9998041 2.18765051 1.27320425e-23)
(24.1043507 2.04039611 -4.78543788e-24)
(24.1552515 2.00996709 2.15241061e-24)
(-0.0340000502 0.0164631306 1.60664022e-27)
(-0.102081799 0.0491472458 -5.18742995e-27)
(-0.17114302 0.0819978978 -1.21149039e-28)
(-0.24066976 0.114800114 -1.22761849e-34)
(-0.309914313 0.147267399 -3.02150165e-27)
(-0.378019501 0.179073886 -1.36375459e-28)
(-0.444100333 0.209898078 -6.95738946e-28)
(-0.5072923 0.239450139 2.19863086e-34)
(-0.56677454 0.26749481 -6.13076853e-27)
(-0.621794344 0.29382976 -5.57096523e-27)
(-0.671629503 0.318314519 3.14936611e-28)
(-0.71560258 0.340833903 -1.00834983e-26)
(-0.753045384 0.361347818 -1.19344912e-26)
(-0.783318321 0.379818964 -1.53245524e-26)
(-0.80576226 0.396246588 -1.8709341e-26)
(-0.81968274 0.410658401 2.2344087e-26)
(-0.824337413 0.423097964 2.63149184e-26)
(-0.818916341 0.433632489 -2.92775942e-28)
(-0.802555134 0.442323347 0)
(-0.774235012 0.449279477 -3.86564425e-26)
(-0.732914609 0.454599357 -4.37059248e-26)
(-0.67740145 0.45841842 -4.79438834e-28)
(-0.606379296 0.460885671 5.35665302e-26)
(-0.518370403 0.462173504 5.85288865e-26)
(-0.411763722 0.462480704 -3.80313054e-28)
(-0.284922226 0.46189962 0)
(-0.135779981 0.460695848 5.58830427e-29)
(0.0380857223 0.459902259 1.09908528e-28)
(0.234264096 0.459852853 -1.45938337e-25)
(0.46498408 0.45975371 -1.5869781e-25)
(0.728307527 0.45999633 2.06648143e-25)
(1.02756696 0.461946088 2.27507582e-25)
(1.36634724 0.466148339 5.38778998e-27)
(1.74794455 0.472954069 -2.51985757e-25)
(2.17605523 0.483017479 3.0267927e-33)
(2.65450866 0.497036109 3.06911426e-25)
(3.18700199 0.515770675 -3.42414509e-25)
(3.77702929 0.540053321 -4.03270824e-25)
(4.427676 0.570764759 2.01679576e-26)
(5.14164463 0.608760424 -1.20166354e-26)
(5.92090356 0.65486247 -1.55099689e-26)
(6.76641396 0.709848165 -7.98944536e-25)
(7.67783329 0.774405833 -1.96272512e-24)
(8.65319827 0.84907334 -1.18025196e-24)
(9.68861673 0.934177381 -1.36801994e-24)
(10.7779743 1.02977245 -1.73964784e-24)
(11.9126484 1.13556648 0)
(13.0813188 1.2508923 2.61376287e-24)
(14.269435 1.37476427 3.09700264e-24)
(15.4585278 1.50594459 3.45035467e-24)
(16.6289663 1.6426712 7.18643589e-24)
(17.7621215 1.78203658 7.46848947e-24)
(18.8390254 1.92177919 7.86803553e-24)
(19.8400644 2.05730101 8.27028511e-24)
(20.7490508 2.18815069 4.27870292e-24)
(21.5459373 2.30340531 -6.19984845e-25)
(22.2301722 2.41178647 0)
(22.7792508 2.48592669 -4.48198287e-24)
(23.2224084 2.55554877 -5.62675148e-24)
(23.5025391 2.60527766 0)
(23.5876634 2.61361293 -4.8643679e-24)
(23.5972192 2.61760092 -4.84982179e-24)
(23.5757152 2.64592997 0)
(23.5658857 2.61803548 -5.24174401e-25)
(23.573792 2.59298927 0)
(23.5953745 2.57509964 -1.20570811e-23)
(23.6165113 2.56857497 -1.70169026e-24)
(23.6590598 2.54396832 1.19555353e-23)
(23.7126574 2.51836301 -1.21571226e-24)
(23.7750136 2.49604828 -1.24681368e-24)
(23.8674467 2.45877162 -1.20071874e-23)
(23.9364652 2.43471573 -1.15090617e-23)
(23.9825199 2.45345917 -1.20575428e-24)
(24.0062687 2.4572767 -1.16846218e-24)
(24.0292071 2.47646782 -7.48027999e-26)
(24.0483704 2.39697776 -1.71017558e-24)
(24.0757174 2.35644653 1.2597818e-23)
(24.0945736 2.27638321 2.97832186e-23)
(24.1020919 2.30791287 1.31912799e-23)
(24.1098633 2.15970628 -3.56557197e-24)
(-0.0363031411 0.0158551575 0)
(-0.10841115 0.04715699 -1.94085285e-28)
(-0.18084415 0.078427784 2.01892418e-28)
(-0.252904212 0.109428869 6.87284375e-28)
(-0.323660226 0.139866776 2.19745866e-28)
(-0.392086705 0.169416411 2.28598529e-28)
(-0.457133198 0.197776893 -4.60898896e-27)
(-0.517777482 0.224680684 0)
(-0.573047787 0.249901874 5.02793097e-28)
(-0.622022277 0.273289842 -1.18415309e-26)
(-0.663838326 0.294727579 -1.44994796e-26)
(-0.697663724 0.314153165 1.85296911e-26)
(-0.72268133 0.3315473 5.64690731e-28)
(-0.738068549 0.346927274 -5.25394484e-26)
(-0.742970546 0.360347004 -6.21146959e-26)
(-0.736482604 0.371868841 -3.49948792e-26)
(-0.717629695 0.38160145 -5.88108768e-28)
(-0.685324137 0.389663507 -4.58190376e-26)
(-0.638426382 0.396194295 -5.09243834e-26)
(-0.575654618 0.401366578 5.40722361e-28)
(-0.495587386 0.405372574 -5.60648222e-28)
(-0.396671755 0.408432379 -2.02802853e-27)
(-0.27729736 0.410693216 -7.46254944e-26)
(-0.135521576 0.412439179 -1.83199345e-25)
(0.0309678637 0.414544353 -9.68693537e-26)
(0.220504525 0.417306351 -7.39198482e-28)
(0.443354067 0.420346404 -9.45851924e-26)
(0.698236034 0.424046098 3.96759658e-28)
(0.98826625 0.429587016 -2.06919203e-28)
(1.3167172 0.437531657 -1.32248601e-25)
(1.68669206 0.448300114 0)
(2.10161014 0.462566313 -3.12467542e-25)
(2.56500189 0.481051126 2.11305193e-27)
(3.08030252 0.50453048 3.80659224e-25)
(3.65078454 0.533838496 4.28765622e-25)
(4.27939262 0.569852841 4.85837166e-25)
(4.96870644 0.613440111 7.55409569e-27)