/*--------------------------------*- C++ -*----------------------------------*\
  =========                 |
  \\      /  F ield         | OpenFOAM: The Open Source CFD Toolbox
   \\    /   O peration     | Website:  https://openfoam.org
    \\  /    A nd           | Version:  8
     \\/     M anipulation  |
\*---------------------------------------------------------------------------*/
FoamFile
{
    version     2.0;
    format      ascii;
    class       volScalarField;
    location    "0.046";
    object      p_rgh;
}
// * * * * * * * * * * * * * * * * * * * * * * * * * * * * * * * * * * * * * //

dimensions      [1 -1 -2 0 0 0 0];

internalField   nonuniform List<scalar> 
42400
(
101434.823
101434.815
101434.805
101434.794
101434.784
101434.773
101434.762
101434.75
101434.738
101434.726
101434.713
101434.7
101434.686
101434.672
101434.658
101434.643
101434.628
101434.612
101434.596
101434.579
101434.562
101434.544
101434.526
101434.507
101434.487
101434.467
101434.446
101434.425
101434.403
101434.38
101434.356
101434.332
101434.307
101434.282
101434.257
101434.236
101434.22
101434.207
101434.186
101434.155
101434.119
101434.088
101434.065
101434.05
101434.037
101434.026
101434.018
101434.012
101434.007
101434.001
101434.01
101434.04
101434.054
101434.043
101434.045
101434.063
101434.089
101434.105
101434.113
101434.109
101434.088
101434.049
101433.991
101433.919
101433.823
101433.682
101433.498
101433.255
101432.912
101432.667
101432.42
101431.559
101431.253
101431.444
101430.131
101429.132
101429.683
101428.387
101430.053
101434.563
101434.416
101434.409
101434.402
101434.394
101434.386
101434.378
101434.369
101434.361
101434.352
101434.342
101434.333
101434.323
101434.313
101434.303
101434.292
101434.282
101434.271
101434.26
101434.248
101434.237
101434.225
101434.212
101434.2
101434.187
101434.174
101434.16
101434.146
101434.131
101434.116
101434.101
101434.085
101434.068
101434.054
101434.044
101434.036
101434.025
101434.003
101433.975
101433.951
101433.935
101433.924
101433.913
101433.903
101433.895
101433.887
101433.878
101433.876
101433.888
101433.913
101433.921
101433.911
101433.92
101433.945
101433.97
101433.994
101434.02
101434.045
101434.068
101434.091
101434.12
101434.156
101434.194
101434.228
101434.254
101434.269
101434.259
101434.253
101434.291
101434.249
101434.279
101434.616
101434.57
101434.489
101434.959
101434.833
101435.185
101438.296
101440.257
101442.172
101445.514
101434.035
101434.031
101434.026
101434.02
101434.015
101434.009
101434.003
101433.997
101433.991
101433.984
101433.978
101433.971
101433.965
101433.958
101433.952
101433.945
101433.938
101433.931
101433.925
101433.918
101433.911
101433.904
101433.897
101433.89
101433.883
101433.876
101433.868
101433.86
101433.853
101433.847
101433.843
101433.84
101433.834
101433.822
101433.806
101433.79
101433.778
101433.773
101433.768
101433.763
101433.759
101433.755
101433.747
101433.746
101433.765
101433.789
101433.782
101433.768
101433.78
101433.807
101433.833
101433.86
101433.89
101433.924
101433.964
101434.013
101434.079
101434.158
101434.248
101434.347
101434.462
101434.596
101434.755
101434.948
101435.179
101435.424
101435.674
101436.074
101436.465
101436.997
101437.687
101437.999
101438.443
101441.479
101444.535
101445.637
101446.118
101447.978
101451.395
101453.285
101433.69
101433.686
101433.682
101433.678
101433.675
101433.67
101433.666
101433.662
101433.657
101433.653
101433.649
101433.645
101433.642
101433.638
101433.634
101433.631
101433.628
101433.625
101433.623
101433.621
101433.619
101433.617
101433.616
101433.615
101433.613
101433.612
101433.611
101433.612
101433.612
101433.611
101433.608
101433.604
101433.6
101433.599
101433.601
101433.603
101433.605
101433.607
101433.608
101433.606
101433.609
101433.632
101433.65
101433.643
101433.638
101433.655
101433.68
101433.701
101433.724
101433.752
101433.787
101433.831
101433.891
101433.967
101434.058
101434.165
101434.292
101434.447
101434.636
101434.858
101435.119
101435.417
101435.77
101436.18
101436.677
101437.246
101437.83
101438.551
101438.881
101439.619
101442.095
101445.752
101447.447
101447.062
101447.253
101449.135
101451.241
101452.841
101454.368
101456.379
101433.366
101433.362
101433.359
101433.356
101433.352
101433.349
101433.346
101433.343
101433.34
101433.337
101433.335
101433.333
101433.331
101433.33
101433.33
101433.33
101433.33
101433.331
101433.333
101433.335
101433.337
101433.339
101433.341
101433.345
101433.35
101433.356
101433.362
101433.368
101433.374
101433.381
101433.389
101433.397
101433.405
101433.413
101433.421
101433.429
101433.436
101433.444
101433.47
101433.494
101433.492
101433.489
101433.508
101433.531
101433.551
101433.573
101433.6
101433.634
101433.678
101433.735
101433.805
101433.889
101433.994
101434.125
101434.29
101434.494
101434.742
101435.036
101435.385
101435.787
101436.26
101436.771
101437.377
101438.018
101438.758
101439.435
101440.277
101442.095
101445.31
101447.23
101447.453
101447.523
101448.661
101450.683
101452.675
101454.554
101456.275
101458.259
101460.553
101463.049
101433.055
101433.052
101433.048
101433.044
101433.041
101433.038
101433.035
101433.033
101433.031
101433.029
101433.027
101433.027
101433.027
101433.028
101433.03
101433.033
101433.037
101433.04
101433.044
101433.05
101433.058
101433.068
101433.078
101433.089
101433.101
101433.113
101433.126
101433.139
101433.153
101433.167
101433.182
101433.197
101433.213
101433.228
101433.24
101433.258
101433.29
101433.304
101433.306
101433.328
101433.355
101433.377
101433.4
101433.428
101433.462
101433.502
101433.552
101433.612
101433.686
101433.78
101433.899
101434.05
101434.238
101434.473
101434.761
101435.107
101435.522
101436.01
101436.585
101437.236
101437.994
101438.808
101439.75
101440.762
101441.959
101444.212
101446.358
101447.048
101447.483
101448.919
101450.526
101452.391
101454.522
101456.111
101457.466
101459.16
101461.212
101463.27
101465.779
101468.402
101432.732
101432.728
101432.723
101432.719
101432.716
101432.713
101432.711
101432.709
101432.708
101432.708
101432.708
101432.709
101432.71
101432.712
101432.716
101432.722
101432.729
101432.738
101432.749
101432.761
101432.773
101432.787
101432.801
101432.817
101432.834
101432.852
101432.871
101432.891
101432.911
101432.933
101432.955
101432.974
101432.999
101433.035
101433.059
101433.071
101433.096
101433.129
101433.157
101433.186
101433.218
101433.253
101433.294
101433.342
101433.399
101433.468
101433.553
101433.659
101433.792
101433.956
101434.161
101434.414
101434.725
101435.101
101435.549
101436.081
101436.711
101437.438
101438.279
101439.226
101440.276
101441.449
101442.759
101444.724
101446.32
101447.145
101448.269
101450.013
101451.636
101453.123
101454.664
101456.281
101457.754
101459.293
101461.102
101463.26
101465.455
101467.647
101469.861
101471.724
101432.37
101432.366
101432.361
101432.357
101432.354
101432.351
101432.35
101432.349
101432.349
101432.35
101432.352
101432.356
101432.362
101432.369
101432.378
101432.387
101432.397
101432.41
101432.424
101432.439
101432.457
101432.475
101432.496
101432.517
101432.541
101432.565
101432.591
101432.618
101432.643
101432.673
101432.714
101432.745
101432.766
101432.799
101432.838
101432.874
101432.911
101432.951
101432.994
101433.042
101433.095
101433.156
101433.228
101433.313
101433.414
101433.538
101433.688
101433.872
101434.096
101434.369
101434.701
101435.096
101435.562
101436.107
101436.745
101437.48
101438.328
101439.28
101440.382
101441.618
101442.902
101444.417
101445.772
101446.88
101448.352
101450
101451.539
101453.091
101454.629
101456.261
101457.907
101459.667
101461.468
101463.266
101465.077
101467.188
101469.642
101472.389
101475.014
101477.986
101431.936
101431.932
101431.928
101431.925
101431.923
101431.922
101431.922
101431.923
101431.926
101431.931
101431.937
101431.944
101431.953
101431.964
101431.976
101431.99
101432.006
101432.024
101432.044
101432.066
101432.09
101432.116
101432.143
101432.173
101432.204
101432.234
101432.269
101432.314
101432.351
101432.381
101432.422
101432.468
101432.513
101432.56
101432.609
101432.662
101432.719
101432.782
101432.852
101432.931
101433.022
101433.128
101433.253
101433.401
101433.579
101433.791
101434.046
101434.35
101434.712
101435.138
101435.633
101436.203
101436.857
101437.593
101438.422
101439.332
101440.339
101441.349
101442.533
101444.395
101446.191
101447.418
101448.78
101450.312
101451.832
101453.292
101454.847
101456.462
101458.314
101460.193
101462.02
101464.097
101466.438
101468.947
101471.545
101473.928
101475.871
101477.482
101479.062
101480.951
101431.406
101431.404
101431.402
101431.401
101431.402
101431.404
101431.407
101431.413
101431.419
101431.428
101431.438
101431.45
101431.464
101431.481
101431.5
101431.52
101431.543
101431.569
101431.597
101431.627
101431.659
101431.693
101431.728
101431.768
101431.816
101431.859
101431.898
101431.945
101431.999
101432.052
101432.107
101432.166
101432.228
101432.295
101432.368
101432.447
101432.535
101432.634
101432.747
101432.876
101433.027
101433.204
101433.411
101433.657
101433.947
101434.288
101434.69
101435.159
101435.7
101436.32
101437.024
101437.81
101438.687
101439.629
101440.661
101441.739
101443.088
101445.128
101446.868
101447.834
101448.774
101450.217
101451.729
101453.516
101455.579
101457.684
101459.834
101462.001
101463.804
101465.409
101467.232
101469.122
101470.755
101472.612
101474.821
101476.536
101477.77
101479.418
101482.115
101484.142
101430.736
101430.737
101430.738
101430.742
101430.747
101430.753
101430.761
101430.772
101430.784
101430.799
101430.816
101430.835
101430.857
101430.882
101430.909
101430.939
101430.972
101431.007
101431.044
101431.084
101431.128
101431.18
101431.229
101431.275
101431.33
101431.39
101431.451
101431.514
101431.582
101431.653
101431.729
101431.81
101431.898
101431.994
101432.1
101432.218
101432.352
101432.504
101432.678
101432.881
101433.116
101433.391
101433.713
101434.088
101434.526
101435.032
101435.616
101436.284
101437.046
101437.905
101438.868
101439.923
101441.096
101442.346
101443.855
101445.684
101447.034
101447.932
101449.177
101450.682
101452.265
101454.221
101456.185
101458.177
101459.855
101461.332
101462.864
101464.473
101466.19
101467.887
101469.706
101471.793
101473.69
101475.615
101477.492
101479.611
101482.141
101484.26
101485.98
101487.711
101429.892
101429.897
101429.904
101429.912
101429.923
101429.935
101429.95
101429.968
101429.988
101430.011
101430.037
101430.066
101430.098
101430.133
101430.171
101430.211
101430.256
101430.306
101430.361
101430.413
101430.467
101430.528
101430.594
101430.662
101430.733
101430.808
101430.888
101430.972
101431.062
101431.158
101431.261
101431.373
101431.497
101431.634
101431.787
101431.96
101432.157
101432.383
101432.643
101432.944
101433.291
101433.693
101434.156
101434.687
101435.293
101435.98
101436.754
101437.619
101438.578
101439.631
101440.779
101442.009
101443.346
101444.978
101446.369
101447.498
101449.036
101450.608
101451.985
101453.466
101455.242
101456.999
101458.512
101460.029
101461.826
101463.606
101465.325
101467.136
101469.071
101471.093
101473.438
101475.457
101477.304
101479.391
101481.668
101484.257
101486.331
101488.188
101489.823
101492.112
101428.815
101428.826
101428.839
101428.855
101428.873
101428.894
101428.918
101428.945
101428.975
101429.009
101429.046
101429.086
101429.13
101429.178
101429.232
101429.287
101429.344
101429.407
101429.475
101429.546
101429.621
101429.699
101429.782
101429.869
101429.961
101430.059
101430.163
101430.274
101430.393
101430.522
101430.664
101430.82
101430.993
101431.188
101431.408
101431.658
101431.943
101432.269
101432.644
101433.072
101433.561
101434.118
101434.747
101435.456
101436.247
101437.122
101438.08
101439.108
101440.205
101441.358
101442.71
101444.337
101445.827
101446.985
101448.21
101449.804
101451.42
101453.012
101454.678
101456.422
101458.168
101460
101461.831
101463.371
101464.994
101466.812
101468.495
101470.519
101472.903
101474.974
101477.088
101479.372
101481.516
101483.168
101485.27
101487.282
101489.402
101491.627
101493.441
101495.854
101427.456
101427.474
101427.497
101427.522
101427.55
101427.581
101427.616
101427.654
101427.696
101427.742
101427.793
101427.849
101427.907
101427.968
101428.035
101428.108
101428.183
101428.264
101428.348
101428.438
101428.532
101428.631
101428.736
101428.847
101428.965
101429.091
101429.227
101429.374
101429.533
101429.709
101429.904
101430.121
101430.365
101430.64
101430.952
101431.307
101431.71
101432.168
101432.686
101433.271
101433.928
101434.66
101435.472
101436.364
101437.342
101438.412
101439.571
101440.813
101442.187
101443.749
101445.089
101446.181
101447.541
101449.087
101450.694
101452.372
101454.073
101455.816
101457.589
101459.406
101461.229
101463.094
101464.933
101466.748
101468.368
101470.059
101472.045
101474.473
101476.402
101478.123
101480.033
101481.862
101483.893
101486.213
101487.964
101489.583
101492.107
101494.53
101496.06
101497.658
101425.751
101425.779
101425.812
101425.849
101425.889
101425.932
101425.98
101426.032
101426.089
101426.149
101426.214
101426.285
101426.36
101426.439
101426.524
101426.613
101426.707
101426.807
101426.912
101427.023
101427.14
101427.264
101427.396
101427.537
101427.688
101427.852
101428.03
101428.225
101428.441
101428.681
101428.95
101429.253
101429.594
101429.981
101430.418
101430.912
101431.47
101432.097
101432.797
101433.575
101434.434
101435.373
101436.391
101437.486
101438.654
101439.891
101441.179
101442.522
101443.861
101445.184
101446.636
101448.19
101449.77
101451.352
101453.001
101454.692
101456.365
101457.975
101459.826
101461.956
101464.016
101465.995
101467.856
101469.973
101472.29
101474.142
101475.825
101477.135
101478.662
101481.165
101483.71
101485.959
101487.212
101488.704
101490.802
101492.681
101494.332
101496.385
101498.393
101499.909
101423.653
101423.693
101423.74
101423.79
101423.843
101423.901
101423.963
101424.03
101424.102
101424.179
101424.261
101424.348
101424.44
101424.538
101424.641
101424.749
101424.863
101424.984
101425.111
101425.246
101425.39
101425.543
101425.707
101425.884
101426.076
101426.287
101426.518
101426.775
101427.062
101427.383
101427.743
101428.149
101428.606
101429.121
101429.699
101430.345
101431.064
101431.859
101432.734
101433.689
101434.723
101435.835
101437.021
101438.275
101439.597
101440.978
101442.425
101443.934
101445.483
101447.013
101448.523
101450.085
101451.672
101453.272
101455.066
101457.264
101459.841
101462.494
101464.499
101466.234
101468.072
101469.802
101471.786
101473.314
101474.646
101476.603
101479.012
101481.737
101483.557
101484.654
101486.016
101487.86
101490.556
101492.424
101493.964
101496.565
101498.592
101500.171
101502.326
101503.883
101421.131
101421.184
101421.246
101421.312
101421.38
101421.454
101421.532
101421.616
101421.705
101421.799
101421.898
101422.003
101422.113
101422.23
101422.353
101422.483
101422.62
101422.765
101422.919
101423.083
101423.26
101423.45
101423.657
101423.883
101424.132
101424.407
101424.713
101425.056
101425.439
101425.869
101426.353
101426.895
101427.501
101428.178
101428.929
101429.758
101430.667
101431.659
101432.734
101433.888
101435.121
101436.429
101437.801
101439.248
101440.752
101442.302
101443.87
101445.413
101447.229
101449.278
101451.312
101453.426
101455.601
101457.712
101459.679
101461.698
101463.205
101464.571
101466.296
101468.124
101469.945
101471.797
101473.562
101475.58
101477.819
101479.86
101481.586
101483.255
101485.713
101488.396
101490.556
101492.234
101493.924
101495.804
101497.577
101499.483
101502.977
101504.948
101506.958
101509.311
101418.185
101418.253
101418.333
101418.415
101418.501
101418.592
101418.688
101418.789
101418.896
101419.009
101419.128
101419.254
101419.386
101419.526
101419.674
101419.831
101419.998
101420.176
101420.369
101420.577
101420.803
101421.05
101421.323
101421.624
101421.959
101422.333
101422.752
101423.22
101423.745
101424.331
101424.985
101425.711
101426.514
101427.397
101428.361
101429.408
101430.535
101431.741
101433.022
101434.369
101435.779
101437.248
101438.756
101440.421
101442.279
101444.285
101446.362
101448.39
101450.054
101451.429
101453.024
101454.829
101456.811
101458.948
101460.925
101462.336
101463.81
101465.889
101468.02
101470.109
101472.17
101474.251
101476.215
101478.066
101480.029
101482.126
101484.1
101486.023
101488.185
101490.509
101492.947
101495.546
101497.728
101499.42
101501.659
101504.395
101506.738
101508.75
101510.143
101512.892
101414.85
101414.934
101415.032
101415.131
101415.234
101415.343
101415.457
101415.577
101415.703
101415.836
101415.976
101416.124
101416.281
101416.448
101416.626
101416.817
101417.023
101417.246
101417.489
101417.755
101418.049
101418.375
101418.737
101419.141
101419.593
101420.098
101420.664
101421.295
101421.998
101422.778
101423.64
101424.586
101425.62
101426.742
101427.953
101429.252
101430.636
101432.104
101433.649
101435.267
101436.965
101438.727
101440.517
101442.201
101443.819
101445.48
101447.132
101448.947
101450.918
101452.955
101454.926
101456.684
101458.492
101460.755
101463.345
101465.516
101467.301
101469.17
101471.145
101473.137
101475.123
101477.176
101478.936
101480.541
101482.741
101485.134
101487.545
101490.096
101492.016
101493.717
101495.835
101498.731
101500.979
101502.694
101504.38
101507.095
101509.395
101511.139
101512.817
101514.584
101411.169
101411.269
101411.384
101411.5
101411.62
101411.744
101411.875
101412.013
101412.157
101412.31
101412.472
101412.643
101412.827
101413.024
101413.237
101413.469
101413.722
101414.001
101414.309
101414.651
101415.032
101415.459
101415.936
101416.471
101417.07
101417.738
101418.483
101419.308
101420.219
101421.219
101422.308
101423.486
101424.753
101426.102
101427.528
101429.023
101430.577
101432.176
101433.813
101435.527
101437.267
101438.981
101440.755
101442.615
101444.465
101446.257
101448.283
101450.635
101453.146
101455.811
101458.534
101461.323
101464.003
101465.929
101467.373
101468.676
101470.477
101472.813
101474.989
101477.171
101479.39
101481.576
101483.971
101486.633
101488.632
101490.151
101491.72
101493.225
101495.438
101498.354
101500.121
101501.369
101503.37
101505.85
101507.965
101509.74
101511.865
101514.612
101516.448
101517.585
101484.431
101484.432
101484.435
101484.439
101484.446
101484.453
101484.463
101484.475
101484.488
101484.503
101484.52
101484.539
101484.56
101484.583
101484.609
101484.636
101484.666
101484.698
101484.733
101484.771
101484.811
101484.854
101484.899
101484.948
101485
101485.056
101485.114
101485.177
101485.243
101485.314
101485.388
101485.467
101485.551
101485.64
101485.733
101485.832
101485.938
101486.051
101486.172
101486.298
101486.431
101486.572
101486.721
101486.879
101487.046
101487.223
101487.409
101487.605
101487.811
101488.027
101488.255
101488.492
101488.74
101488.996
101489.261
101489.532
101489.807
101490.086
101490.365
101490.64
101490.902
101491.142
101491.352
101491.527
101491.659
101491.743
101491.73
101491.534
101491.166
101490.626
101489.919
101489.3
101488.794
101488.149
101487.376
101486.654
101486.04
101485.637
101485.391
101483.605
101480.787
101480.788
101480.79
101480.793
101480.798
101480.804
101480.812
101480.821
101480.832
101480.844
101480.858
101480.874
101480.891
101480.911
101480.932
101480.955
101480.98
101481.007
101481.036
101481.067
101481.101
101481.137
101481.175
101481.217
101481.261
101481.307
101481.357
101481.411
101481.467
101481.527
101481.591
101481.659
101481.731
101481.808
101481.89
101481.977
101482.069
101482.167
101482.271
101482.382
101482.499
101482.624
101482.756
101482.895
101483.043
101483.199
101483.365
101483.539
101483.723
101483.916
101484.118
101484.33
101484.549
101484.775
101485.007
101485.241
101485.475
101485.706
101485.932
101486.15
101486.359
101486.548
101486.676
101486.702
101486.588
101486.314
101485.947
101485.509
101485.002
101484.423
101483.767
101483.041
101482.298
101481.492
101480.631
101479.723
101478.836
101478.192
101477.709
101474.982
101476.955
101476.955
101476.956
101476.958
101476.961
101476.965
101476.971
101476.977
101476.985
101476.994
101477.004
101477.015
101477.028
101477.042
101477.058
101477.074
101477.093
101477.113
101477.135
101477.158
101477.183
101477.21
101477.239
101477.27
101477.303
101477.338
101477.376
101477.417
101477.459
101477.505
101477.554
101477.606
101477.662
101477.721
101477.785
101477.852
101477.924
101478.001
101478.083
101478.169
101478.262
101478.361
101478.465
101478.577
101478.694
101478.818
101478.95
101479.09
101479.238
101479.391
101479.549
101479.716
101479.893
101480.078
101480.266
101480.451
101480.628
101480.788
101480.919
101481.004
101481.025
101480.977
101480.867
101480.695
101480.43
101480.053
101479.553
101478.935
101478.194
101477.353
101476.402
101475.336
101474.154
101472.801
101471.244
101469.462
101467.481
101465.578
101462.383
101457.458
101472.98
101472.98
101472.98
101472.981
101472.982
101472.984
101472.987
101472.99
101472.994
101472.999
101473.005
101473.011
101473.018
101473.027
101473.035
101473.045
101473.056
101473.068
101473.08
101473.094
101473.109
101473.124
101473.141
101473.16
101473.18
101473.201
101473.223
101473.247
101473.273
101473.301
101473.331
101473.363
101473.398
101473.434
101473.474
101473.516
101473.561
101473.609
101473.66
101473.715
101473.773
101473.835
101473.901
101473.971
101474.048
101474.128
101474.213
101474.301
101474.386
101474.483
101474.585
101474.68
101474.77
101474.855
101474.936
101475.01
101475.068
101475.106
101475.112
101475.077
101474.984
101474.814
101474.549
101474.188
101473.736
101473.171
101472.48
101471.648
101470.634
101469.417
101467.957
101466.232
101464.233
101461.976
101459.47
101456.671
101453.553
101449.37
101443.479
101439.873
101468.924
101468.924
101468.923
101468.923
101468.923
101468.922
101468.922
101468.923
101468.923
101468.923
101468.924
101468.925
101468.926
101468.927
101468.928
101468.93
101468.931
101468.933
101468.936
101468.938
101468.941
101468.944
101468.947
101468.95
101468.954
101468.959
101468.963
101468.969
101468.975
101468.981
101468.988
101468.996
101469.004
101469.013
101469.023
101469.034
101469.045
101469.058
101469.071
101469.086
101469.102
101469.119
101469.137
101469.156
101469.177
101469.199
101469.216
101469.231
101469.248
101469.264
101469.28
101469.291
101469.294
101469.285
101469.259
101469.214
101469.147
101469.049
101468.913
101468.73
101468.489
101468.177
101467.779
101467.253
101466.566
101465.683
101464.582
101463.257
101461.692
101459.844
101457.674
101455.157
101452.324
101449.249
101445.973
101442.429
101438.21
101432.776
101427.699
101424.732
101464.857
101464.856
101464.855
101464.854
101464.852
101464.849
101464.847
101464.843
101464.84
101464.835
101464.831
101464.826
101464.82
101464.814
101464.807
101464.8
101464.792
101464.784
101464.775
101464.766
101464.755
101464.744
101464.732
101464.72
101464.706
101464.693
101464.678
101464.662
101464.646
101464.628
101464.61
101464.591
101464.57
101464.549
101464.526
101464.502
101464.477
101464.451
101464.424
101464.395
101464.364
101464.332
101464.297
101464.26
101464.219
101464.169
101464.115
101464.062
101464.002
101463.936
101463.858
101463.768
101463.666
101463.549
101463.412
101463.249
101463.052
101462.812
101462.514
101462.144
101461.681
101461.101
101460.374
101459.472
101458.356
101457.005
101455.407
101453.549
101451.399
101448.924
101446.088
101442.886
101439.389
101435.7
101431.761
101427.169
101421.434
101414.817
101408.389
101401.843
101460.856
101460.856
101460.854
101460.852
101460.849
101460.844
101460.839
101460.832
101460.824
101460.816
101460.806
101460.795
101460.783
101460.769
101460.755
101460.739
101460.721
101460.702
101460.682
101460.659
101460.636
101460.611
101460.584
101460.555
101460.524
101460.492
101460.457
101460.42
101460.381
101460.339
101460.294
101460.247
101460.198
101460.145
101460.09
101460.031
101459.969
101459.903
101459.833
101459.758
101459.679
101459.595
101459.505
101459.405
101459.297
101459.184
101459.063
101458.935
101458.794
101458.639
101458.469
101458.28
101458.068
101457.829
101457.557
101457.247
101456.886
101456.461
101455.954
101455.346
101454.611
101453.723
101452.653
101451.369
101449.846
101448.068
101446.02
101443.68
101441.001
101437.928
101434.404
101430.415
101425.984
101421.049
101415.487
101408.819
101401.956
101394.967
101383.708
101373.603
101457.002
101457.002
101457
101456.997
101456.992
101456.986
101456.978
101456.968
101456.957
101456.944
101456.929
101456.912
101456.894
101456.873
101456.851
101456.826
101456.799
101456.77
101456.739
101456.706
101456.669
101456.631
101456.589
101456.545
101456.497
101456.447
101456.393
101456.335
101456.274
101456.209
101456.139
101456.066
101455.988
101455.906
101455.818
101455.725
101455.626
101455.521
101455.41
101455.291
101455.165
101455.028
101454.881
101454.726
101454.56
101454.384
101454.195
101453.99
101453.768
101453.525
101453.261
101452.97
101452.649
101452.291
101451.889
101451.431
101450.905
101450.293
101449.581
101448.748
101447.773
101446.63
101445.292
101443.731
101441.923
101439.848
101437.477
101434.748
101431.532
101427.68
101423.226
101418.172
101412.473
101407.007
101401.999
101396.298
101387.217
101372.951
101360.31
101349.635
101453.372
101453.371
101453.37
101453.366
101453.36
101453.352
101453.342
101453.329
101453.315
101453.298
101453.279
101453.257
101453.233
101453.206
101453.177
101453.145
101453.11
101453.073
101453.032
101452.988
101452.94
101452.889
101452.835
101452.776
101452.714
101452.647
101452.576
101452.5
101452.419
101452.333
101452.241
101452.144
101452.041
101451.932
101451.815
101451.691
101451.56
101451.42
101451.272
101451.113
101450.943
101450.762
101450.569
101450.366
101450.148
101449.915
101449.664
101449.394
101449.103
101448.787
101448.443
101448.066
101447.65
101447.19
101446.674
101446.088
101445.421
101444.658
101443.783
101442.777
101441.616
101440.27
101438.706
101436.886
101434.764
101432.301
101429.456
101426.169
101422.425
101418.625
101414.677
101410.313
101405.835
101400.508
101391.87
101379.653
101367.083
101355.734
101345.209
101336.255
101450.034
101450.034
101450.032
101450.028
101450.021
101450.011
101449.999
101449.985
101449.967
101449.947
101449.925
101449.899
101449.87
101449.839
101449.804
101449.766
101449.724
101449.679
101449.63
101449.578
101449.521
101449.46
101449.395
101449.325
101449.25
101449.17
101449.085
101448.994
101448.898
101448.795
101448.686
101448.57
101448.446
101448.315
101448.176
101448.028
101447.872
101447.705
101447.527
101447.336
101447.134
101446.921
101446.695
101446.454
101446.197
101445.923
101445.63
101445.315
101444.976
101444.611
101444.214
101443.783
101443.311
101442.791
101442.209
101441.554
101440.812
101439.966
101439
101437.892
101436.613
101435.134
101433.555
101431.895
101429.891
101427.485
101425.082
101422.756
101419.944
101415.819
101410.294
101403.977
101396.536
101388.444
101380.03
101370.913
101361.272
101351.338
101341.355
101333.372
101447.045
101447.045
101447.043
101447.038
101447.03
101447.02
101447.006
101446.99
101446.971
101446.948
101446.923
101446.894
101446.862
101446.827
101446.788
101446.745
101446.699
101446.648
101446.594
101446.535
101446.472
101446.404
101446.331
101446.253
101446.17
101446.081
101445.986
101445.885
101445.778
101445.664
101445.542
101445.413
101445.277
101445.132
101444.978
101444.814
101444.64
101444.454
101444.257
101444.05
101443.831
101443.599
101443.354
101443.092
101442.814
101442.518
101442.203
101441.865
101441.503
101441.114
101440.695
101440.24
101439.744
101439.198
101438.595
101437.927
101437.191
101436.382
101435.499
101434.539
101433.496
101432.302
101430.779
101428.865
101426.839
101424.71
101422.003
101418.48
101414.671
101410.65
101406.156
101401.042
101395.269
101387.909
101380.054
101372.249
101363.566
101355.344
101348.368
101341.277
101444.442
101444.441
101444.438
101444.433
101444.424
101444.412
101444.398
101444.38
101444.359
101444.335
101444.308
101444.277
101444.243
101444.205
101444.164
101444.119
101444.069
101444.016
101443.958
101443.896
101443.829
101443.757
101443.68
101443.598
101443.51
101443.417
101443.317
101443.211
101443.098
101442.979
101442.852
101442.717
101442.573
101442.421
101442.259
101442.088
101441.906
101441.715
101441.514
101441.302
101441.077
101440.84
101440.59
101440.325
101440.045
101439.75
101439.437
101439.106
101438.755
101438.384
101437.984
101437.554
101437.099
101436.613
101436.075
101435.466
101434.78
101434.002
101433.11
101432.074
101430.898
101429.631
101428.26
101426.71
101424.963
101423
101420.741
101418.147
101415.197
101411.871
101408.092
101403.754
101398.893
101393.373
101387.393
101380.759
101373.725
101366.096
101357.406
101349.953
101442.242
101442.24
101442.236
101442.23
101442.22
101442.207
101442.192
101442.173
101442.151
101442.126
101442.098
101442.066
101442.031
101441.992
101441.95
101441.904
101441.854
101441.8
101441.741
101441.678
101441.611
101441.538
101441.461
101441.379
101441.291
101441.197
101441.098
101440.992
101440.879
101440.759
101440.632
101440.498
101440.355
101440.205
101440.046
101439.878
101439.702
101439.516
101439.32
101439.114
101438.896
101438.667
101438.425
101438.171
101437.903
101437.621
101437.323
101437.009
101436.677
101436.324
101435.951
101435.555
101435.134
101434.682
101434.192
101433.659
101433.077
101432.438
101431.732
101430.951
101430.081
101429.112
101428.028
101426.803
101425.409
101423.82
101422.006
101419.933
101417.567
101414.869
101411.788
101408.271
101404.31
101399.87
101394.876
101389.405
101383.466
101377.206
101370.194
101363.021
101440.434
101440.431
101440.425
101440.417
101440.406
101440.392
101440.376
101440.356
101440.334
101440.309
101440.28
101440.249
101440.214
101440.176
101440.134
101440.089
101440.04
101439.988
101439.931
101439.871
101439.806
101439.736
101439.661
101439.582
101439.497
101439.407
101439.312
101439.21
101439.102
101438.99
101438.871
101438.744
101438.61
101438.469
101438.321
101438.166
101438.002
101437.829
101437.648
101437.458
101437.259
101437.05
101436.832
101436.604
101436.365
101436.117
101435.858
101435.59
101435.3
101434.995
101434.686
101434.368