/*--------------------------------*- C++ -*----------------------------------*\
  =========                 |
  \\      /  F ield         | OpenFOAM: The Open Source CFD Toolbox
   \\    /   O peration     | Website:  https://openfoam.org
    \\  /    A nd           | Version:  8
     \\/     M anipulation  |
\*---------------------------------------------------------------------------*/
FoamFile
{
    version     2.0;
    format      ascii;
    class       surfaceScalarField;
    location    "0.046";
    object      phi;
}
// * * * * * * * * * * * * * * * * * * * * * * * * * * * * * * * * * * * * * //

dimensions      [1 0 -1 0 0 0 0];

internalField   nonuniform List<scalar> 
84340
(
-4.23795785e-08
3.03160697e-07
-2.60943567e-07
-1.76785994e-07
9.22949165e-07
-7.8880549e-07
-4.14189591e-07
1.5783983e-06
-1.34131934e-06
-7.65809369e-07
2.27273174e-06
-1.92149001e-06
-1.24236018e-06
3.00845679e-06
-2.53233113e-06
-1.85379039e-06
3.78772745e-06
-3.17676596e-06
-2.60904118e-06
4.61223676e-06
-3.85749706e-06
-3.51597102e-06
5.48314e-06
-4.57676408e-06
-4.58136509e-06
6.4010176e-06
-5.33622191e-06
-5.81098924e-06
7.36595469e-06
-6.1369758e-06
-7.20965585e-06
8.37768428e-06
-6.97971282e-06
-8.78127761e-06
9.43572582e-06
-7.86485248e-06
-1.05288967e-05
1.05394922e-05
-8.79267859e-06
-1.24546813e-05
1.16883583e-05
-9.76344034e-06
-1.45598794e-05
1.28816878e-05
-1.07774218e-05
-1.68447486e-05
1.41188419e-05
-1.1834975e-05
-1.9308437e-05
1.5399154e-05
-1.29365433e-05
-2.19488445e-05
1.67218945e-05
-1.40826452e-05
-2.47624465e-05
1.8086227e-05
-1.52738699e-05
-2.77440906e-05
1.94911539e-05
-1.65108476e-05
-3.08867666e-05
2.09354614e-05
-1.77942229e-05
-3.41813456e-05
2.24176615e-05
-1.91246273e-05
-3.76162845e-05
2.39359242e-05
-2.05026454e-05
-4.11773037e-05
2.54880119e-05
-2.1928777e-05
-4.48470115e-05
2.70711894e-05
-2.34034001e-05
-4.86044858e-05
2.86821295e-05
-2.49267183e-05
-5.24247992e-05
3.03167815e-05
-2.64986878e-05
-5.62784448e-05
3.19702014e-05
-2.81189449e-05
-6.0130711e-05
3.36363723e-05
-2.97866789e-05
-6.39410858e-05
3.53080788e-05
-3.15004761e-05
-6.76627981e-05
3.6976807e-05
-3.32580821e-05
-7.12421079e-05
3.86322169e-05
-3.50561259e-05
-7.4615796e-05
4.02602571e-05
-3.68900457e-05
-7.77089178e-05
4.18437554e-05
-3.87544021e-05
-8.04383509e-05
4.33678464e-05
-4.06424824e-05
-8.27170765e-05
4.48182417e-05
-4.25438577e-05
-8.44614255e-05
4.61759555e-05
-4.44362521e-05
-8.5547119e-05
4.73896808e-05
-4.63090356e-05
-8.5805003e-05
4.8403756e-05
-4.81513787e-05
-8.50442193e-05
4.91715407e-05
-4.99382911e-05
-8.30632683e-05
4.96296399e-05
-5.16170453e-05
-7.96498557e-05
4.97042295e-05
-5.31246513e-05
-7.4562195e-05
4.93092867e-05
-5.44045701e-05
-6.75343104e-05
4.83546084e-05
-5.5390749e-05
-5.82734602e-05
4.67226714e-05
-5.59924596e-05
-4.64660365e-05
4.42837292e-05
-5.61008167e-05
-3.17333672e-05
4.08722027e-05
-5.56153225e-05
-1.37228973e-05
3.63847546e-05
-5.4406506e-05
8.01291178e-06
3.0575364e-05
-5.23233675e-05
3.37212472e-05
2.34763931e-05
-4.91979142e-05
6.41636479e-05
1.43326606e-05
-4.47891183e-05
0.000100065198
3.05148248e-06
-3.89679986e-05
0.000142274763
-1.04973913e-05
-3.17284685e-05
0.000191753897
-2.71914972e-05
-2.2305446e-05
0.000249657785
-4.73883619e-05
-1.05348545e-05
0.000317128434
-7.15122158e-05
4.02062139e-06
0.000395777312
-0.000100041376
2.13697219e-05
0.000486634615
-0.000133713229
4.28310774e-05
0.000591111935
-0.000173221051
6.87165982e-05
0.000710904934
-0.000219275632
9.94528552e-05
0.000847809694
-0.000272670529
0.000135733192
0.00100360393
-0.000334137009
0.000178307407
0.00118000899
-0.00040444797
0.000228004634
0.00137869972
-0.000484340584
0.000285608984
0.00160063078
-0.000573848667
0.000351876934
0.00184594359
-0.000672887146
0.000427535891
0.00211703282
-0.0007855262
0.000514401152
0.00241556099
-0.000909200975
0.000610639954
0.00273405805
-0.00103760695
0.000719080615
0.00308211619
-0.0012029457
0.000854862077
0.00348650927
-0.00137772279
0.0009733086
0.00388332745
-0.00148802424
0.00109118977
0.00424290276
-0.00169907219
0.0013394863
0.00473400367
-0.00199862901
0.00150752337
0.00534918836
-0.00210084377
0.00148566049
0.00577624183
-0.00219859163
0.00177154533
0.00602744249
-0.00255299433
0.00230180592
0.00637700389
-0.00290269216
0.00255314602
0.00691966924
-0.00301634834
0.00247369486
-0.00306413856
0.00255349973
0.00743031117
-3.19954591e-08
3.34945107e-07
-1.33731747e-07
1.02438345e-06
-3.14117408e-07
1.75843456e-06
-5.82477618e-07
2.54069901e-06
-9.47808913e-07
3.37335428e-06
-1.41834039e-06
4.25778522e-06
-2.00144718e-06
5.19482939e-06
-2.70347186e-06
6.1846084e-06
-3.52968796e-06
7.22663273e-06
-4.48431033e-06
8.3199283e-06
-5.57052041e-06
9.46319418e-06
-6.7904838e-06
1.06549336e-05
-8.14534365e-06
1.18935367e-05
-9.63518e-06
1.3177315e-05
-1.12589418e-05
1.45045005e-05
-1.30143279e-05
1.58732042e-05
-1.48976446e-05
1.72813667e-05
-1.69036243e-05
1.87266839e-05
-1.90252064e-05
2.02065264e-05
-2.12532923e-05
2.17178579e-05
-2.35764655e-05
2.32571461e-05
-2.59806705e-05
2.4820264e-05
-2.84488646e-05
2.64023934e-05
-3.09606107e-05
2.79979022e-05
-3.34916098e-05
2.96001922e-05
-3.60131738e-05
3.12015471e-05
-3.84916836e-05
3.27929831e-05
-4.08879717e-05
3.43640103e-05
-4.31563771e-05
3.59021124e-05
-4.52430662e-05
3.73918985e-05
-4.70883007e-05
3.88189689e-05
-4.86253644e-05
4.0166009e-05
-4.9784359e-05
4.14157327e-05
-5.04926237e-05
4.25482267e-05
-5.0645101e-05
4.35162752e-05
-5.01064318e-05
4.42752323e-05
-4.87128303e-05
4.47776767e-05
-4.62910683e-05
4.49628833e-05
-4.26603772e-05
4.47676281e-05
-3.76143924e-05
4.4119701e-05
-3.09274907e-05
4.29364417e-05
-2.23490438e-05
4.11190156e-05
-1.16053051e-05
3.85582735e-05
1.63546938e-06
3.51060181e-05
1.77559151e-05
3.05938431e-05
3.6979541e-05
2.50511098e-05
5.96289097e-05
1.82131313e-05
8.64583075e-05
9.54502982e-06
0.000118123161
-1.10044121e-06
0.000155369314
-1.37816664e-05
0.000199064516
-2.93755382e-05
0.000250212639
-4.81107203e-05
0.000310085068
-7.03850815e-05
0.000379640854
-9.67638581e-05
0.000460078829
-0.000127844361
0.000552825358
-0.000164278402
0.000659521667
-0.000206759193
0.00078179631
-0.000256011356
0.000921300254
-0.000312750389
0.00107967473
-0.000377677553
0.00125835662
-0.000451382032
0.00145858044
-0.00053439205
0.00168154331
-0.000627441504
0.00192849149
-0.00073131747
0.00220034462
-0.000845728255
0.00249567743
-0.000968244234
0.00281397977
-0.00110385025
0.00316172386
-0.00125696425
0.00353136136
-0.00140726055
0.00390434166
-0.00157593893
0.00431851902
-0.00179190925
0.00478585807
-0.00195536849
0.00519207976
-0.00210529458
0.0055581562
-0.00236470192
0.00605228194
-0.00259496258
0.00654855716
-0.00269485717
0.00681726688
-0.00282169169
0.00692005613
-0.00300546784
0.00707948035
-0.00317576033
-0.00330154461
0.00731689274
-2.24241324e-08
3.5705997e-07
-9.42092726e-08
1.09572546e-06
-2.22338592e-07
1.88605085e-06
-4.14114798e-07
2.73189854e-06
-6.76608806e-07
3.63521233e-06
-1.01620657e-06
4.59668996e-06
-1.43829795e-06
5.61617089e-06
-1.94716647e-06
6.69266883e-06
-2.5461233e-06
7.82472081e-06
-3.23734629e-06
9.01021881e-06
-4.02187042e-06
1.02467184e-05
-4.89957358e-06
1.15315654e-05
-5.86914217e-06
1.2861958e-05
-6.92800287e-06
1.4234948e-05
-8.07221834e-06
1.56474028e-05
-9.29634994e-06
1.70959319e-05
-1.05932753e-05
1.85767919e-05
-1.19539773e-05
2.00857836e-05
-1.33672898e-05
2.16181281e-05
-1.48196042e-05
2.3168346e-05
-1.62945165e-05
2.47301096e-05
-1.77723888e-05
2.62960569e-05
-1.92298425e-05
2.78576286e-05
-2.06392013e-05
2.94048949e-05
-2.19679e-05
3.09263672e-05
-2.31782114e-05
3.24091635e-05
-2.42273212e-05
3.38392124e-05
-2.50672561e-05
3.52008868e-05
-2.56460458e-05
3.64776546e-05
-2.59080113e-05
3.76503889e-05
-2.577792e-05
3.86851601e-05
-2.51664007e-05
3.95505336e-05
-2.3963351e-05
4.02084535e-05
-2.20340257e-05
4.061437e-05
-1.92369593e-05
4.07143661e-05
-1.54146179e-05
4.04476885e-05
-1.0384846e-05
3.97423109e-05
-3.96126428e-06
3.85333093e-05
4.07208405e-06
3.67278614e-05
1.39617185e-05
3.42231941e-05
2.60047555e-05
3.08860515e-05
4.05042633e-05
2.66116328e-05
5.76470123e-05
2.14070681e-05
7.78324397e-05
1.49116125e-05
0.000101672008
6.74491936e-06
0.000129757096
-3.04389799e-06
0.000162791341
-1.48319428e-05
0.000201622334
-2.92977272e-05
0.000247083499
-4.65742339e-05
0.000300345367
-6.70570957e-05
0.000362239606
-9.12843492e-05
0.000433921334
-0.000119808129
0.000516748512
-0.000153229163
0.000612162733
-0.000192196388
0.000721684011
-0.000237385398
0.000846911761
-0.000289527352
0.000989431014
-0.000349301066
0.00115071272
-0.000417317277
0.00133209795
-0.000494161505
0.00153465713
-0.000580263709
0.00175929673
-0.00067604782
0.00200648796
-0.000781607737
0.00227682495
-0.000897800985
0.0025705975
-0.00102511066
0.00288862958
-0.00116377887
0.00322888666
-0.00130851789
0.00358470044
-0.00145967822
0.00395801495
-0.00163029064
0.00435336325
-0.00180261788
0.00475091479
-0.00197349664
0.00512723665
-0.00216823389
0.00553690531
-0.00236503651
0.00593920743
-0.00250759264
0.00622176982
-0.00264725742
0.00642901355
-0.0028021967
0.00666490373
-0.00293073381
0.00689644488
-0.00305321992
0.00704321148
-0.00315222221
0.00713893178
-0.00327146586
-0.00338347317
0.0072208684
-1.66370135e-08
3.73451135e-07
-6.98348411e-08
1.14857547e-06
-1.64752552e-07
1.98056905e-06
-3.06731559e-07
2.87343018e-06
-5.00707708e-07
3.82869571e-06
-7.50970407e-07
4.84641514e-06
-1.06078185e-06
5.92539897e-06
-1.43232579e-06
7.06358134e-06
-1.86637956e-06
8.25809218e-06
-2.36235216e-06
9.50545433e-06
-2.91860777e-06
1.08021781e-05
-3.53217632e-06
1.21442746e-05
-4.1986739e-06
1.3527528e-05
-4.91220962e-06
1.49474826e-05
-5.66525205e-06
1.63993651e-05
-6.44844718e-06
1.78779622e-05
-7.25039918e-06
1.93774882e-05
-8.05737401e-06
2.08914057e-05
-8.85292973e-06
2.24122273e-05
-9.61748827e-06
2.39313378e-05
-1.03279619e-05
2.54388992e-05
-1.09576994e-05
2.69239845e-05
-1.14763366e-05
2.83743217e-05
-1.18497824e-05
2.97762593e-05
-1.20401573e-05
3.11145154e-05
-1.19998515e-05
3.23664746e-05
-1.16735683e-05
3.35103837e-05
-1.09959762e-05
3.45205824e-05
-9.88859268e-06
3.53673712e-05
-8.25711671e-06
3.60158084e-05
-5.99960213e-06
3.64243372e-05
-2.99734317e-06
3.65447499e-05
8.87553569e-07
3.63197882e-05
5.81360256e-06
3.56842942e-05
1.19440105e-05
3.45796681e-05
1.9466705e-05
3.29204263e-05
2.85958705e-05
3.06082843e-05
3.95998662e-05
2.75241459e-05
5.27594891e-05
2.35627417e-05
6.82621698e-05
1.87146584e-05
8.6438157e-05
1.27038982e-05
0.000107864482
5.17887629e-06
0.000133077942
-3.81321881e-06
0.000162699518
-1.47173268e-05
0.000197417608
-2.79810784e-05
0.00023816772
-4.38024745e-05
0.000285881495
-6.25547816e-05
0.000341291991
-8.47179488e-05
0.000405489229
-0.000110781919
0.000479710494
-0.000141289629
0.000565255428
-0.000176841479
0.000663522751
-0.000218088664
0.000775985074
-0.000265705701
0.000904118023
-0.000320344617
0.00104940152
-0.00038268527
0.00121321857
-0.00045336203
0.00139681758
-0.000532919059
0.00160120378
-0.000621723378
0.00182706599
-0.000720043195
0.0020746957
-0.000827911864
0.00234409949
-0.000945468773
0.0026342531
-0.00107177733
0.00294444949
-0.00120801189
0.00327209297
-0.00135276729
0.00361686788
-0.00150856525
0.00397651775
-0.00166817763
0.00434684902
-0.00183001737
0.00471509275
-0.00199854029
0.00508280647
-0.00217033497
0.00543453939
-0.00232523056
0.00572668361
-0.00246037665
0.00596298427
-0.00260133274
0.00617326747
-0.00271786676
0.00635981571
-0.00283379445
0.00650393213
-0.00294630375
0.00662823733
-0.00305502802
0.00674827783
-0.00317324694
0.00686812472
-0.00327205511
0.0069707508
-0.003374082
-0.00347445505
0.00706173572
-1.56694872e-08
3.8875324e-07
-6.4634416e-08
1.19702264e-06
-1.50448166e-07
2.06578964e-06
-2.76534291e-07
2.9988541e-06
-4.45676075e-07
3.99711095e-06
-6.59717495e-07
5.059668e-06
-9.19460541e-07
6.18429145e-06
-1.22443522e-06
7.36764216e-06
-1.57260853e-06
8.60528562e-06
-1.96053726e-06
9.89233395e-06
-2.38291689e-06
1.12234361e-05
-2.83303776e-06
1.25931975e-05
-3.30254742e-06
1.3995759e-05
-3.78120334e-06
1.54247747e-05
-4.25667584e-06
1.68733839e-05
-4.71431832e-06
1.83340562e-05
-5.13688933e-06
1.97984109e-05
-5.50427807e-06
2.125704e-05
-5.79351591e-06
2.26995979e-05
-5.97819967e-06
2.41140394e-05
-6.02681998e-06
2.54854165e-05
-5.90261008e-06
2.67975405e-05
-5.56287915e-06
2.80322185e-05
-4.95757842e-06
2.91684407e-05
-4.02792572e-06
3.01821905e-05
-2.70939217e-06
3.10451031e-05
-9.25678787e-07
3.17236588e-05
1.41285995e-06
3.21788478e-05
4.41162611e-06
3.2365201e-05
8.19395319e-06
3.22298544e-05
1.28902673e-05
3.17241679e-05
1.86489185e-05
3.07819983e-05
2.56367077e-05
2.93276377e-05
3.40407815e-05
2.72755816e-05
4.40867748e-05
2.45287392e-05
5.60401498e-05
2.09617928e-05
7.01978354e-05
1.6444993e-05
8.67286342e-05
1.09874359e-05
0.000106176119
4.10909939e-06
0.000129007158
-4.12290001e-06
0.000155771014
-1.40670003e-05
0.00018712376
-2.61814433e-05
0.000223916516
-4.06140562e-05
0.00026690774
-5.7717178e-05
0.000316823594
-7.79061398e-05
0.000374637732
-0.000101626451
0.000441444799
-0.000129372368
0.000518408628
-0.000161693067
0.000606781565
-0.000199166946
0.000707884493
-0.00024240545
0.000823081082
-0.000292051744
0.000953736358
-0.000348758446
0.00110118766
-0.000413172338
0.00126671496
-0.000485888221
0.00145140718
-0.000567394826
0.0016560511
-0.000658023954
0.00188105445
-0.000757939906
0.00212634104
-0.000867026408
0.00239139895
-0.000985116318
0.00267509995
-0.00111162696
0.00297606977
-0.0012464514
0.0032912855
-0.0013870047
0.00361820333
-0.00153493998
0.00395130984
-0.00168588277
0.0042886413
-0.00184590415
0.00462544286
-0.00200498499
0.00495021874
-0.00215479696
0.00523902158
-0.00228734504
0.00548105774
-0.00241237126
0.00568008045
-0.00252425122
0.00585178099
-0.00263207207
0.00599527528
-0.00274481979
0.00612932181
-0.00285190676
0.00624646797
-0.00295093326
0.00635097469
-0.00305080194
0.00644111002
-0.00314515202
0.00652641455
-0.00325853905
0.00661672068
-0.0033623518
0.00670949477
-0.00346685058
-0.00356833094
0.0068033714
-1.81803526e-08
4.06700147e-07
-7.34921291e-08
1.2520085e-06
-1.67944803e-07
2.15987092e-06
-3.03017651e-07
3.13351286e-06
-4.79202501e-07
4.17284068e-06
-6.9573364e-07
5.27570306e-06
-9.50376038e-07
6.43839562e-06
-1.2392569e-06
7.65594045e-06
-1.55697413e-06
8.92237263e-06
-1.89634477e-06
1.02310227e-05
-2.24802598e-06
1.15743797e-05
-2.6004528e-06
1.29448268e-05
-2.93979226e-06
1.43342365e-05
-3.24982576e-06
1.57338769e-05
-3.51169982e-06
1.71342517e-05
-3.70354565e-06
1.85248153e-05
-3.80002416e-06
1.9893719e-05
-3.77165605e-06
2.12274118e-05
-3.5840347e-06
2.25106175e-05
-3.19785261e-06
2.37263959e-05
-2.569172e-06
2.48551679e-05
-1.64695016e-06
2.58736366e-05
-3.71189907e-07
2.67546564e-05
1.32870028e-06
2.74666172e-05
3.53576649e-06
2.79730514e-05
6.34148718e-06
2.82371668e-05
9.84974987e-06
2.82130307e-05
1.41781913e-05
2.78478827e-05
1.94596174e-05
2.70810853e-05
2.58436056e-05
2.58430031e-05
3.35101315e-05
2.40545982e-05
4.26634359e-05
2.16254605e-05
5.35437243e-05
1.84439208e-05
6.64248191e-05
1.43908471e-05
8.14981286e-05
9.45156143e-06
9.92267897e-05
3.22908283e-06
0.000120021441
-4.35387398e-06
0.000144357443
-1.33530572e-05
0.000172822654
-2.43609178e-05
0.000206165959
-3.7471305e-05
0.000245098187
-5.30046379e-05
0.000290245512
-7.13345159e-05
0.000342485815
-9.28604674e-05
0.000402787157
-0.00011802503
0.000472185535
-0.000147311472
0.000551798353
-0.000181246716
0.000642808888
-0.000220390839
0.000746439344
-0.000265331978
0.000863943213
-0.000316679803
0.000996566064
-0.000375037879
0.00114548341
-0.000440979267
0.00131172155
-0.000515007485
0.00149606699
-0.000597529442
0.00169894312
-0.000688776649
0.00192036921
-0.000788833079
0.00215990517
-0.000897571521
0.00241663928
-0.00101468491
0.00268903284
-0.00113943021
0.00297480007
-0.00127089296
0.00327076723
-0.00140760278
0.0035735116
-0.00154920347
0.00387889888
-0.00169239879
0.00418185382
-0.00183790061
0.00447699524
-0.0019810287
0.00474812153
-0.00211703344
0.00498253599
-0.00223940132
0.00517781582
-0.00235007736
0.00534300499
-0.00245253321
0.0054849698
-0.00255433327
0.00561479063
-0.00265406765
0.00573279936
-0.00275007581
0.00582962238
-0.00284163631
0.00592011262
-0.00294238897
0.00600504603
-0.00303585588
0.00608432108
-0.0031300653
0.0061649233
-0.00322574493
0.00624632593
-0.00333993221
0.00633223635
-0.0034482537
0.00642522823
-0.00355983663
-0.00366112294
0.006518021
-2.23658256e-08
4.28722886e-07
-8.85191213e-08
1.31768385e-06
-1.98697405e-07
2.26950575e-06
-3.521162e-07
3.28632788e-06
-5.46541397e-07
4.36660564e-06
-7.78045115e-07
5.50649198e-06
-1.04080325e-06
6.70038463e-06
-1.32691758e-06
7.94123038e-06
-1.62625452e-06
9.22082805e-06
-1.92628134e-06
1.05301079e-05
-2.21222549e-06
1.18593191e-05
-2.46624587e-06
1.31977769e-05
-2.66745947e-06
1.45343111e-05
-2.79166422e-06
1.5856869e-05
-2.81097205e-06
1.71522688e-05
-2.69338239e-06
1.84058544e-05
-2.40208279e-06
1.96009659e-05
-1.89506368e-06
2.07188526e-05
-1.1237307e-06
2.17376494e-05
-3.13779708e-08
2.26323084e-05
1.44637652e-06
2.33755758e-05
3.38296042e-06
2.39351066e-05
5.86147198e-06
2.42740823e-05
8.9760275e-06
2.43498761e-05
1.2832855e-05
2.41139086e-05
1.75571977e-05
2.35103713e-05
2.32924903e-05
2.24751396e-05
3.02025434e-05
2.09350763e-05
3.84739541e-05
1.88067567e-05
4.83243441e-05
1.59895219e-05
6.00028342e-05
1.23728261e-05
7.3701074e-05
7.9237298e-06
8.98258357e-05
2.31549155e-06
0.000108751162
-4.53832856e-06
0.000130910729
-1.27121186e-05
0.000156803601
-2.26681945e-05
0.00018698769
-3.45426529e-05
0.000222241875
-4.86122415e-05
0.000263085938
-6.52103089e-05
0.00031030071
-8.46917638e-05
0.000364741501
-0.000107451498
0.00042732485
-0.000133924359
0.000499040518
-0.000164583083
0.000580941869
-0.000199933793
0.000674133401
-0.000240510866
0.000779744354
-0.000286866008
0.000898898597
-0.000339553896
0.00103266939
-0.00039911209
0.00118201237
-0.000466032587
0.00134768651
-0.000540722366
0.00153017125
-0.000623474964
0.00172951987
-0.00071436759
0.00194533186
-0.000813352769
0.00217669456
-0.000920150033
0.00242218003
-0.00103432848
0.0026797593
-0.00115516002
0.0029468074
-0.00128174143
0.00321999671
-0.00141262721
0.00349532082
-0.00154622387
0.00376802491
-0.0016803129
0.00403228461
-0.00181346822
0.00428468551
-0.00194480373
0.00451447482
-0.00206769286
0.00471369149
-0.00218024741
0.00487609194
-0.00227943477
0.00500940199
-0.00237271111
0.00512333476
-0.00246400869
0.00522870189
-0.00255789749
0.00532603428
-0.00265166148
0.00541605955
-0.00274408729
0.00550128813
-0.00283529782
0.00558129064
-0.00292163136
0.00565468061
-0.00301576862
0.00573160099
-0.00311276651
0.00581123574
-0.00320969224
0.00589623747
-0.0033107386
0.00598121551
-0.00342490203
0.0060680961
-0.00353512596
0.00616466743
-0.00365640295
-0.00376341058
0.00626695521
-2.48028137e-08
4.5335872e-07
-9.66245441e-08
1.38927696e-06
-2.13484626e-07
2.38610845e-06
-3.71748728e-07
3.44430689e-06
-5.65740617e-07
4.56028509e-06
-7.87519108e-07
5.72793016e-06
-1.02668047e-06
6.93917645e-06
-1.27017059e-06
8.18431973e-06
-1.50208388e-06
9.45230693e-06
-1.70342059e-06
1.07309738e-05
-1.85176505e-06
1.20071528e-05
-1.92124539e-06
1.32667031e-05
-1.88190682e-06
1.44943719e-05
-1.69908427e-06
1.56733949e-05
-1.33275513e-06
1.67852333e-05
-7.37015912e-07
1.78093507e-05
1.4040621e-07
1.87227171e-05
1.35923384e-06
1.94991315e-05
2.98714032e-06
2.01087789e-05
5.1011682e-06
2.05172416e-05
7.7899553e-06
2.06856699e-05
1.11547702e-05
2.05690884e-05
1.53111659e-05
2.01163948e-05
2.03908965e-05
1.92687606e-05
2.65442483e-05
1.79590742e-05
3.39422176e-05
1.6110817e-05
4.2782437e-05
1.3633229e-05
5.32914279e-05
1.04242804e-05
6.56570655e-05
6.43919287e-06
8.02346737e-05
1.40988183e-06
9.73585953e-05
-4.75323316e-06
0.000117414101
-1.21340569e-05
0.000140841743
-2.11145853e-05
0.000168131656
-3.1830825e-05
0.000199948934
-4.45321388e-05
0.000236790552
-5.9512722e-05
0.000279334932
-7.7090121e-05
0.000328336031
-9.76166216e-05
0.000384602562
-0.00012148033
0.000449011502
-0.000149104426
0.000522498122
-0.000180942074
0.000606041328
-0.000217471763
0.000700646315
-0.000259192515
0.000807318157
-0.00030661035
0.000927025255
-0.000360222955
0.0010606528
-0.000420498845
0.00120894394
-0.000487850628
0.00137242673
-0.000562600814
0.00155132006
-0.000644932214
0.00174540792
-0.000734816973
0.00195396091
-0.000832034778
0.00217569879
-0.000936112026
0.00240883568
-0.00104649583
0.00265097221
-0.00116229237
0.00289908346
-0.00128244505
0.00314937291
-0.00140545434
0.00339778626
-0.0015301591
0.00363948164
-0.00165432638
0.00387027231
-0.00177701764
0.00408545051
-0.00189549353
0.00427960086
-0.0020076202
0.00444633881
-0.0021115426
0.00458374875
-0.00220510288
0.00469738012
-0.00229387807
0.00479611381
-0.00237816687
0.00488775687
-0.00246435172
0.00497316961
-0.00254941826
0.00505353638
-0.0026382598
0.00512955864
-0.00272767829
0.0052018276
-0.00281634995
0.00527304895
-0.00290651187
0.00534948859
-0.00299806278
0.00542504722
-0.0030913185
0.005501702
-0.00318941203
0.00558370981
-0.00329169063
0.00566871816
-0.00339573854
0.00575295503
-0.00350913182
0.0058412613
-0.00362342533
0.00592536106
-0.00374049839
-0.00385132597
0.00601327673
-2.31913832e-08
4.76288567e-07
-8.78200831e-08
1.45354563e-06
-1.88929172e-07
2.48681135e-06
-3.19204223e-07
3.57413301e-06
-4.68612536e-07
4.70920436e-06
-6.24168359e-07
5.88295829e-06
-7.69696508e-07
7.08413863e-06
-8.85572299e-07
8.2995905e-06
-9.48439495e-07
9.51452913e-06
-9.30890721e-07
1.07127389e-05
-8.01022442e-07
1.18765552e-05
-5.21903002e-07
1.29868095e-05
-5.1028432e-08
1.40226767e-05
6.60118404e-07
1.4961379e-05
1.66681444e-06
1.57776178e-05
3.03212293e-06
1.64430705e-05
4.82807905e-06
1.69257354e-05
7.13671643e-06
1.71894118e-05
1.00514269e-05
1.71929262e-05
1.36784698e-05
1.68889939e-05
1.81388709e-05
1.62239988e-05
2.35699668e-05
1.51366538e-05
3.01278256e-05
1.35571246e-05
3.79914975e-05
1.14036012e-05
4.73661807e-05
8.58282035e-06
5.8432758e-05
5.04257881e-06
7.1501091e-05
5.63154618e-07
8.68690137e-05
-4.94546794e-06
0.000104878153
-1.15718862e-05
0.000125917597
-1.96316276e-05
0.000150419349
-2.92571769e-05
0.000178955754
-4.06727918e-05
0.000211976945
-5.41382572e-05
0.000250079619
-6.99361433e-05
0.000293924465
-8.83798084e-05
0.000344222778
-0.000109814057
0.000401744323
-0.000134614907
0.00046731075
-0.000163186522
0.00054178349
-0.000195956776
0.000626049227
-0.000233374116
0.000720999438
-0.000275896494
0.000827502377
-0.000323979181
0.000946363625
-0.000378058515
0.00107827979
-0.000438531553
0.00122378267
-0.000505731154
0.00138317368
-0.000579895459
0.00155644632
-0.000661129172
0.00174319876
-0.000749359519
0.00194251289
-0.000844252734
0.00215294154
-0.000945251807
0.00237249863
-0.00105159763
0.00259866498
-0.00116228373
0.00282835771
-0.00127619342
0.00305789938
-0.00139183845
0.00328337967
-0.00150792921
0.00350020142
-0.00162227945
0.00370487049
-0.00173483095
0.00389236475
-0.00184182279
0.0040583797
-0.00194303392
0.00419897956
-0.00203609416
0.00431579051
-0.00212443129
0.00441183269
-0.00220758424
0.00449436446
-0.00228763343
0.00457142622
-0.00237093791
0.00464753935
-0.00245427747
0.00472190077
-0.0025387094
0.00479653107
-0.00262404413
0.00486847888
-0.00271020268
0.00493991219
-0.002799106
0.00501062994
-0.00288706128
0.00508027721
-0.00297615208
0.0051506432
-0.00306842113
0.00522233101
-0.00316299823
0.00528963138
-0.00325670413
0.00535407698
-0.00335612829
0.00541666528
-0.00345831891
0.00547410244
-0.00356656011
0.00552999803
-0.00367931134
0.00558875033
-0.00379924374
-0.00392031872
0.00565774449
-1.61760626e-08
4.92402799e-07
-5.676278e-08
1.49405379e-06
-1.12575007e-07
2.54253945e-06
-1.71329758e-07
3.63279701e-06
-2.17221129e-07
4.75499726e-06
-2.30622608e-07
5.89625241e-06
-1.87782922e-07
7.04118139e-06
-6.04807625e-08
8.1721591e-06
1.8440051e-07
9.2695054e-06
5.85315853e-07
1.03116663e-05
1.18648331e-06
1.12752139e-05
2.03847885e-06
1.21346216e-05
3.19902003e-06
1.28619228e-05
4.73390157e-06
1.34262626e-05
6.71808229e-06
1.3793178e-05
9.23674519e-06
1.39241221e-05
1.23867317e-05
1.37754348e-05
1.62779943e-05
1.32978046e-05
2.10352699e-05
1.24352731e-05
2.67998889e-05
1.11239625e-05
3.37332521e-05
9.29018625e-06
4.20194169e-05
6.84999999e-06
5.18299595e-05
3.74605119e-06
6.34338641e-05
-2.00874328e-07
7.70955623e-05
-5.07949003e-06
9.31170225e-05
-1.09795429e-05
0.00011184077
-1.81613066e-05
0.000133646117
-2.67515818e-05
0.000159024533
-3.69511243e-05
0.000188380868
-4.89888455e-05
0.000222237876
-6.31151295e-05
0.000261171627
-7.96075545e-05
0.000305803741
-9.87714563e-05
0.00035680616
-0.000120939726
0.000414896328
-0.000146471224
0.000480828136
-0.000175747199
0.000555380156
-0.000209168352
0.000639338991
-0.000247146876
0.0007334769
-0.000290096304
0.00083851946
-0.000338418401
0.000955107668
-0.000392486535
0.00108375219
-0.000452625657
0.00122478022
-0.000519088609
0.00137827571
-0.000592029232
0.00154401399
-0.000671471745
0.0017213902
-0.00075727412
0.00190933936
-0.000849080904
0.00210629088
-0.000946313619
0.00231019339
-0.00104815766
0.00251858192
-0.00115364258
0.0027285513
-0.001261569
0.00293671867
-0.00137045283
0.00313939576
-0.00147887188
0.0033328061
-0.00158524985
0.00351385004
-0.00168897375
0.00367890857
-0.00178733816
0.00382284054
-0.00187876258
0.00394442324
-0.00196340464
0.00404446793
-0.0020430771
0.00413040717
-0.0021220316
0.00420484701
-0.00219886878
0.00427489562
-0.00227762987
0.004342265
-0.00235499987
0.00440679732
-0.00243546666
0.00447033908
-0.00251781502
0.0045306002
-0.00259896598
0.00458928161
-0.00268272044
0.00464677682
-0.00276769126
0.00470417213
-0.002856493
0.00476426752
-0.0029471475
0.00482497814
-0.0030368536
0.00488643109
-0.00312986451
0.00494913589
-0.00322569405
0.00501363512
-0.00332119533
0.00507731406
-0.00341979841
0.00514246553
-0.00352345921
0.00521059869
-0.00363468361
0.00527514234
-0.00374384912
0.00533207468
-0.0038561707
-0.00396495805
0.00537671597
-3.33713528e-09
4.9559069e-07
-1.1619823e-09
1.49167849e-06
2.14737021e-08
2.51968192e-06
8.3535193e-08
3.57049329e-06
2.08467197e-07
4.62980382e-06
4.24561503e-07
5.6798783e-06
7.65312269e-07
6.7001329e-06
1.26982902e-06
7.66732696e-06
1.98330048e-06
8.55570101e-06
2.95760883e-06
9.33700749e-06
4.2520743e-06
9.98038047e-06
5.93427142e-06
1.04520393e-05
8.08113826e-06
1.07146538e-05
1.07799828e-05
1.07269984e-05
1.41298197e-05
1.04429041e-05
1.82427035e-05
9.81078415e-06
2.3245745e-05
8.77192195e-06
2.92886368e-05
7.25442425e-06
3.65188138e-05
5.20458953e-06
4.51129651e-05
2.5292859e-06
5.52971896e-05
-8.94579468e-07
6.73055879e-05
-5.15895603e-06
8.14037341e-05
-1.0352675e-05
9.78915921e-05
-1.66893367e-05
0.000117100765
-2.42892923e-05
0.000139451767
-3.33312029e-05
0.000165306269
-4.40164996e-05
0.000195120297
-5.65663366e-05
0.000229394142
-7.12257382e-05
0.00026866867
-8.82641909e-05
0.000313528027
-0.00010797536
0.000364596255
-0.000130676721
0.000422530446
-0.000156706656
0.000488011418
-0.000186421785
0.000561730499
-0.000220191479
0.000644371496
-0.000258389465
0.000736585192
-0.000301383417
0.000838958236
-0.000349521402
0.000951975762
-0.000403115428
0.00107597741
-0.000462421767
0.00121110753
-0.000527618502
0.00135726054
-0.000598780642
0.00151402358
-0.000675853739
0.00168061896
-0.000758626823
0.00185584633
-0.000846701435
0.00203802379
-0.000939453971
0.00222500287
-0.00103606227
0.0024142373
-0.00113555016
0.00260292371
-0.00123684593
0.00278797933
-0.0013386998
0.00296618567
-0.00143977662
0.00313437914
-0.00153864725
0.00328966813
-0.00163416142
0.00342961255
-0.00172519439
0.00355143348
-0.00181079431
0.00365442289
-0.00189032669
0.00374095171
-0.0019652899
0.00381768057
-0.00204013166
0.00388760562
-0.00211299965
0.00395157665
-0.00218599971
0.00401028474
-0.00225757386
0.0040645738
-0.00233191494
0.0041160262
-0.00240644786
0.00416381901
-0.00248325428
0.00421092215
-0.00256491191
0.00425898485
-0.00264702154
0.00430695242
-0.00273067992
0.00435676067
-0.00281749127
0.00440656939
-0.00290629364
0.00445806469
-0.00299863447
0.00451364378
-0.00309242393
0.00457579082
-0.00319200161
0.00463897905
-0.00328887268
0.00470446372
-0.00338667033
0.00477142476
-0.00348675064
0.00483861833
-0.00359064536
0.00490398765
-0.00370004499
0.00497483053
-0.00381468296
0.0050491244
-0.00393045718
-0.00403087184
0.00511504069
1.61400012e-08
4.79508631e-07
8.20102156e-08
1.42589845e-06
2.20106048e-07
2.38169517e-06
4.57923481e-07
3.33280088e-06
8.28479349e-07
4.25938645e-06
1.37075838e-06
5.13774952e-06
2.13019167e-06
5.94086048e-06
3.15921064e-06
6.63847876e-06
4.51791992e-06
7.19717196e-06
6.27488136e-06
7.5802353e-06
8.50818597e-06
7.74727392e-06
1.13063945e-05
7.65403768e-06
1.47697542e-05
7.25150967e-06
1.90115042e-05
6.48547235e-06
2.41588941e-05
5.29574674e-06
3.03460055e-05
3.6239141e-06
3.7744675e-05
1.37350196e-06
4.65381151e-05
-1.53875995e-06
5.69328461e-05
-5.18987768e-06
6.91627346e-05
-9.7003284e-06
8.34886449e-05
-1.52202055e-05
0.000100199776
-2.18697934e-05
0.000119653926
-2.98065211e-05
0.000142172231
-3.92073285e-05
0.000168150347
-5.02670836e-05
0.00019802098
-6.32015004e-05
0.000232252574
-7.82477461e-05
0.000271350801
-9.56642054e-05
0.000315856317
-0.000115730884
0.000366339652
-0.000138747144
0.000423394117
-0.000165029432
0.000487625383
-0.000194907586
0.000559637358
-0.00022871822
0.000640012459
-0.000266796467
0.000729286671
-0.000309465261
0.000827919665
-0.000357022022
0.000936259333
-0.000409722638
0.00105450128
-0.000467762894
0.00118264373
-0.000531257409
0.00132043971
-0.00060021728
0.00146734845
-0.000674526748
0.00162248945
-0.000753921124
0.00178460366
-0.0008379674
0.00195202505
-0.000926047614
0.00212264671
-0.00101732243
0.00229397006
-0.0011107766
0.00246323338
-0.00120532477
0.00262753846
-0.00129985428
0.00278398583
-0.00139329214
0.00292974488
-0.00148445747
0.00306284554
-0.00157287557
0.00318128306
-0.00165708277
0.00328439736
-0.00173727343
0.00337210473
-0.00181289888
0.00344583521
-0.00188452123
0.00351074496
-0.00195523311
0.00357087455