/*--------------------------------*- C++ -*----------------------------------*\
  =========                 |
  \\      /  F ield         | OpenFOAM: The Open Source CFD Toolbox
   \\    /   O peration     | Website:  https://openfoam.org
    \\  /    A nd           | Version:  8
     \\/     M anipulation  |
\*---------------------------------------------------------------------------*/
FoamFile
{
    version     2.0;
    format      ascii;
    class       volVectorField;
    location    "0.046";
    object      U;
}
// * * * * * * * * * * * * * * * * * * * * * * * * * * * * * * * * * * * * * //

dimensions      [0 1 -1 0 0 0 0];

internalField   nonuniform List<vector> 
42400
(
(-0.0173001496 0.0165851347 -6.77566156e-27)
(-0.0511729389 0.0483684682 2.3025554e-26)
(-0.0850659654 0.0792698411 2.5212462e-26)
(-0.119123971 0.109325081 0)
(-0.153440446 0.138563485 0)
(-0.188083353 0.166986127 -8.04533112e-28)
(-0.223092774 0.194573788 0)
(-0.258471994 0.221285642 8.84221367e-28)
(-0.294188146 0.247060045 0)
(-0.330180208 0.271821074 9.6960779e-28)
(-0.366369305 0.295487435 1.01440301e-27)
(-0.402667855 0.317980403 -1.06056155e-27)
(-0.438986168 0.339229478 -4.59571371e-26)
(-0.475236446 0.359175773 -4.86273393e-26)
(-0.511334672 0.377773635 -1.20670606e-27)
(-0.54720092 0.394991014 0)
(-0.582758652 0.410809055 0)
(-0.617933413 0.425221303 0)
(-0.652651308 0.438232812 0)
(-0.686837453 0.449859331 0)
(-0.720414543 0.460126663 0)
(-0.753301553 0.469070217 -3.15898932e-27)
(-0.785412556 0.476734703 -8.55581706e-26)
(-0.816655583 0.483173938 -1.78372172e-25)
(-0.846931427 0.488450684 -9.30388878e-26)
(-0.876132295 0.492636449 -3.58830246e-27)
(-0.904140154 0.495811199 -3.69060236e-27)
(-0.930824482 0.49806284 7.57889413e-27)
(-0.956039105 0.499486323 0)
(-0.979618426 0.50018201 0)
(-1.00137319 0.500252002 1.31644074e-25)
(-1.0210828 0.499796587 1.38534853e-25)
(-1.03848855 0.498908874 8.37812669e-27)
(-1.05334171 0.49770722 -1.52458867e-25)
(-1.06541374 0.496342608 -1.51653752e-25)
(-1.0741503 0.495294791 0)
(-1.07934307 0.493893431 0)
(-1.08023095 0.492745247 0)
(-1.07687356 0.491365307 0)
(-1.06813044 0.491036734 -2.34748765e-25)
(-1.052832 0.491105601 -2.4245569e-25)
(-1.02962214 0.491226497 -2.02336797e-25)
(-0.996903566 0.491330501 -2.69585559e-25)
(-0.954213774 0.491212377 -1.7738364e-26)
(-0.899849004 0.491325393 1.14585677e-25)
(-0.832355137 0.491601887 6.35873766e-26)
(-0.749894068 0.491845451 1.62665899e-26)
(-0.650382092 0.491766673 -6.47469301e-26)
(-0.531721069 0.491114567 1.35045448e-26)
(-0.392318682 0.489388284 1.37130577e-26)
(-0.228234767 0.486788337 7.42579413e-34)
(-0.0381517108 0.485641872 -3.9072568e-25)
(0.173987931 0.486393742 -4.12287576e-26)
(0.428267136 0.485202844 2.29440169e-26)
(0.725266787 0.480245304 0)
(1.06902595 0.473534126 0)
(1.4633143 0.466555447 0)
(1.91558545 0.459208363 -1.79079027e-26)
(2.43026534 0.451329734 -1.08658563e-26)
(3.01254609 0.443174791 0)
(3.66744337 0.434454955 -7.47002878e-25)
(4.39861514 0.425030129 -1.24128347e-24)
(5.20864272 0.414919497 1.62677388e-24)
(6.09872167 0.40519078 2.09670873e-24)
(7.06678003 0.399240198 0)
(8.10652169 0.395550678 0)
(9.22821868 0.384390165 3.86353547e-24)
(10.3979373 0.396572153 4.68827004e-24)
(11.606316 0.410789666 6.64230749e-25)
(12.9979562 0.268801307 0)
(14.24514 0.357698624 0)
(15.2518566 0.778525205 1.24408526e-24)
(16.9997365 0.193738187 1.27219379e-24)
(18.5227048 -0.337824652 0)
(18.8251766 1.13561465 2.14617435e-24)
(19.9097718 1.79199714 -1.61502271e-24)
(22.0635772 -0.183958427 -2.43855441e-24)
(23.3773235 -1.46612046 -5.21148501e-24)
(23.5491747 -0.520249239 -1.61074305e-23)
(23.5592827 0.718294326 -5.39910705e-23)
(-0.020265082 0.0179724758 0)
(-0.0601380312 0.0528330638 1.73849314e-26)
(-0.100181995 0.0871844606 1.86811073e-26)
(-0.14051148 0.121044464 0)
(-0.181146071 0.154381387 0)
(-0.222081153 0.187133687 2.18336959e-26)
(-0.263271921 0.219214904 2.4088017e-26)
(-0.304641179 0.250519977 8.25388471e-28)
(-0.346083212 0.280930782 0)
(-0.387473395 0.310324194 9.04845993e-28)
(-0.428678564 0.33858065 9.46573479e-28)
(-0.469565122 0.365590788 -3.19589785e-26)
(-0.510004003 0.391259439 -6.6214083e-26)
(-0.549872875 0.415507364 -3.53447808e-26)
(-0.589056318 0.438271436 3.60173506e-26)
(-0.627444677 0.459503864 4.13567453e-26)
(-0.664932161 0.479170971 0)
(-0.701414642 0.497251872 2.51752326e-27)
(-0.736787424 0.51373727 0)
(-0.770943191 0.52862852 0)
(-0.803770154 0.541936965 0)
(-0.835150398 0.55368352 -5.63862987e-26)
(-0.864958328 0.563898442 -1.16099339e-25)
(-0.893059091 0.572621204 -5.98751124e-26)
(-0.919306785 0.579900398 0)
(-0.943542401 0.585793653 -6.6734855e-27)
(-0.965591233 0.590366934 -3.45511039e-27)
(-0.985258142 0.593692934 7.10087102e-27)
(-1.00232148 0.595850144 -7.93452188e-26)
(-1.01653776 0.596930909 -8.45992712e-26)
(-1.02765653 0.597028846 -7.41417914e-27)
(-1.03543381 0.596209814 -7.42239639e-27)
(-1.03933087 0.594808679 -5.29963667e-26)
(-1.03927371 0.592480819 -5.35335427e-26)
(-1.03463416 0.589644387 5.23832383e-26)
(-1.02520559 0.586223012 9.48642811e-26)
(-1.01061887 0.582822099 0)
(-0.98902788 0.579202076 8.75146176e-27)
(-0.95932908 0.575089708 0)
(-0.920579531 0.570339447 1.76746737e-26)
(-0.872005081 0.565132086 -6.58386402e-26)
(-0.812252376 0.559795724 -7.83371382e-26)
(-0.740007846 0.5543354 1.67857481e-26)
(-0.653512173 0.548608387 -1.6815014e-26)
(-0.550700058 0.542405788 3.14959228e-26)
(-0.429714455 0.535430724 -1.4447761e-26)
(-0.288308597 0.527789329 1.48901197e-26)
(-0.126885373 0.520073249 1.47040391e-25)
(0.0618789841 0.513875339 1.60842778e-25)
(0.271266268 0.509154741 0)
(0.523589396 0.501919086 -1.34952747e-26)
(0.816071043 0.491861244 2.8395265e-26)
(1.15282618 0.481140909 2.21805983e-25)
(1.53962897 0.470369406 2.75870378e-25)
(1.98135798 0.45948447 1.55470619e-26)
(2.48333657 0.448678474 5.62684372e-25)
(3.05110948 0.438173411 5.31602889e-25)
(3.68978795 0.427819745 1.16492804e-26)
(4.40309331 0.417683701 2.96246739e-26)
(5.19391056 0.408426155 7.54691622e-25)
(6.0641576 0.401368044 8.52482233e-25)
(7.01355017 0.397911012 -1.23347121e-25)
(8.03924833 0.398604712 1.6302182e-25)
(9.13581788 0.404232334 0)
(10.2895593 0.421826538 4.28815465e-25)
(11.4787578 0.456118596 2.48276166e-25)
(12.7267014 0.468697403 4.08918574e-25)
(14.0062927 0.48257108 0)
(15.2114414 0.597607481 -3.75433197e-28)
(16.5609215 0.545683009 9.2938496e-25)
(17.9975511 0.319277879 1.29279903e-24)
(18.8689761 0.773038779 6.77831229e-25)
(19.8822512 1.12504461 -1.84105023e-25)
(21.4978237 0.27287615 4.57986679e-25)
(22.5602021 0.0566299263 3.25999568e-27)
(22.9453242 1.07251309 9.21530585e-24)
(23.3959907 1.36006155 1.70329987e-23)
(23.7749854 0.532847283 -5.64055577e-24)
(23.832259 0.196530379 -2.02620538e-23)
(23.7944712 0.240143558 -2.09882226e-23)
(-0.022662077 0.0185745138 1.78831137e-27)
(-0.0674209382 0.0549190869 2.83409065e-28)
(-0.112513774 0.0910821517 -2.99749334e-28)
(-0.158028283 0.127072546 3.12694978e-28)
(-0.203937634 0.162824314 0)
(-0.250144177 0.198219303 -1.59036952e-26)
(-0.296532917 0.233121422 6.7674488e-34)
(-0.342943689 0.267377082 1.77110676e-26)
(-0.389194812 0.300823163 1.86357287e-26)
(-0.43509397 0.333298097 3.90444047e-26)
(-0.480448283 0.364650685 2.12406129e-26)
(-0.525071634 0.394745743 9.19529366e-28)
(-0.568788288 0.423466784 9.61157294e-28)
(-0.611433472 0.450716442 2.27150916e-26)
(-0.652851945 0.476415486 2.3464282e-26)
(-0.692895426 0.500501113 3.26887249e-27)
(-0.731419522 0.522925029 -2.72545905e-26)
(-0.768280596 0.543651671 -5.16080577e-26)
(-0.803332847 0.562656748 -2.66886119e-26)
(-0.836425721 0.57992621 2.53572126e-27)
(-0.867401612 0.595455661 -2.62832922e-27)
(-0.896093624 0.609250207 -2.72047569e-27)
(-0.922323193 0.621324591 0)
(-0.945897498 0.631703431 5.82400386e-27)
(-0.96660592 0.640421307 3.39152384e-26)
(-0.984216017 0.647518592 -2.19930424e-29)
(-0.998475533 0.653042079 -3.8063281e-26)
(-1.00912177 0.657034728 -3.77665349e-26)
(-1.01581246 0.659613569 -3.3282132e-26)
(-1.01827163 0.660683943 3.4466762e-26)
(-1.01618285 0.660462383 -6.90736491e-27)
(-1.00915436 0.659144716 -6.36384652e-26)
(-0.996976366 0.656780489 -3.49632193e-26)
(-0.979118547 0.653822138 0)
(-0.954036836 0.649927891 0)
(-0.920878737 0.644769043 -7.86592623e-27)
(-0.878023965 0.638652765 0)
(-0.82552746 0.631439862 1.51828153e-26)
(-0.761982652 0.623628474 -3.4538817e-26)
(-0.686134848 0.615247686 2.99278747e-26)
(-0.596308243 0.606253897 4.61329597e-26)
(-0.490660974 0.596588289 0)
(-0.367817744 0.586006073 0)
(-0.225588435 0.574350874 6.77857083e-26)
(-0.0605501222 0.562632342 1.81300066e-25)
(0.122859047 0.553495394 1.29563361e-26)
(0.33182926 0.545151949 0)
(0.583849321 0.533643084 0)
(0.873312208 0.519920378 1.78627888e-25)
(1.2049204 0.506588442 2.42559132e-25)
(1.58496257 0.493897736 -9.1700632e-27)
(2.01800818 0.481621931 0)
(2.50944078 0.469925982 -3.13750614e-25)
(3.0648004 0.458886966 -3.77703665e-25)
(3.68900732 0.448672592 -9.50924447e-25)
(4.38621741 0.439701473 -1.28191551e-24)
(5.16006484 0.433028718 -1.60622565e-24)
(6.01303094 0.430183413 8.96734354e-33)
(6.94515969 0.432580604 -1.63112599e-32)
(7.9530329 0.441264859 -4.5494008e-24)
(9.02979846 0.457323666 -2.47316358e-24)
(10.1650044 0.481250514 2.56706967e-24)
(11.3516111 0.511088797 2.97936987e-24)
(12.5827592 0.544937791 0)
(13.8389871 0.588708442 3.57039882e-24)
(15.0766302 0.672052079 5.54117641e-24)
(16.3061513 0.750542982 3.31197942e-24)
(17.5890412 0.760174621 0)
(18.7275537 0.84933846 -1.92752977e-26)
(19.7833047 1.03941689 5.73996929e-24)
(21.0197812 0.87958441 4.871011e-24)
(22.0327431 0.74634945 0)
(22.7212868 1.1296033 0)
(23.3109701 1.25519188 1.55231904e-24)
(23.7435664 0.861319688 -1.5816091e-24)
(23.8423683 0.847721723 7.45732127e-25)
(23.8681985 0.998064335 1.26118831e-23)
(23.8189957 1.16680999 0)
(23.8059466 0.881097071 -3.99908872e-24)
(23.80981 0.711687167 1.95158733e-23)
(-0.0245777117 0.0185875169 1.67453254e-28)
(-0.073284075 0.0551783459 2.63588586e-28)
(-0.122504228 0.091830494 4.86637144e-27)
(-0.172303578 0.128548291 -4.47724016e-27)
(-0.222599614 0.165240609 -5.38690799e-27)
(-0.273236717 0.201757879 0)
(-0.323994718 0.237914739 -1.21583995e-26)
(-0.374625694 0.273517181 -1.29724089e-26)
(-0.424891629 0.30837367 -1.23212353e-26)
(-0.474522762 0.342298689 -1.24916506e-26)
(-0.523260191 0.375117708 -1.09488483e-26)
(-0.570859679 0.406676742 2.09153982e-34)
(-0.617092332 0.436844323 9.01750563e-28)
(-0.661743693 0.465510728 1.21164533e-33)
(-0.704610902 0.492585999 -9.8495228e-28)
(-0.74549873 0.517997487 -9.20452582e-27)
(-0.784215261 0.541687405 8.51829478e-27)
(-0.820567646 0.563610738 -2.2357203e-27)
(-0.854358087 0.583733806 -9.18463469e-27)
(-0.885380142 0.602033449 2.41056096e-27)
(-0.913415349 0.618496167 -4.99792406e-27)
(-0.938225095 0.633113243 6.61671455e-27)
(-0.959547992 0.645877594 6.05756822e-27)
(-0.977103559 0.656783549 2.77554039e-27)
(-0.990600087 0.665808887 0)
(-0.999713534 0.673008463 2.91766005e-27)
(-1.00416169 0.678449533 0)
(-1.00362191 0.682255756 5.38509887e-27)
(-0.997818798 0.68455582 -5.30701868e-27)
(-0.986388741 0.685600706 -5.45554374e-27)
(-0.968176584 0.685142108 1.90285028e-26)
(-0.942462333 0.683108598 1.60168685e-26)
(-0.90827478 0.679434172 1.37136764e-26)
(-0.864331612 0.674270331 6.92664909e-27)
(-0.810463696 0.667775195 -1.26569607e-26)
(-0.745441031 0.660212734 -1.88274599e-26)
(-0.668039818 0.651641288 0)
(-0.576739234 0.642110242 1.88808149e-26)
(-0.469656543 0.63158034 -3.51276618e-27)
(-0.345277681 0.619770849 1.2205607e-26)
(-0.201425181 0.606627669 1.28320484e-26)
(-0.0365653667 0.594007405 0)
(0.145868694 0.583882567 0)
(0.357394316 0.573393064 0)
(0.607483114 0.559963529 1.23727228e-26)
(0.894314279 0.545326955 1.88877699e-25)
(1.22247404 0.531517461 1.99021416e-25)
(1.59736734 0.518668644 0)
(2.02311293 0.506568384 0)
(2.50496642 0.495469745 2.91303966e-25)
(3.04841102 0.48558246 3.73783632e-25)
(3.65847867 0.477247389 5.07764002e-25)
(4.33980733 0.471239804 6.68402406e-25)
(5.09645827 0.468758907 3.19400284e-26)
(5.93110917 0.470966749 -9.35701623e-25)
(6.84428308 0.478797978 -1.25910792e-24)
(7.83383365 0.493160824 -2.81749354e-24)
(8.89455828 0.51504993 -3.56484429e-24)
(10.0179481 0.546052332 0)
(11.1913228 0.587177734 -2.17747824e-25)
(12.4036792 0.64014304 -4.07458571e-24)
(13.6361358 0.704414596 -8.22703614e-24)
(14.8832006 0.775257229 3.00785433e-25)
(16.1280054 0.847599446 3.24200971e-25)
(17.3646513 0.912726269 -5.87261267e-24)
(18.5368643 1.01217722 5.13787829e-24)
(19.6056225 1.14600995 5.3315582e-24)
(20.6965362 1.24091387 -9.76756959e-25)
(21.668408 1.22572276 -1.00977211e-24)
(22.5794601 1.33758091 -9.83594252e-24)
(23.1768162 1.40566045 8.29935942e-26)
(23.6820885 1.33874561 -1.542351e-23)
(23.7951019 1.28357219 -4.53904659e-24)
(23.8511427 1.36118104 0)
(23.8246665 1.38079581 -5.88258483e-24)
(23.8143208 1.31816888 -1.8480121e-23)
(23.8393503 1.18207802 3.17748532e-24)
(23.8466321 1.19316883 8.71853141e-24)
(23.8536062 1.20918698 1.24432939e-23)
(23.8255836 1.1603235 1.4507184e-23)
(-0.0263068665 0.0183178839 1.35494547e-27)
(-0.0785749929 0.0544934901 0)
(-0.131517118 0.0908531743 0)
(-0.185171739 0.127393072 1.30569244e-30)
(-0.239397898 0.16400183 0)
(-0.293962556 0.200506934 0)
(-0.348577884 0.236705115 0)
(-0.402926643 0.272373524 -1.37023137e-27)
(-0.45664162 0.307283082 0)
(-0.509371383 0.341227988 7.5722415e-28)
(-0.560827496 0.374026829 -4.85001218e-27)
(-0.610692276 0.405526081 1.04593614e-33)
(-0.65867643 0.435587344 5.11965865e-27)
(-0.70450828 0.46409628 0)
(-0.747927933 0.49096034 -9.58593294e-28)
(-0.788681842 0.51610511 2.00119509e-27)
(-0.826517072 0.53947106 0)
(-0.861175103 0.561010955 5.29830645e-27)
(-0.892380294 0.580684911 2.2715063e-27)
(-0.9198358 0.598456058 -1.46765467e-26)
(-0.943255565 0.614255094 -1.03170928e-26)
(-0.962291453 0.628153056 2.50854293e-27)
(-0.976677763 0.640147133 0)
(-0.986108528 0.650311238 -2.2308891e-26)
(-0.990250418 0.658784288 -2.8537407e-26)
(-0.988444178 0.665372042 -2.86179308e-26)
(-0.980089747 0.670127551 -3.18546298e-26)
(-0.96451791 0.673019529 3.21041035e-26)
(-0.940921281 0.674008487 3.30313671e-26)
(-0.908272068 0.673130537 0)
(-0.866239948 0.670660388 -4.55394272e-26)
(-0.813803646 0.666712621 -4.63613561e-26)
(-0.749891538 0.661344089 6.19730452e-27)
(-0.673327719 0.654631775 -4.09623702e-26)
(-0.582754454 0.64666465 -4.9379616e-26)
(-0.476359751 0.637450235 -1.28714368e-26)
(-0.352162037 0.626898366 6.21174251e-27)
(-0.208017384 0.61484212 -1.13056385e-25)
(-0.0425999568 0.602790858 -1.69468421e-25)
(0.141033445 0.592835365 8.05674193e-26)
(0.351631918 0.582803745 -2.71826291e-26)
(0.601188274 0.570048636 7.3174025e-26)
(0.886157601 0.556510385 0)
(1.21140065 0.544143031 -1.19995313e-26)
(1.58138391 0.532967889 -1.69303226e-25)
(2.00041156 0.522921642 -9.44252422e-27)
(2.47352892 0.514331364 1.57441742e-33)
(3.00600645 0.507582633 -3.39399691e-25)
(3.60286844 0.50337406 0)
(4.26869747 0.502608093 1.27737596e-27)
(5.00731498 0.506156304 -6.9908861e-25)
(5.8213911 0.514792734 -8.83702924e-25)
(6.71198021 0.529203581 1.08196252e-25)
(7.6781819 0.550120911 -1.22655134e-24)
(8.716735 0.578449323 -1.71326611e-24)
(9.82132928 0.615202278 -2.09586147e-24)
(10.9817492 0.661819856 -7.25724793e-24)
(12.1835446 0.719324567 -5.19598188e-24)
(13.4134923 0.788869772 -5.19002433e-24)
(14.6530806 0.868170069 -5.71979848e-24)
(15.8910177 0.959453565 0)
(17.0936646 1.06035562 3.45733474e-25)
(18.270626 1.16617763 -5.10324681e-24)
(19.3759843 1.26823628 -5.94544904e-24)
(20.4490103 1.35166497 -2.78542964e-26)
(21.4173169 1.42449654 0)
(22.3004888 1.51048118 1.12459413e-23)
(22.9979877 1.59077334 1.35889739e-23)
(23.5157116 1.63040608 1.0733636e-24)
(23.6765103 1.62858302 -1.37419274e-24)
(23.74951 1.69439235 -4.31899548e-27)
(23.7968204 1.64790655 -2.63162039e-24)
(23.7871926 1.67366686 -7.77801529e-24)
(23.7828206 1.62223055 -8.93145874e-24)
(23.7908344 1.57102911 -1.05757918e-24)
(23.810724 1.53187121 0)
(23.8742484 1.44023298 -9.61272895e-24)
(23.8787899 1.40465772 -1.07854601e-23)
(23.8887313 1.36021033 0)
(23.8743749 1.34171324 -1.14738108e-23)
(-0.028138969 0.0179925868 -2.68667906e-27)
(-0.0841129028 0.0535396326 -4.13123125e-27)
(-0.140852537 0.0892738187 -4.82211216e-27)
(-0.198356252 0.125176754 -2.79747824e-28)
(-0.25641457 0.161119495 4.1818865e-27)
(-0.31471265 0.196909246 -6.20589946e-28)
(-0.372873533 0.232322715 -2.97123672e-27)
(-0.430483112 0.267125889 -3.91349091e-27)
(-0.487114862 0.301088242 7.24757794e-28)
(-0.542358267 0.33398437 1.52650249e-27)
(-0.595758757 0.365627997 2.26238617e-27)
(-0.646979833 0.395854547 2.08994838e-28)
(-0.695667507 0.424541407 -2.39209514e-27)
(-0.741475968 0.451582546 -4.13956365e-27)
(-0.784072716 0.476890051 9.73962413e-28)
(-0.823128487 0.500398544 1.35834393e-26)
(-0.858310178 0.522060677 0)
(-0.889298796 0.541797746 0)
(-0.915726477 0.559672898 1.85248728e-26)
(-0.937265629 0.575667756 5.7925938e-26)
(-0.953448947 0.589750001 3.71641456e-26)
(-0.963818795 0.601861798 4.35110609e-26)
(-0.967803357 0.612020662 7.92909793e-34)
(-0.964776525 0.6201983 -5.44067916e-26)
(-0.954023105 0.626352141 5.25402406e-26)
(-0.935041673 0.630709346 1.1914532e-25)
(-0.907061775 0.633280214 6.17872201e-26)
(-0.869212243 0.634117017 -3.00192417e-27)
(-0.820532995 0.63327715 3.05965748e-27)
(-0.759963564 0.63082362 -6.23405916e-27)
(-0.68630382 0.626846617 0)
(-0.598163341 0.621460651 9.46009713e-26)
(-0.493904295 0.614782861 -6.59440556e-27)
(-0.371737593 0.606961098 -8.17345942e-26)
(-0.230035584 0.597897325 0)
(-0.0662973629 0.587777638 -1.63874786e-25)
(0.122494099 0.57835537 -1.40433658e-25)
(0.329886955 0.570241844 0)
(0.577961909 0.560375556 0)
(0.860294784 0.549774026 -1.64838308e-25)
(1.18180511 0.5404889 -1.75978655e-25)
(1.54679262 0.532622668 2.35264625e-26)
(1.95928026 0.526240911 0)
(2.42406776 0.521861673 2.33491158e-25)
(2.94611926 0.520124223 5.93001817e-25)
(3.5300861 0.521753352 3.67482985e-25)
(4.18018094 0.527519262 3.4892929e-27)
(4.89996529 0.538180663 -1.41643959e-27)
(5.69211739 0.554453849 0)
(6.5580777 0.57705521 -9.1537736e-25)
(7.49769808 0.606735138 5.00694565e-26)
(8.50871357 0.644201843 1.48887591e-24)
(9.58633547 0.690064939 1.10908999e-25)
(10.722638 0.744819085 -2.11955724e-24)
(11.9062653 0.808903657 -5.4209577e-24)
(13.1223291 0.882394066 2.55753878e-32)
(14.3556359 0.965607193 2.97365302e-24)
(15.5870284 1.05741218 0)
(16.8000488 1.15869537 0)
(17.9706452 1.2636884 3.13705003e-25)
(19.092676 1.37177126 3.43593097e-25)
(20.12098 1.48043868 0)
(21.0827467 1.58713598 8.15897646e-24)
(21.9132571 1.68085203 7.68445687e-24)
(22.6896076 1.73262539 -1.05017894e-23)
(23.2832456 1.77116729 -2.82369843e-23)
(23.5831626 1.78638053 -8.57862179e-24)
(23.6566955 1.83369686 -4.12455669e-24)
(23.6902389 1.88835476 -5.58190654e-24)
(23.7005599 1.88851597 -1.96895046e-24)
(23.7011111 1.8685942 1.08744207e-23)
(23.7267807 1.85371182 9.1581361e-24)
(23.7747356 1.75125727 -1.45184709e-23)
(23.7869982 1.734229 -6.34425393e-24)
(23.7924944 1.68093443 -1.51173019e-23)
(23.7882186 1.67889973 -9.28192558e-24)
(23.8693861 1.57839176 -1.1892922e-23)
(23.8983972 1.51747449 1.98559705e-31)
(23.9078888 1.49742519 2.94586412e-23)
(23.8814554 1.48668526 3.07805632e-23)
(-0.0302753807 0.0177185883 1.58637441e-27)
(-0.0904445503 0.0526461846 2.7065788e-28)
(-0.15134376 0.0876607562 4.83188632e-27)
(-0.21291153 0.122723107 -4.72731009e-34)
(-0.274854042 0.157687639 -4.1498187e-27)
(-0.336762546 0.192346459 -4.27301096e-27)
(-0.39816268 0.226464128 -5.8052172e-27)
(-0.458543611 0.259798572 -2.76203598e-27)
(-0.517383121 0.29211755 -9.67090226e-28)
(-0.574169043 0.32321114 -3.91700499e-29)
(-0.628422173 0.352886768 6.99046091e-28)
(-0.67964491 0.380991119 8.1468198e-28)
(-0.727398329 0.407397523 3.22627509e-27)
(-0.771267621 0.432017673 6.51220921e-27)
(-0.810833396 0.454813519 1.03304046e-27)
(-0.84570235 0.475696153 1.07786419e-27)
(-0.875419726 0.49465109 3.00749168e-26)
(-0.899498476 0.511693943 3.85442589e-26)
(-0.917448319 0.526725832 -2.41253068e-27)
(-0.928695079 0.53976718 -2.53598679e-27)
(-0.932698139 0.550908644 5.08415894e-26)
(-0.928827039 0.560149614 5.76688646e-26)
(-0.916367163 0.567514589 0)
(-0.894503236 0.573049496 2.93191354e-27)
(-0.862371923 0.57678991 0)
(-0.818998828 0.578803361 0)
(-0.76329225 0.579179269 3.20118301e-27)
(-0.694029219 0.57802234 -1.10077954e-25)
(-0.609835086 0.575452169 -1.07913226e-25)
(-0.509119029 0.5716036 1.10064389e-25)
(-0.390139078 0.566642879 1.12486928e-25)
(-0.251231446 0.560533514 6.83786323e-27)
(-0.0900012581 0.553460528 -7.06954698e-27)
(0.0964780485 0.546869458 0)
(0.303377283 0.541350772 7.07731164e-27)
(0.548157232 0.534922574 0)
(0.826972932 0.527994337 0)
(1.14390763 0.52241035 7.38515177e-27)
(1.50330229 0.518636181 0)
(1.90880645 0.516850757 0)
(2.3648654 0.517644549 2.46457946e-25)
(2.87600531 0.521650157 2.96261123e-25)
(3.44648493 0.52957641 0)
(4.08021747 0.542187519 0)
(4.78058472 0.560269592 0)
(5.55030926 0.584632881 -1.30473995e-27)
(6.39103939 0.616078334 -9.19453757e-27)
(7.30300222 0.65536907 9.95327019e-25)
(8.28460377 0.703184722 1.22224109e-24)
(9.33199267 0.760033244 1.52124029e-24)
(10.4387925 0.826230253 1.88465694e-24)
(11.5953832 0.901794761 2.36917356e-24)
(12.7892298 0.986496367 2.79515182e-24)
(14.0039582 1.07944718 0)
(15.2235095 1.17950101 0)
(16.4297891 1.28434002 -3.14223513e-24)
(17.6047237 1.3922832 -6.92920344e-24)
(18.7261493 1.50064388 -3.82740331e-24)
(19.7756631 1.60937427 -4.03974871e-24)
(20.729157 1.71402134 -3.50959015e-24)
(21.5841363 1.80622094 9.16813912e-24)
(22.3155199 1.88360566 1.85511655e-23)
(22.9303578 1.94030683 3.97218128e-25)
(23.4063181 1.98489395 -1.22043344e-23)
(23.6059355 2.01708039 4.43506747e-25)
(23.6330863 2.05629107 -8.69302167e-25)
(23.6350633 2.07415241 9.11533755e-24)
(23.6398808 2.04220171 -1.25883614e-31)
(23.671838 2.00177163 -1.12372692e-23)
(23.7098727 1.96869365 -1.02300644e-24)
(23.7251859 1.93649014 1.22815464e-23)
(23.7169112 1.94857324 7.47644412e-24)
(23.760082 1.89580067 0)
(23.78473 1.85425562 1.24768555e-24)
(23.7861596 1.83674416 0)
(23.8005497 1.81633753 9.84584638e-24)
(23.8788318 1.75671845 2.59008974e-23)
(23.9127765 1.71247167 1.29400494e-23)
(23.9893584 1.65894811 1.13514143e-23)
(23.9674708 1.65148703 2.51333999e-23)
(-0.0327425749 0.0174718546 1.71463211e-27)
(-0.0975992432 0.0517735949 5.45197455e-27)
(-0.162963427 0.0859963991 -3.29511419e-28)
(-0.228685812 0.120075049 -4.54408387e-27)
(-0.294366715 0.153846828 -3.77178511e-27)
(-0.359485688 0.187092344 -3.28420638e-27)
(-0.423455035 0.219570203 -8.13961726e-28)
(-0.485651186 0.251037511 -2.7740311e-28)
(-0.545441658 0.281264963 -1.79177258e-27)
(-0.602207547 0.31004849 -3.570343e-27)
(-0.655355739 0.337217426 0)
(-0.704314473 0.362653946 -2.06337821e-27)
(-0.748553854 0.386236311 1.08109357e-27)
(-0.787523397 0.407904743 0)
(-0.820688166 0.42758795 0)
(-0.847476678 0.44530666 0)
(-0.867325889 0.461036185 0)
(-0.879619125 0.474794347 -1.33514342e-27)
(-0.883684243 0.486608135 0)
(-0.878779963 0.496514896 -3.61335149e-26)
(-0.864115356 0.504553369 -4.03831548e-26)
(-0.838768976 0.510803193 8.0834268e-26)
(-0.801776328 0.515336839 9.32618987e-26)
(-0.752037782 0.518256992 -9.93417657e-26)
(-0.688334361 0.51967844 -1.15452677e-25)
(-0.609306573 0.519735401 -1.21895651e-25)
(-0.513404352 0.518582418 -1.26833112e-25)
(-0.398928051 0.516402955 -1.38510277e-25)
(-0.264196839 0.513224121 -2.88151762e-25)
(-0.106963454 0.50926422 -1.90478185e-25)
(0.0755293928 0.505747404 0)
(0.279545122 0.503136559 -7.69826983e-27)
(0.52004033 0.500099901 -7.89457058e-27)
(0.794049794 0.497015834 0)
(1.10532212 0.495484395 7.85025896e-27)
(1.45782762 0.496027968 0)
(1.8550699 0.49892225 0)
(2.3010632 0.504801192 2.8466411e-25)
(2.79996912 0.514317848 -6.77264053e-27)
(3.3557436 0.528205816 -3.56536523e-25)
(3.9720819 0.547277538 4.21267375e-25)
(4.65221143 0.572379621 4.89922087e-25)
(5.39881034 0.604356631 1.4107724e-27)
(6.2136271 0.644021661 0)
(7.09718215 0.692139429 8.70297309e-25)
(8.04843369 0.749381914 1.03572371e-24)
(9.06443263 0.816275095 0)
(10.1399751 0.893138038 0)
(11.2672399 0.980052961 -1.86819926e-24)
(12.4352911 1.07670426 -2.25334037e-24)
(13.6304649 1.18258959 2.76128974e-24)
(14.8342172 1.2964142 3.06706969e-24)
(16.0295669 1.41637098 -3.04198668e-24)
(17.1976732 1.53954842 3.25389328e-32)
(18.3199598 1.66313759 3.59109745e-24)
(19.376204 1.7831238 1.87837699e-26)
(20.349738 1.89558251 0)
(21.220405 1.99584591 2.89305543e-25)
(21.9766715 2.08490942 -4.34919317e-24)
(22.60535 2.15855898 3.79956832e-25)
(23.092903 2.2099669 5.03962898e-24)
(23.4756548 2.24490256 0)
(23.6418999 2.25624395 4.29990698e-25)
(23.6680452 2.2862362 0)
(23.6355771 2.29845865 2.8888765e-25)
(23.6293779 2.27667154 -4.6015614e-25)
(23.6281262 2.26824705 -6.55586909e-25)
(23.6723611 2.22827904 -9.80219766e-24)
(23.7110627 2.19897949 -1.08625686e-23)
(23.7404907 2.17885913 -9.54273715e-25)
(23.7705522 2.145265 -1.05732461e-23)
(23.7913857 2.13246883 -1.10479254e-23)
(23.8136197 2.11870979 -1.10451595e-23)
(23.852439 2.07905576 -1.10090015e-23)
(23.8945939 2.04344389 -1.33679929e-23)
(23.9444068 2.0235491 -1.50674151e-23)
(24.0150833 1.97925376 1.30641457e-23)
(24.0444743 1.96097982 1.34166438e-23)
(24.0977853 1.90594453 -2.7757608e-24)
(24.0845337 1.91107614 2.02116824e-24)
(-0.0353027817 0.017093948 1.50238106e-27)
(-0.104841481 0.0504922732 -5.03573305e-27)
(-0.174439741 0.083628497 -3.99040406e-28)
(-0.243824788 0.116408161 -4.09171583e-34)
(-0.312463251 0.148650525 -1.92527254e-27)
(-0.379700417 0.180128287 -4.63099373e-28)
(-0.444817807 0.210600575 9.30951303e-28)
(-0.50706602 0.239832723 7.7141217e-34)
(-0.565687917 0.267620438 -9.80689954e-27)
(-0.619948041 0.29376973 -8.12659454e-27)
(-0.669117337 0.318140566 1.17345188e-27)
(-0.712497467 0.340604904 -1.42794566e-26)
(-0.749388137 0.361113213 -1.47298506e-26)
(-0.779114797 0.379612613 -1.95418156e-26)
(-0.800982068 0.396094025 -2.33750786e-26)
(-0.814268315 0.410574045 2.75429335e-26)
(-0.818207165 0.423095025 3.19670292e-26)
(-0.81197523 0.433705662 -1.55072322e-27)
(-0.794676539 0.442488956 0)
(-0.765301287 0.449536311 -4.46755038e-26)
(-0.72277923 0.454955639 -5.1764727e-26)
(-0.665905886 0.458883614 -3.61997636e-27)
(-0.593348693 0.46147267 6.3057636e-26)
(-0.503606071 0.462898443 7.23699448e-26)
(-0.395031849 0.46336591 -7.76100136e-27)
(-0.265954146 0.462964371 0)
(-0.114262894 0.461940596 4.17669005e-27)
(0.0626537992 0.461328435 1.26700365e-28)
(0.262002098 0.461508788 -1.78705561e-25)
(0.496470392 0.461675871 -1.8932603e-25)
(0.763869497 0.462200253 2.40019474e-25)
(1.06768555 0.464462239 2.46576901e-25)
(1.41152573 0.46900319 -1.72837311e-26)
(1.79869363 0.476173493 -2.7885358e-25)
(2.23289734 0.486632479 -5.93360638e-33)
(2.71796778 0.501076588 3.48463126e-25)
(3.25759061 0.52026537 -3.98581136e-25)
(3.85523517 0.545025536 -4.45126047e-25)
(4.51395837 0.576217186 -1.05836415e-26)
(5.23637148 0.614690486 4.03231281e-27)
(6.02429286 0.66126304 1.14065232e-27)
(6.87848902 0.716703122 -8.22684342e-25)
(7.79837739 0.781685049 -1.97246568e-24)
(8.78171638 0.856732567 -1.18121796e-24)
(9.82430506 0.942159953 -1.39078892e-24)
(10.9196991 1.03801402 -1.70408706e-24)
(12.058943 1.14401605 0)
(13.2303483 1.25952598 2.48354806e-24)
(14.4191448 1.38365412 2.92826415e-24)
(15.6066433 1.51513318 3.21484106e-24)
(16.7732796 1.65220055 6.66432497e-24)
(17.8996439 1.79182299 6.89332313e-24)
(18.9677182 1.93101343 7.22370306e-24)
(19.9572438 2.06511952 7.55166975e-24)
(20.8530351 2.19202574 3.921965e-24)
(21.6355258 2.30602829 -4.81029366e-25)
(22.3038435 2.40509537 0)
(22.8402705 2.47817588 -3.79049162e-24)
(23.2593897 2.52950955 -4.95630135e-24)
(23.5443421 2.58738608 0)
(23.6745313 2.57082396 -5.70039331e-24)
(23.6920768 2.58542169 -5.28829714e-24)
(23.6612958 2.58048823 0)
(23.6636854 2.5471136 -4.84556344e-25)
(23.6682841 2.52435585 0)
(23.6968397 2.5071026 -1.03977284e-23)
(23.729834 2.49403177 -1.7213273e-24)
(23.7752696 2.48730391 1.02647277e-23)
(23.8267158 2.47287139 -1.10793181e-24)
(23.8686748 2.45275336 -1.11200755e-24)
(23.9026892 2.42970902 -1.03790693e-23)
(23.9381992 2.40264348 -1.04898744e-23)
(23.955213 2.38133846 -1.09721674e-24)
(23.9700696 2.36489145 -1.11182465e-24)
(23.9790791 2.31747703 -6.679376e-26)
(23.9777233 2.2831715 -1.20430563e-24)
(24.0079953 2.20139534 1.18438077e-23)
(24.0604536 2.08904987 2.3729283e-23)
(24.0875207 2.00529942 1.44199583e-23)
(24.0922383 1.93666907 -1.97800454e-24)
(-0.0375579702 0.0164044246 0)
(-0.110952056 0.0482883725 -4.7041517e-28)
(-0.183698251 0.0797426946 4.93795194e-28)
(-0.255368186 0.110649784 -5.59265295e-28)
(-0.325266282 0.140818165 5.45220738e-28)
(-0.392578323 0.170017277 5.72239918e-28)
(-0.456424857 0.198017952 -6.14733172e-27)
(-0.515895789 0.22460285 0)
(-0.570077806 0.249571253 1.3110464e-27)
(-0.618064965 0.272780555 -1.41351062e-26)
(-0.658981127 0.294109306 -1.61644715e-26)
(-0.691964113 0.313485213 2.1386362e-26)
(-0.716159838 0.330875919 1.5707256e-27)
(-0.730707077 0.346286217 -5.84848021e-26)
(-0.734713035 0.359758838 -6.96158844e-26)
(-0.727246357 0.371341115 -3.79438109e-26)
(-0.707285708 0.381150278 -1.8389331e-27)
(-0.673760635 0.389287451 -5.0982806e-26)
(-0.625485442 0.395902182 -5.50520369e-26)
(-0.561158038 0.40116167 2.00946449e-27)
(-0.479335266 0.405261771 -2.11501533e-27)
(-0.378436734 0.408426794 -8.58022776e-27)
(-0.256823883 0.410800953 -8.21190014e-26)
(-0.112512805 0.412655425 -1.99932847e-25)
(0.0569492793 0.41486656 -1.05929014e-25)
(0.249603942 0.4177649 -4.76382882e-27)
(0.476079655 0.420965734 -9.64790641e-26)
(0.734872988 0.424839564 4.91288154e-27)
(1.02923876 0.430577041 -4.97004535e-27)
(1.36246553 0.438735303 -1.40485181e-25)
(1.73766284 0.449733486 0)
(2.15825988 0.464249207 -3.48669878e-25)
(2.6277881 0.483000509 -9.6477749e-27)
(3.14967345 0.506760137 4.27594333e-25)
(3.72716823 0.536356144 4.78058665e-25)
(4.36319049 0.572649704 5.36377817e-25)
(5.06025922 0.616494719 -6.71261062e-27)