/*--------------------------------*- C++ -*----------------------------------*\
  =========                 |
  \\      /  F ield         | OpenFOAM: The Open Source CFD Toolbox
   \\    /   O peration     | Website:  https://openfoam.org
    \\  /    A nd           | Version:  8
     \\/     M anipulation  |
\*---------------------------------------------------------------------------*/
FoamFile
{
    version     2.0;
    format      ascii;
    class       volScalarField;
    location    "0.006";
    object      p;
}
// * * * * * * * * * * * * * * * * * * * * * * * * * * * * * * * * * * * * * //

dimensions      [1 -1 -2 0 0 0 0];

internalField   nonuniform List<scalar> 
42400
(
101269.226
101269.205
101269.183
101269.162
101269.143
101269.125
101269.108
101269.092
101269.078
101269.065
101269.054
101269.044
101269.036
101269.03
101269.026
101269.023
101269.022
101269.023
101269.026
101269.03
101269.037
101269.046
101269.058
101269.071
101269.087
101269.105
101269.126
101269.149
101269.174
101269.203
101269.233
101269.267
101269.303
101269.346
101269.401
101269.46
101269.51
101269.547
101269.585
101269.636
101269.701
101269.771
101269.844
101269.922
101270.006
101270.093
101270.187
101270.279
101270.398
101270.554
101270.688
101270.797
101270.939
101271.114
101271.314
101271.521
101271.748
101271.993
101272.254
101272.545
101272.879
101273.254
101273.665
101274.111
101274.592
101275.095
101275.649
101276.237
101276.86
101277.358
101278.139
101278.922
101279.288
101280.542
101284.54
101287.226
101287.567
101287.4
101288.5
101290.455
101268.724
101268.704
101268.683
101268.663
101268.645
101268.628
101268.612
101268.597
101268.583
101268.571
101268.561
101268.552
101268.545
101268.539
101268.535
101268.533
101268.533
101268.535
101268.539
101268.545
101268.553
101268.563
101268.575
101268.59
101268.607
101268.626
101268.648
101268.672
101268.699
101268.727
101268.761
101268.802
101268.848
101268.889
101268.921
101268.954
101268.996
101269.049
101269.104
101269.161
101269.221
101269.285
101269.349
101269.409
101269.479
101269.574
101269.693
101269.785
101269.847
101269.946
101270.076
101270.209
101270.352
101270.507
101270.672
101270.854
101271.061
101271.309
101271.601
101271.925
101272.287
101272.704
101273.195
101273.754
101274.395
101275.068
101275.82
101276.607
101277.511
101278.31
101279.261
101281.851
101285.17
101285.969
101285.052
101286.344
101288.775
101290.278
101292.137
101293.864
101268.064
101268.046
101268.026
101268.008
101267.992
101267.976
101267.962
101267.949
101267.937
101267.927
101267.918
101267.911
101267.906
101267.903
101267.901
101267.901
101267.903
101267.908
101267.914
101267.922
101267.933
101267.946
101267.961
101267.978
101267.998
101268.02
101268.044
101268.072
101268.107
101268.146
101268.182
101268.212
101268.243
101268.282
101268.328
101268.376
101268.425
101268.477
101268.531
101268.584
101268.631
101268.696
101268.796
101268.902
101268.946
101268.979
101269.061
101269.166
101269.267
101269.372
101269.483
101269.602
101269.734
101269.892
101270.08
101270.294
101270.53
101270.794
101271.103
101271.473
101271.905
101272.419
101273.019
101273.726
101274.564
101275.527
101276.532
101277.587
101278.769
101281.318
101283.372
101283.68
101284.151
101285.483
101287.081
101288.603
101290.227
101291.731
101293.509
101295.428
101267.26
101267.244
101267.227
101267.211
101267.197
101267.184
101267.172
101267.162
101267.153
101267.146
101267.14
101267.137
101267.135
101267.135
101267.138
101267.142
101267.148
101267.157
101267.168
101267.181
101267.196
101267.213
101267.233
101267.256
101267.282
101267.312
101267.347
101267.38
101267.409
101267.439
101267.475
101267.518
101267.563
101267.609
101267.658
101267.708
101267.759
101267.804
101267.865
101267.955
101268.023
101268.058
101268.114
101268.195
101268.286
101268.367
101268.45
101268.54
101268.637
101268.748
101268.88
101269.033
101269.202
101269.389
101269.602
101269.85
101270.14
101270.48
101270.871
101271.333
101271.854
101272.5
101273.19
101274.029
101274.802
101275.645
101277.024
101279.581
101281.811
101282.365
101283.107
101284.628
101285.924
101287.592
101289.294
101290.753
101292.354
101294.27
101296.185
101297.827
101266.324
101266.311
101266.297
101266.284
101266.273
101266.264
101266.256
101266.249
101266.244
101266.242
101266.241
101266.242
101266.245
101266.25
101266.258
101266.268
101266.28
101266.295
101266.311
101266.33
101266.351
101266.375
101266.403
101266.435
101266.465
101266.495
101266.525
101266.562
101266.603
101266.647
101266.691
101266.738
101266.788
101266.837
101266.881
101266.941
101267.025
101267.088
101267.123
101267.181
101267.258
101267.334
101267.407
101267.484
101267.567
101267.658
101267.763
101267.883
101268.015
101268.16
101268.325
101268.516
101268.74
101268.999
101269.298
101269.644
101270.036
101270.482
101270.972
101271.548
101272.142
101272.897
101273.491
101274.531
101276.879
101279.109
101280.263
101280.6
101281.175
101282.694
101284.551
101286.2
101287.896
101289.654
101291.443
101293.248
101294.887
101296.351
101297.955
101299.562
101265.251
101265.241
101265.23
101265.221
101265.214
101265.208
101265.204
101265.203
101265.203
101265.205
101265.21
101265.217
101265.226
101265.238
101265.252
101265.268
101265.286
101265.307
101265.332
101265.36
101265.39
101265.421
101265.454
101265.487
101265.526
101265.568
101265.612
101265.658
101265.706
101265.755
101265.805
101265.85
101265.909
101265.99
101266.05
101266.087
101266.145
101266.219
101266.289
101266.359
101266.433
101266.513
101266.602
101266.698
101266.804
101266.919
101267.049
101267.197
101267.371
101267.574
101267.813
101268.091
101268.416
101268.798
101269.24
101269.748
101270.323
101270.981
101271.686
101272.488
101273.356
101274.513
101276.878
101278.435
101279.041
101279.75
101280.681
101281.976
101283.949
101285.669
101287.28
101288.736
101290.101
101291.472
101292.93
101294.343
101295.949
101298.106
101300.567
101302.422
101264.034
101264.027
101264.02
101264.015
101264.013
101264.012
101264.013
101264.015
101264.02
101264.028
101264.039
101264.051
101264.066
101264.085
101264.107
101264.134
101264.163
101264.195
101264.229
101264.265
101264.305
101264.347
101264.392
101264.438
101264.486
101264.536
101264.589
101264.641
101264.69
101264.75
101264.83
101264.892
101264.933
101264.993
101265.067
101265.137
101265.208
101265.282
101265.36
101265.442
101265.53
101265.624
101265.728
101265.844
101265.976
101266.127
101266.303
101266.508
101266.75
101267.034
101267.367
101267.761
101268.221
101268.759
101269.385
101270.104
101270.921
101271.849
101272.882
101273.961
101275.475
101276.483
101277.003
101278.127
101279.557
101281.038
101282.698
101284.51
101286.213
101287.427
101288.691
101290.143
101291.411
101292.784
101294.484
101296.127
101298.004
101299.849
101301.863
101303.354
101262.622
101262.618
101262.616
101262.616
101262.618
101262.622
101262.63
101262.641
101262.655
101262.672
101262.692
101262.716
101262.743
101262.773
101262.806
101262.842
101262.881
101262.924
101262.968
101263.016
101263.066
101263.118
101263.174
101263.231
101263.29
101263.346
101263.411
101263.494
101263.562
101263.612
101263.679
101263.758
101263.833
101263.907
101263.984
101264.064
101264.146
101264.232
101264.324
101264.423
101264.531
101264.651
101264.786
101264.939
101265.115
101265.319
101265.558
101265.839
101266.168
101266.552
101266.998
101267.514
101268.109
101268.79
101269.568
101270.437
101271.408
101272.41
101273.512
101274.762
101275.884
101277.345
101278.609
101279.695
101281.075
101282.484
101283.755
101285.025
101286.297
101287.663
101289.107
101290.608
101292.192
101293.654
101295.539
101297.87
101299.782
101301.425
101303.724
101306.513
101260.99
101260.99
101260.992
101260.997
101261.005
101261.015
101261.029
101261.046
101261.067
101261.091
101261.12
101261.152
101261.188
101261.228
101261.272
101261.319
101261.37
101261.425
101261.483
101261.544
101261.609
101261.675
101261.741
101261.814
101261.902
101261.978
101262.041
101262.119
101262.206
101262.291
101262.375
101262.461
101262.549
101262.64
101262.734
101262.832
101262.936
101263.047
101263.167
101263.299
101263.445
101263.61
101263.797
101264.011
101264.258
101264.543
101264.874
101265.256
101265.694
101266.193
101266.761
101267.421
101268.173
101268.994
101269.848
101270.9
101272.051
101273.172
101274.157
101275.161
101276.407
101277.489
101278.408
101279.801
101281.555
101283.125
101284.284
101285.822
101287.579
101289.054
101290.739
101292.676
101294.763
101297.012
101298.901
101300.554
101302.856
101305.387
101307.501
101309.167
101259.051
101259.055
101259.062
101259.071
101259.085
101259.102
101259.123
101259.148
101259.178
101259.212
101259.25
101259.293
101259.341
101259.393
101259.449
101259.51
101259.575
101259.644
101259.716
101259.789
101259.868
101259.961
101260.046
101260.123
101260.212
101260.309
101260.404
101260.499
101260.597
101260.698
101260.801
101260.907
101261.018
101261.133
101261.255
101261.385
101261.525
101261.678
101261.847
101262.036
101262.249
101262.49
101262.764
101263.076
101263.431
101263.832
101264.282
101264.78
101265.325
101265.912
101266.504
101267.106
101267.868
101268.96
101270.297
101271.563
101272.784
101274.086
101275.479
101277.057
101278.684
101280.485
101282.47
101283.724
101284.611
101285.808
101287.149
101288.578
101290.302
101292.271
101293.878
101295.337
101296.991
101298.663
101300.474
101302.361
101304.254
101306.052
101307.965
101309.371
101256.721
101256.73
101256.743
101256.76
101256.78
101256.805
101256.835
101256.87
101256.909
101256.954
101257.004
101257.059
101257.119
101257.183
101257.252
101257.326
101257.403
101257.486
101257.581
101257.672
101257.758
101257.855
101257.959
101258.063
101258.169
101258.278
101258.389
101258.504
101258.622
101258.744
101258.871
101259.004
101259.145
101259.295
101259.457
101259.634
101259.83
101260.048
101260.293
101260.571
101260.885
101261.243
101261.649
101262.109
101262.628
101263.216
101263.877
101264.618
101265.447
101266.389
101267.433
101268.719
101270.079
101271.003
101271.786
101272.837
101274.072
101275.386
101276.796
101278.097
101279.432
101280.808
101282.097
101283.561
101285.209
101286.961
101288.57
101290.089
101291.954
101293.74
101295.102
101296.308
101297.993
101299.923
101301.538
101303.195
101304.869
101306.95
101309.44
101311.266
101253.919
101253.935
101253.956
101253.981
101254.011
101254.045
101254.085
101254.13
101254.181
101254.237
101254.299
101254.365
101254.438
101254.514
101254.597
101254.691
101254.783
101254.874
101254.975
101255.082
101255.191
101255.303
101255.418
101255.537
101255.659
101255.785
101255.915
101256.05
101256.19
101256.337
101256.493
101256.66
101256.841
101257.038
101257.256
101257.498
101257.77
101258.076
101258.423
101258.815
101259.258
101259.757
101260.317
101260.941
101261.634
101262.399
101263.238
101264.148
101265.118
101266.139
101267.279
101268.323
101269.398
101270.826
101272.138
101273.286
101274.583
101275.876
101277.101
101278.32
101279.653
101281.042
101282.512
101284.02
101285.504
101287.21
101288.97
101290.607
101292.079
101293.633
101295.488
101296.988
101298.424
101300.374
101303.059
101305.602
101308.222
101310.173
101311.788
101313.618
101250.579
101250.603
101250.635
101250.67
101250.711
101250.756
101250.808
101250.865
101250.928
101250.996
101251.07
101251.15
101251.239
101251.33
101251.423
101251.523
101251.631
101251.741
101251.855
101251.973
101252.095
101252.221
101252.35
101252.484
101252.622
101252.766
101252.916
101253.074
101253.241
101253.42
101253.613
101253.823
101254.055
101254.313
101254.6
101254.923
101255.287
101255.697
101256.158
101256.676
101257.255
101257.899
101258.611
101259.393
101260.245
101261.165
101262.155
101263.211
101264.31
101265.443
101266.609
101267.893
101269.196
101270.46
101271.724
101273.053
101274.353
101275.65
101276.934
101278.13
101279.198
101280.282
101282.16
101284.384
101286.071
101287.866
101290.062
101292.373
101294.23
101295.745
101297.464
101299.321
101301.442
101303.977
101305.629
101306.931
101308.726
101310.817
101312.875
101314.835
101246.655
101246.69
101246.734
101246.782
101246.835
101246.895
101246.959
101247.029
101247.106
101247.19
101247.278
101247.37
101247.469
101247.575
101247.685
101247.799
101247.918
101248.042
101248.17
101248.302
101248.439
101248.581
101248.728
101248.882
101249.043
101249.213
101249.394
101249.587
101249.797
101250.026
101250.278
101250.557
101250.869
101251.219
101251.611
101252.052
101252.546
101253.1
101253.717
101254.401
101255.157
101255.986
101256.889
101257.865
101258.911
101260.025
101261.206
101262.469
101263.807
101265.107
101266.135
101266.917
101267.861
101269.027
101270.582
101272.61
101274.764
101276.754
101278.783
101280.908
101283.13
101285.317
101286.517
101287.526
101288.917
101290.332
101291.729
101293.161
101294.926
101296.955
101298.897
101301.044
101303.04
101304.481
101306.474
101308.341
101309.643
101311.517
101313.61
101315.723
101242.121
101242.17
101242.229
101242.292
101242.36
101242.434
101242.515
101242.6
101242.691
101242.788
101242.892
101243.002
101243.116
101243.236
101243.362
101243.492
101243.628
101243.769
101243.916
101244.069
101244.229
101244.397
101244.573
101244.761
101244.961
101245.177
101245.411
101245.668
101245.95
101246.263
101246.61
101246.999
101247.432
101247.917
101248.457
101249.057
101249.721
101250.451
101251.251
101252.12
101253.06
101254.068
101255.135
101256.272
101257.435
101258.551
101259.604
101260.993
101262.88
101264.824
101266.843
101268.936
101271.184
101273.457
101275.241
101276.219
101277.344
101278.849
101280.429
101282.095
101283.469
101284.655
101286.122
101287.589
101289.2
101291.26
101292.748
101293.837
101295.602
101298.056
101300.121
101302.51
101305.316
101307.336
101307.95
101309.199
101311.575
101313.569
101315.599
101318.032
101236.98
101237.044
101237.12
101237.199
101237.283
101237.373
101237.469
101237.572
101237.68
101237.794
101237.914
101238.04
101238.172
101238.311
101238.455
101238.606
101238.763
101238.929
101239.103
101239.286
101239.481
101239.689
101239.913
101240.156
101240.42
101240.71
101241.029
101241.383
101241.777
101242.216
101242.704
101243.246
101243.848
101244.513
101245.245
101246.045
101246.913
101247.851
101248.855
101249.915
101251.03
101252.214
101253.497
101255.039
101257.048
101259.434
101262.017
101263.77
101264.756
101266.069
101267.749
101269.128
101270.359
101271.755
101273.119
101274.603
101276.293
101277.971
101279.463
101280.848
101282.701
101284.677
101286.636
101288.907
101290.591
101291.813
101293.628
101296.276
101298.45
101300.493
101302.906
101305.428
101307.233
101308.89
101310.932
101312.282
101314.075
101316.934
101319.708
101321.706
101231.248
101231.327
101231.421
101231.517
101231.618
101231.725
101231.838
101231.956
101232.082
101232.213
101232.351
101232.495
101232.647
101232.806
101232.973
101233.149
101233.336
101233.535
101233.747
101233.976
101234.223
101234.493
101234.788
101235.114
101235.475
101235.876
101236.323
101236.821
101237.375
101237.992
101238.676
101239.432
101240.264
101241.174
101242.165
101243.236
101244.39
101245.624
101246.936
101248.305
101249.726
101251.63
101253.717
101255.15
101256.329
101257.63
101259.035
101260.854
101262.915
101264.45
101265.732
101267.61
101269.878
101271.834
101273.812
101275.962
101277.82
101279.262
101280.695
101282.395
101284.221
101286.143
101288.228
101290.583
101292.988
101294.962
101296.924
101298.748
101300.552
101302.46
101304.319
101306.146
101308.196
101310.688
101313.234
101315.739
101317.78
101319.546
101322.66
101324.789
101224.989
101225.085
101225.196
101225.309
101225.425
101225.547
101225.675
101225.809
101225.95
101226.097
101226.251
101226.414
101226.585
101226.767
101226.96
101227.166
101227.388
101227.629
101227.891
101228.179
101228.496
101228.848
101229.239
101229.676
101230.164
101230.71
101231.319
101231.998
101232.753
101233.588
101234.507
101235.514
101236.611
101237.797
101239.073
101240.436
101241.884
101243.41
101245.011
101246.666
101248.417
101249.802
101251.255
101253.256
101255.025
101256.542
101258.015
101259.422
101261.02
101262.884
101265.235
101267.971
101270.096
101271.825
101273.685
101275.596
101277.565
101279.585
101281.602
101283.362
101285.442
101287.825
101289.736
101291.497
101293.382
101295.105
101296.678
101298.652
101301.304
101303.829
101306.209
101308.466
101310.603
101313.046
101315.543
101317.759
101319.736
101321.78
101323.85
101325.279
101218.336
101218.447
101218.574
101218.702
101218.832
101218.968
101219.109
101219.256
101219.41
101219.571
101219.741
101219.921
101220.113
101220.319
101220.541
101220.783
101221.047
101221.338
101221.66
101222.019
101222.42
101222.868
101223.37
101223.932
101224.561
101225.262
101226.041
101226.901
101227.848
101228.882
101230.005
101231.216
101232.513
101233.892
101235.347
101236.871
101238.453
101240.081
101241.767
101243.473
101245.234
101246.996
101248.601
101250.174
101251.702
101253.735
101256.45
101259.092
101261.87
101264.583
101266.655
101268.259
101270.054
101271.995
101273.877
101275.818
101277.786
101280.078
101282.126
101283.57
101285.032
101287.252
101290.663
101293.286
101295.48
101297.645
101299.796
101301.834
101303.61
101305.419
101307.244
101309.192
101311.09
101313.2
101316.28
101318.749
101320.795
101322.883
101324.847
101326.493
101211.491
101211.615
101211.758
101211.898
101212.04
101212.187
101212.34
101212.499
101212.665
101212.841
101213.028
101213.229
101213.446
101213.682
101213.942
101214.229
101214.548
101214.906
101215.306
101215.757
101216.264
101216.834
101217.473
101218.188
101218.984
101219.866
101220.838
101221.901
101223.058
101224.306
101225.644
101227.068
101228.574
101230.158
101231.816
101233.541
101235.334
101237.199
101239.012
101240.872
101242.874
101245.312
101248.507
101251.813
101255.251
101258.133
101259.936
101261.428
101262.906
101264.432
101265.961
101267.284
101269.118
101271.704
101274.155
101276.522
101279.093
101281.333
101283.235
101285.752
101288.559
101291.136
101292.179
101293.537
101296.572
101299.377
101301.765
101303.766
101305.532
101307.213
101309.062
101311.848
101315.586
101318.021
101318.903
101320.418
101323.348
101325.875
101328.318
101330.472
101253.376
101253.382
101253.387
101253.391
101253.394
101253.395
101253.395
101253.394
101253.392
101253.388
101253.382
101253.375
101253.367
101253.357
101253.345
101253.331
101253.315
101253.297
101253.277
101253.254
101253.229
101253.201
101253.17
101253.137
101253.099
101253.059
101253.015
101252.966
101252.914
101252.858
101252.796
101252.731
101252.66
101252.584
101252.502
101252.415
101252.322
101252.223
101252.118
101252.005
101251.887
101251.76
101251.627
101251.485
101251.334
101251.175
101251.005
101250.824
101250.632
101250.426
101250.204
101249.966
101249.708
101249.429
101249.126
101248.797
101248.437
101248.043
101247.61
101247.133
101246.607
101246.026
101245.383
101244.671
101243.885
101243.017
101242.06
101241.009
101239.86
101238.61
101237.248
101235.757
101234.074
101232.155
101230.094
101227.846
101225.337
101222.69
101219.786
101216.309
101253.487
101253.494
101253.501
101253.506
101253.51
101253.513
101253.514
101253.514
101253.513
101253.51
101253.505
101253.499
101253.491
101253.482
101253.471
101253.457
101253.442
101253.424
101253.404
101253.382
101253.357
101253.329
101253.298
101253.264
101253.226
101253.184
101253.139
101253.09
101253.036
101252.978
101252.915
101252.847
101252.774
101252.696
101252.612
101252.522
101252.426
101252.324
101252.215
101252.1
101251.978
101251.848
101251.711
101251.565
101251.411
101251.248
101251.075
101250.892
101250.696
101250.487
101250.264
101250.023
101249.764
101249.484
101249.181
101248.852
101248.492
101248.098
101247.664
101247.182
101246.647
101246.048
101245.378
101244.627
101243.786
101242.844
101241.789
101240.609
101239.272
101237.745
101236.054
101234.241
101232.24
101230.215
101228.228
101226.098
101223.739
101220.744
101217.374
101214.402
101253.796
101253.804
101253.812
101253.819
101253.825
101253.829
101253.832
101253.834
101253.834
101253.833
101253.83
101253.825
101253.819
101253.811
101253.802
101253.79
101253.776
101253.76
101253.742
101253.721
101253.697
101253.67
101253.641
101253.608
101253.571
101253.531
101253.487
101253.438
101253.385
101253.328
101253.266
101253.198
101253.126
101253.048
101252.964
101252.875
101252.78
101252.678
101252.57
101252.455
101252.334
101252.206
101252.07
101251.926
101251.775
101251.614
101251.445
101251.264
101251.072
101250.867
101250.647
101250.411
101250.155
101249.879
101249.579
101249.252
101248.894
101248.502
101248.071
101247.595
101247.069
101246.483
101245.829
101245.093
101244.262
101243.319
101242.24
101241.128
101240.017
101238.701
101237.049
101235.066
101232.822
101230.603
101228.471
101226.111
101222.966
101219.733
101216.155
101211.698
101254.297
101254.307
101254.317
101254.326
101254.333
101254.34
101254.345
101254.349
101254.351
101254.352
101254.352
101254.35
101254.346
101254.341
101254.334
101254.325
101254.314
101254.301
101254.285
101254.267
101254.246
101254.223
101254.196
101254.166
101254.132
101254.095
101254.054
101254.009
101253.96
101253.906
101253.847
101253.784
101253.715
101253.641
101253.562
101253.478
101253.388
101253.292
101253.19
101253.083
101252.969
101252.849
101252.722
101252.589
101252.449
101252.301
101252.145
101251.98
101251.805
101251.619
101251.42
101251.207
101250.979
101250.733
101250.467
101250.177
101249.86
101249.512
101249.126
101248.696
101248.212
101247.664
101247.041
101246.336
101245.548
101244.67
101243.699
101242.488
101240.922
101239.29
101237.885
101236.661
101235.26
101232.985
101229.538
101226.243
101223.946
101221.529
101217.662
101213.011
101254.981
101254.992
101255.004
101255.015
101255.025
101255.033
101255.041
101255.047
101255.052
101255.056
101255.058
101255.059
101255.058
101255.056
101255.052
101255.046
101255.038
101255.028
101255.015
101255.001
101254.983
101254.963
101254.94
101254.914
101254.884
101254.851
101254.814
101254.773
101254.728
101254.679
101254.625
101254.567
101254.504
101254.437
101254.365
101254.288
101254.206
101254.12
101254.028
101253.932
101253.831
101253.726
101253.616
101253.497
101253.373
101253.247
101253.115
101252.975
101252.828
101252.671
101252.504
101252.324
101252.129
101251.916
101251.683
101251.425
101251.139
101250.817
101250.454
101250.068
101249.668
101249.237
101248.769
101248.197
101247.485
101246.675
101245.751
101244.697
101243.474
101242.047
101240.209
101237.797
101235.715
101233.891
101231.894
101229.353
101225.18
101221.287
101218.305
101215.236
101255.834
101255.847
101255.861
101255.874
101255.886
101255.896
101255.906
101255.915
101255.922
101255.929
101255.934
101255.938
101255.94
101255.941
101255.94
101255.937
101255.933
101255.926
101255.918
101255.907
101255.893
101255.877
101255.859
101255.837
101255.81
101255.782
101255.751
101255.715
101255.674
101255.631
101255.585
101255.534
101255.479
101255.421
101255.358
101255.292
101255.223
101255.15
101255.074
101254.995
101254.912
101254.827
101254.739
101254.651
101254.56
101254.465
101254.368
101254.258
101254.135
101254.008
101253.876
101253.739
101253.594
101253.442
101253.281
101253.11
101252.928
101252.73
101252.503
101252.213
101251.846
101251.415
101250.91
101250.39
101249.837
101249.184
101248.415
101247.521
101246.49
101245.308
101243.944
101242.328
101240.148
101237.479
101234.41
101231
101228.428
101225.556
101221.26
101216.842
101256.842
101256.856
101256.871
101256.886
101256.899
101256.911
101256.923
101256.934
101256.944
101256.952
101256.96
101256.966
101256.971
101256.975
101256.977
101256.977
101256.975
101256.972
101256.967
101256.959
101256.949
101256.937
101256.922
101256.903
101256.883
101256.859
101256.832
101256.801
101256.768
101256.731
101256.691
101256.647
101256.603
101256.555
101256.504
101256.451
101256.396
101256.339
101256.281
101256.223
101256.163
101256.103
101256.044
101255.984
101255.924
101255.864
101255.804
101255.75
101255.7
101255.647
101255.59
101255.528
101255.458
101255.38
101255.29
101255.184
101255.061
101254.926
101254.778
101254.605
101254.39
101254.127
101253.808
101253.425
101252.984
101252.463
101251.847
101251.121
101250.267
101249.262
101248.083
101246.693
101245.063
101243.044
101240.603
101237.733
101233.975
101229.642
101226.799
101223.701
101257.984
101257.999
101258.015
101258.03
101258.044
101258.057
101258.07
101258.082
101258.093
101258.103
101258.112
101258.12
101258.127
101258.132
101258.136
101258.139
101258.14
101258.139
101258.136
101258.132
101258.126
101258.117
101258.105
101258.091
101258.074
101258.055
101258.033
101258.008
101257.981
101257.952
101257.921
101257.889
101257.854
101257.819
101257.783
101257.747
101257.711
101257.675
101257.641
101257.608
101257.578
101257.55
101257.526
101257.506
101257.49
101257.478
101257.472
101257.472
101257.474
101257.48
101257.488
101257.496
101257.504
101257.509
101257.509
101257.501
101257.481
101257.445
101257.395
101257.327
101257.233
101257.105
101256.937
101256.721
101256.449
101256.108
101255.685
101255.165
101254.529
101253.754
101252.813
101251.674
101250.292
101248.631
101246.643
101244.239
101241.415
101238.053
101233.561
101229.678
101259.249
101259.262
101259.277
101259.292
101259.305
101259.318
101259.331
101259.343
101259.354
101259.365
101259.374
101259.383
101259.391
101259.397
101259.403
101259.407
101259.41
101259.411
101259.41
101259.408
101259.404
101259.397
101259.388
101259.377
101259.364
101259.348
101259.331
101259.314
101259.295
101259.277
101259.256
101259.235
101259.212
101259.191
101259.17
101259.15
101259.133
101259.118
101259.107
101259.1
101259.098
101259.102
101259.112
101259.129
101259.154
101259.187
101259.228
101259.277
101259.335
101259.4
101259.472
101259.55
101259.634
101259.721
101259.809
101259.898
101259.985
101260.067
101260.141
101260.204
101260.25
101260.273
101260.267
101260.223
101260.133
101259.986
101259.769
101259.468
101259.066
101258.543
101257.873
101257.024
101255.958
101254.627
101253
101251.057
101248.738
101246.022
101242.786
101239.105
101260.6
101260.611
101260.624
101260.636
101260.647
101260.659
101260.669
101260.68
101260.69
101260.699
101260.708
101260.716
101260.723
101260.729
101260.735
101260.739
101260.741
101260.743
101260.743
101260.742
101260.738
101260.733
101260.727
101260.722
101260.716
101260.709
101260.702
101260.694
101260.684
101260.673
101260.663
101260.653
101260.644
101260.637
101260.633
101260.632
101260.636
101260.645
101260.66
101260.681
101260.709
101260.745
101260.791
101260.847
101260.913
101260.992
101261.082
101261.184
101261.298
101261.425
101261.563
101261.713
101261.873
101262.041
101262.218
101262.401
101262.589
101262.779
101262.968
101263.153
101263.331
101263.495
101263.641
101263.761
101263.847
101263.887
101263.871
101263.784
101263.61
101263.33
101262.92
101262.348
101261.577
101260.578
101259.331
101257.793
101255.896
101253.618
101250.808
101247.236
101262.024
101262.031
101262.04
101262.048
101262.056
101262.064
101262.072
101262.08
101262.088
101262.095
101262.102
101262.109
101262.115
101262.121
101262.125
101262.13
101262.134
101262.138
101262.141
101262.144
101262.146
101262.147
101262.148
101262.148
101262.146
101262.143
101262.141
101262.139
101262.137
101262.136
101262.137
101262.142
101262.15
101262.16
101262.173
101262.189
101262.211
101262.237
101262.268
101262.306
101262.352
101262.416
101262.5
101262.595
101262.703
101262.823
101262.958
101263.108
101263.274
101263.456
101263.653
101263.866
101264.093
101264.335
101264.59
101264.857
101265.134
101265.419
101265.711
101266.006
101266.301
101266.593
101266.875
101267.143
101267.387
101267.599
101267.768
101267.881
101267.923
101267.875
101267.717
101267.422
101266.959
101266.32
101265.492
101264.435
101263.108
101261.444
101259.399
101256.74
101263.462
101263.465
101263.468
101263.472
101263.475
101263.479
101263.484
101263.488
101263.492
101263.497
101263.501
101263.506
101263.511
101263.515
101263.52
101263.524
101263.527
101263.531
101263.534
101263.537
101263.539
101263.542
101263.544
101263.546
101263.549
101263.552
101263.556
101263.56
101263.565
101263.574
101263.587
101263.601
101263.62
101263.645
101263.675
101263.714
101263.762
101263.821
101263.892
101263.97
101264.052
101264.133
101264.217
101264.329
101264.468
101264.623
101264.792
101264.979
101265.185
101265.41
101265.653
101265.916
101266.198
101266.497
101266.815
101267.149
101267.497
101267.86
101268.234
101268.618
101269.008
101269.402
101269.794
101270.181
101270.555
101270.908
101271.232
101271.514
101271.741
101271.898
101271.966
101271.923
101271.742
101271.42
101270.954
101270.32
101269.49
101268.398
101267.115
101265.124
101264.876
101264.873
101264.87
101264.868
101264.867
101264.866
101264.866
101264.866
101264.867
101264.869
101264.87
101264.873
101264.875
101264.878
101264.881
101264.885
101264.888
101264.892
101264.897
101264.901
101264.906
101264.911
101264.917
101264.924
101264.932
101264.94
101264.949
101264.962
101264.977
101264.996
101265.017
101265.041
101265.07
101265.104
101265.145
101265.193
101265.25
101265.314
101265.389
101265.482
101265.598
101265.734
101265.887
101266.03
101266.16
101266.305
101266.488
101266.707
101266.945
101267.2
101267.476
101267.773
101268.092
101268.432
101268.792
101269.173
101269.572
101269.988
101270.42
101270.866
101271.323
101271.788
101272.259
101272.729
101273.194
101273.647
101274.078
101274.478
101274.837
101275.139
101275.371
101275.514
101275.546
101275.444
101275.214
101274.856
101274.337
101273.648
101272.804
101271.614
101266.195
101266.187
101266.178
101266.171
101266.164
101266.159
101266.154
101266.151
101266.148
101266.146
101266.145
101266.145
101266.145
101266.147
101266.149
101266.152
101266.156
101266.16
101266.166
101266.172
101266.179
101266.188
101266.198
101266.208
101266.219
101266.232
101266.25
101266.271
101266.292
101266.316
101266.345
101266.378
101266.417
101266.461
101266.513
101266.572
101266.64
101266.717
101266.805
101266.904
101267.014
101267.137
101267.274
101267.442
101267.646
101267.863
101268.064
101268.261
101268.478
101268.74
101269.04