/*--------------------------------*- C++ -*----------------------------------*\
  =========                 |
  \\      /  F ield         | OpenFOAM: The Open Source CFD Toolbox
   \\    /   O peration     | Website:  https://openfoam.org
    \\  /    A nd           | Version:  8
     \\/     M anipulation  |
\*---------------------------------------------------------------------------*/
FoamFile
{
    version     2.0;
    format      ascii;
    class       volScalarField;
    location    "0.006";
    object      p_rgh;
}
// * * * * * * * * * * * * * * * * * * * * * * * * * * * * * * * * * * * * * //

dimensions      [1 -1 -2 0 0 0 0];

internalField   nonuniform List<scalar> 
42400
(
101268.694
101268.673
101268.65
101268.629
101268.61
101268.592
101268.575
101268.559
101268.545
101268.532
101268.521
101268.511
101268.503
101268.496
101268.492
101268.489
101268.487
101268.488
101268.491
101268.495
101268.502
101268.511
101268.521
101268.534
101268.55
101268.568
101268.588
101268.61
101268.635
101268.663
101268.693
101268.726
101268.762
101268.806
101268.859
101268.917
101268.967
101269.003
101269.041
101269.091
101269.155
101269.224
101269.296
101269.373
101269.456
101269.542
101269.633
101269.728
101269.849
101270.004
101270.137
101270.245
101270.387
101270.563
101270.761
101270.967
101271.192
101271.436
101271.696
101271.985
101272.317
101272.688
101273.095
101273.533
101274.005
101274.497
101275.041
101275.613
101276.211
101276.719
101277.514
101278.237
101278.569
101279.951
101283.993
101286.716
101286.728
101286.265
101287.602
101289.636
101268.183
101268.164
101268.142
101268.123
101268.104
101268.087
101268.071
101268.056
101268.042
101268.03
101268.02
101268.011
101268.003
101267.997
101267.993
101267.991
101267.991
101267.992
101267.996
101268.001
101268.009
101268.019
101268.031
101268.045
101268.062
101268.081
101268.102
101268.126
101268.152
101268.18
101268.214
101268.254
101268.299
101268.338
101268.37
101268.403
101268.445
101268.497
101268.551
101268.608
101268.667
101268.73
101268.794
101268.853
101268.923
101269.018
101269.136
101269.224
101269.283
101269.383
101269.513
101269.646
101269.789
101269.943
101270.108
101270.29
101270.497
101270.745
101271.037
101271.361
101271.722
101272.138
101272.625
101273.176
101273.804
101274.461
101275.203
101275.972
101276.854
101277.616
101278.562
101281.163
101284.435
101285.242
101284.562
101285.893
101288.061
101289.64
101291.52
101293.144
101267.516
101267.498
101267.478
101267.46
101267.444
101267.428
101267.414
101267.401
101267.389
101267.378
101267.37
101267.363
101267.357
101267.353
101267.352
101267.352
101267.354
101267.358
101267.364
101267.372
101267.382
101267.395
101267.409
101267.426
101267.446
101267.467
101267.49
101267.518
101267.552
101267.591
101267.627
101267.656
101267.687
101267.725
101267.77
101267.818
101267.866
101267.917
101267.971
101268.023
101268.07
101268.134
101268.233
101268.335
101268.378
101268.413
101268.495
101268.598
101268.698
101268.801
101268.911
101269.029
101269.16
101269.317
101269.505
101269.719
101269.955
101270.22
101270.53
101270.902
101271.338
101271.855
101272.458
101273.163
101273.989
101274.917
101275.9
101276.951
101278.161
101280.735
101282.737
101283.053
101283.573
101284.931
101286.461
101287.954
101289.518
101291.014
101292.837
101294.767
101266.705
101266.69
101266.672
101266.657
101266.642
101266.629
101266.617
101266.607
101266.598
101266.591
101266.585
101266.582
101266.58
101266.58
101266.582
101266.586
101266.592
101266.6
101266.611
101266.623
101266.638
101266.655
101266.674
101266.697
101266.722
101266.752
101266.787
101266.819
101266.847
101266.877
101266.913
101266.955
101266.999
101267.045
101267.092
101267.143
101267.192
101267.236
101267.297
101267.386
101267.452
101267.487
101267.542
101267.623
101267.711
101267.791
101267.873
101267.962
101268.057
101268.166
101268.297
101268.448
101268.616
101268.802
101269.014
101269.26
101269.55
101269.891
101270.283
101270.748
101271.279
101271.936
101272.649
101273.526
101274.366
101275.232
101276.526
101279.03
101281.109
101281.633
101282.495
101284.049
101285.337
101286.95
101288.595
101290.07
101291.723
101293.64
101295.558
101297.201
101265.764
101265.751
101265.737
101265.725
101265.713
101265.704
101265.696
101265.689
101265.684
101265.681
101265.68
101265.681
101265.684
101265.689
101265.696
101265.706
101265.718
101265.732
101265.748
101265.767
101265.787
101265.811
101265.839
101265.87
101265.9
101265.929
101265.959
101265.995
101266.036
101266.079
101266.123
101266.169
101266.218
101266.266
101266.31
101266.368
101266.452
101266.513
101266.548
101266.605
101266.681
101266.756
101266.828
101266.904
101266.985
101267.075
101267.179
101267.297
101267.428
101267.571
101267.734
101267.924
101268.145
101268.402
101268.699
101269.041
101269.429
101269.871
101270.359
101270.931
101271.521
101272.262
101272.834
101273.852
101276.143
101278.381
101279.68
101280.04
101280.644
101282.175
101283.967
101285.576
101287.252
101288.957
101290.754
101292.605
101294.24
101295.687
101297.364
101299.001
101264.687
101264.677
101264.666
101264.657
101264.65
101264.644
101264.64
101264.638
101264.638
101264.641
101264.645
101264.652
101264.661
101264.673
101264.687
101264.702
101264.72
101264.74
101264.765
101264.792
101264.822
101264.853
101264.885
101264.918
101264.956
101264.998
101265.042
101265.087
101265.134
101265.183
101265.232
101265.276
101265.334
101265.414
101265.474
101265.51
101265.567
101265.64
101265.71
101265.779
101265.851
101265.931
101266.018
101266.114
101266.219
101266.333
101266.462
101266.609
101266.782
101266.984
101267.221
101267.497
101267.82
101268.198
101268.635
101269.136
101269.703
101270.35
101271.045
101271.842
101272.69
101273.839
101276.182
101277.821
101278.382
101278.962
101279.862
101281.235
101283.251
101285.056
101286.649
101288.066
101289.393
101290.795
101292.306
101293.699
101295.311
101297.478
101299.857
101301.716
101263.467
101263.46
101263.453
101263.448
101263.446
101263.445
101263.446
101263.448
101263.453
101263.461
101263.471
101263.483
101263.498
101263.517
101263.539
101263.565
101263.594
101263.625
101263.659
101263.695
101263.734
101263.776
101263.82
101263.866
101263.913
101263.963
101264.015
101264.067
101264.115
101264.174
101264.253
101264.314
101264.354
101264.414
101264.488
101264.557
101264.626
101264.7
101264.777
101264.859
101264.946
101265.039
101265.142
101265.258
101265.389
101265.54
101265.716
101265.921
101266.163
101266.447
101266.78
101267.173
101267.633
101268.17
101268.792
101269.505
101270.315
101271.232
101272.243
101273.358
101274.921
101275.905
101276.426
101277.538
101278.962
101280.464
101282.125
101283.903
101285.524
101286.796
101288.159
101289.615
101290.866
101292.268
101293.926
101295.492
101297.312
101299.18
101301.229
101302.904
101262.054
101262.05
101262.048
101262.047
101262.049
101262.054
101262.062
101262.073
101262.087
101262.103
101262.123
101262.146
101262.174
101262.204
101262.236
101262.272
101262.311
101262.352
101262.397
101262.444
101262.494
101262.546
101262.6
101262.657
101262.716
101262.771
101262.836
101262.918
101262.985
101263.034
101263.1
101263.179
101263.253
101263.326
101263.402
101263.481
101263.562
101263.648
101263.739
101263.837
101263.944
101264.064
101264.197
101264.35
101264.526
101264.73
101264.969
101265.25
101265.58
101265.965
101266.413
101266.932
101267.53
101268.215
101268.996
101269.867
101270.844
101271.847
101272.98
101274.203
101275.278
101276.742
101278.027
101279.112
101280.477
101281.872
101283.148
101284.443
101285.755
101287.145
101288.601
101290.101
101291.667
101293.17
101294.991
101297.138
101299.02
101300.651
101302.867
101305.471
101260.423
101260.423
101260.425
101260.43
101260.437
101260.448
101260.461
101260.478
101260.499
101260.523
101260.551
101260.583
101260.619
101260.659
101260.703
101260.75
101260.8
101260.854
101260.912
101260.973
101261.037
101261.103
101261.168
101261.24
101261.328
101261.404
101261.466
101261.543
101261.63
101261.713
101261.796
101261.881
101261.969
101262.058
101262.151
101262.249
101262.352
101262.461
101262.58
101262.711
101262.856
101263.019
101263.205
101263.419
101263.665
101263.95
101264.281
101264.662
101265.1
101265.599
101266.168
101266.828
101267.579
101268.41
101269.287
101270.323
101271.438
101272.564
101273.571
101274.613
101275.863
101276.976
101277.924
101279.304
101280.987
101282.432
101283.611
101285.143
101286.819
101288.319
101290.026
101291.952
101293.97
101296.115
101298.072
101299.898
101302.21
101304.772
101306.905
101308.543
101258.487
101258.491
101258.498
101258.507
101258.521
101258.538
101258.559
101258.584
101258.614
101258.647
101258.686
101258.729
101258.776
101258.828
101258.884
101258.944
101259.009
101259.077
101259.149
101259.221
101259.3
101259.393
101259.477
101259.553
101259.641
101259.738
101259.832
101259.927
101260.024
101260.124
101260.226
101260.332
101260.441
101260.555
101260.676
101260.804
101260.943
101261.095
101261.262
101261.45
101261.661
101261.901
101262.174
101262.485
101262.84
101263.242
101263.693
101264.193
101264.742
101265.332
101265.932
101266.552
101267.287
101268.348
101269.695
101271.005
101272.23
101273.437
101274.771
101276.288
101277.829
101279.501
101281.379
101282.701
101283.725
101285.064
101286.556
101288.126
101290.004
101291.92
101293.426
101294.812
101296.404
101298.098
101299.961
101301.817
101303.616
101305.384
101307.35
101308.95
101256.163
101256.172
101256.185
101256.201
101256.222
101256.247
101256.277
101256.311
101256.351
101256.395
101256.445
101256.5
101256.559
101256.623
101256.693
101256.767
101256.843
101256.926
101257.02
101257.111
101257.197
101257.294
101257.397
101257.501
101257.606
101257.715
101257.826
101257.94
101258.057
101258.179
101258.305
101258.437
101258.577
101258.727
101258.888
101259.064
101259.259
101259.476
101259.72
101259.996
101260.309
101260.664
101261.067
101261.523
101262.038
101262.619
101263.272
101264.002
101264.819
101265.738
101266.75
101268.042
101269.541
101270.578
101271.361
101272.35
101273.525
101274.823
101276.201
101277.485
101278.814
101280.23
101281.591
101283.072
101284.699
101286.391
101287.937
101289.457
101291.305
101293.096
101294.477
101295.838
101297.573
101299.336
101300.922
101302.711
101304.502
101306.538
101308.926
101310.71
101253.367
101253.383
101253.404
101253.429
101253.459
101253.493
101253.533
101253.578
101253.628
101253.685
101253.746
101253.813
101253.885
101253.962
101254.045
101254.138
101254.23
101254.321
101254.422
101254.529
101254.638
101254.75
101254.865
101254.984
101255.106
101255.231
101255.361
101255.496
101255.636
101255.783
101255.94
101256.107
101256.288
101256.485
101256.703
101256.946
101257.219
101257.526
101257.874
101258.267
101258.712
101259.213
101259.775
101260.402
101261.098
101261.868
101262.713
101263.629
101264.605
101265.641
101266.781
101267.794
101268.802
101270.14
101271.458
101272.704
101274.094
101275.417
101276.669
101277.9
101279.211
101280.59
101281.997
101283.449
101284.912
101286.652
101288.464
101290.106
101291.633
101293.232
101295.029
101296.486
101297.961
101299.972
101302.505
101304.798
101307.204
101309.266
101311.091
101313.059
101250.032
101250.056
101250.088
101250.123
101250.164
101250.209
101250.261
101250.318
101250.381
101250.449
101250.523
101250.603
101250.692
101250.783
101250.875
101250.976
101251.083
101251.194
101251.308
101251.426
101251.548
101251.673
101251.803
101251.937
101252.076
101252.22
101252.37
101252.528
101252.696
101252.875
101253.069
101253.281
101253.514
101253.773
101254.062
101254.387
101254.753
101255.165
101255.629
101256.15
101256.732
101257.38
101258.095
101258.879
101259.734
101260.658
101261.654
101262.714
101263.823
101264.986
101266.218
101267.53
101268.786
101269.995
101271.236
101272.546
101273.834
101275.145
101276.472
101277.724
101278.886
101280.063
101281.839
101283.816
101285.425
101287.205
101289.279
101291.511
101293.455
101295.158
101296.896
101298.68
101300.817
101303.2
101304.913
101306.486
101308.416
101310.367
101312.292
101314.204
101246.11
101246.146
101246.19
101246.238
101246.291
101246.35
101246.415
101246.485
101246.561
101246.645
101246.733
101246.825
101246.924
101247.03
101247.14
101247.254
101247.373
101247.496
101247.624
101247.756
101247.893
101248.035
101248.182
101248.336
101248.497
101248.666
101248.847
101249.041
101249.25
101249.479
101249.732
101250.012
101250.324
101250.674
101251.067
101251.509
101252.004
101252.559
101253.177
101253.863
101254.62
101255.451
101256.355
101257.333
101258.378
101259.49
101260.668
101261.927
101263.246
101264.523
101265.618
101266.549
101267.576
101268.738
101270.156
101271.98
101273.997
101275.969
101277.99
101280.031
101282.102
101284.186
101285.623
101286.985
101288.427
101289.89
101291.406
101292.863
101294.547
101296.464
101298.388
101300.492
101302.49
101304.115
101305.964
101307.643
101309.045
101311
101313.12
101315.209
101241.579
101241.628
101241.687
101241.75
101241.818
101241.891
101241.972
101242.057
101242.148
101242.245
101242.349
101242.458
101242.572
101242.692
101242.817
101242.947
101243.082
101243.223
101243.37
101243.522
101243.681
101243.848
101244.024
101244.211
101244.411
101244.626
101244.859
101245.115
101245.396
101245.708
101246.056
101246.443
101246.877
101247.361
101247.901
101248.501
101249.165
101249.897
101250.698
101251.57
101252.513
101253.527
101254.604
101255.752
101256.932
101258.081
101259.174
101260.483
101262.211
101264.087
101266.051
101268.11
101270.302
101272.529
101274.443
101275.733
101277.052
101278.581
101280.138
101281.667
101282.961
101284.187
101285.634
101287.067
101288.766
101290.829
101292.33
101293.501
101295.168
101297.394
101299.502
101301.951
101304.443
101306.171
101307.114
101308.651
101310.873
101312.87
101314.898
101317.17
101236.443
101236.506
101236.582
101236.661
101236.745
101236.835
101236.931
101237.034
101237.142
101237.255
101237.375
101237.501
101237.633
101237.771
101237.914
101238.065
101238.222
101238.387
101238.56
101238.743
101238.937
101239.144
101239.367
101239.608
101239.871
101240.16
101240.478
101240.831
101241.223
101241.66
101242.146
101242.687
101243.287
101243.95
101244.679
101245.476
101246.341
101247.276
101248.276
101249.334
101250.446
101251.618
101252.862
101254.366
101256.328
101258.631
101261.143
101263.14
101264.456
101265.784
101267.317
101268.67
101269.968
101271.36
101272.712
101274.148
101275.797
101277.468
101278.929
101280.422
101282.324
101284.219
101286.135
101288.296
101289.968
101291.29
101293.123
101295.635
101297.819
101299.859
101302.188
101304.651
101306.603
101308.218
101309.941
101311.352
101313.318
101315.961
101318.475
101320.564
101230.721
101230.801
101230.894
101230.991
101231.091
101231.198
101231.311
101231.429
101231.554
101231.685
101231.823
101231.967
101232.118
101232.277
101232.444
101232.62
101232.806
101233.004
101233.216
101233.444
101233.69
101233.959
101234.254
101234.579
101234.938
101235.338
101235.783
101236.279
101236.831
101237.446
101238.126
101238.879
101239.705
101240.609
101241.592
101242.654
101243.795
101245.013
101246.302
101247.645
101249.082
101251.014
101253.208
101254.786
101255.97
101257.233
101258.634
101260.339
101262.254
101263.908
101265.434
101267.293
101269.371
101271.285
101273.243
101275.337
101277.145
101278.6
101280.096
101281.816
101283.651
101285.668
101287.832
101290.216
101292.555
101294.442
101296.357
101298.206
101300.04
101301.94
101303.777
101305.61
101307.694
101310.128
101312.498
101314.784
101316.813
101318.735
101321.76
101323.704
101224.479
101224.574
101224.686
101224.798
101224.915
101225.037
101225.165
101225.299
101225.44
101225.587
101225.742
101225.905
101226.076
101226.258
101226.451
101226.658
101226.88
101227.121
101227.384
101227.671
101227.989
101228.341
101228.733
101229.17
101229.658
101230.204
101230.814
101231.494
101232.249
101233.084
101234.005
101235.012
101236.11
101237.299
101238.577
101239.945
101241.399
101242.933
101244.543
101246.214
101247.949
101249.413
101250.928
101252.856
101254.683
101256.27
101257.74
101259.18
101260.757
101262.525
101264.738
101267.316
101269.463
101271.32
101273.239
101275.182
101277.142
101279.119
101281.063
101282.829
101284.957
101287.298
101289.197
101291.049
101292.965
101294.757
101296.549
101298.567
101301.059
101303.467
101305.739
101307.946
101310.144
101312.557
101314.921
101317.114
101319.124
101321.119
101323.193
101324.611
101217.839
101217.949
101218.077
101218.205
101218.336
101218.471
101218.613
101218.76
101218.915
101219.077
101219.248
101219.429
101219.622
101219.829
101220.052
101220.295
101220.561
101220.854
101221.179
101221.54
101221.943
101222.395
101222.901
101223.468
101224.101
101224.808
101225.593
101226.461
101227.415
101228.458
101229.592
101230.814
101232.124
101233.517
101234.989
101236.53
101238.134
101239.787
101241.515
101243.268
101245.076
101246.805
101248.334
101249.879
101251.469
101253.422
101255.868
101258.374
101261.069
101263.767
101265.946
101267.745
101269.612
101271.506
101273.408
101275.38
101277.393
101279.636
101281.71
101283.294
101284.899
101287.187
101290.318
101292.762
101294.956
101297.079
101299.13
101301.149
101303.091
101305.043
101306.996
101308.978
101310.827
101312.904
101315.764
101318.21
101320.278
101322.34
101324.288
101325.949
101210.996
101211.121
101211.263
101211.404
101211.546
101211.693
101211.846
101212.005
101212.172
101212.348
101212.536
101212.737
101212.954
101213.191
101213.452
101213.74
101214.061
101214.42
101214.822
101215.274
101215.784
101216.356
101216.998
101217.716
101218.515
101219.401
101220.377
101221.446
101222.607
101223.86
101225.203
101226.632
101228.142
101229.727
101231.383
101233.099
101234.873
101236.703
101238.478
101240.295
101242.231
101244.52
101247.489
101250.692
101253.995
101256.911
101259.062
101260.87
101262.613
101264.218
101265.641
101266.933
101268.802
101271.349
101273.742
101276.093
101278.617
101280.925
101282.965
101285.406
101288.036
101290.208
101291.442
101293.312
101296.375
101299.131
101301.476
101303.421
101305.109
101306.748
101308.512
101311.083
101314.502
101316.944
101318.36
101320.22
101322.983
101325.395
101327.69
101329.884
101253.32
101253.325
101253.331
101253.335
101253.337
101253.339
101253.339
101253.338
101253.335
101253.331
101253.326
101253.319
101253.31
101253.3
101253.288
101253.274
101253.259
101253.241
101253.221
101253.198
101253.173
101253.145
101253.114
101253.081
101253.043
101253.003
101252.959
101252.911
101252.859
101252.802
101252.741
101252.676
101252.605
101252.529
101252.448
101252.361
101252.269
101252.17
101252.065
101251.953
101251.834
101251.709
101251.575
101251.434
101251.284
101251.125
101250.956
101250.776
101250.584
101250.379
101250.158
101249.92
101249.664
101249.386
101249.084
101248.755
101248.395
101248.002
101247.569
101247.092
101246.565
101245.981
101245.335
101244.62
101243.828
101242.953
101241.987
101240.923
101239.759
101238.49
101237.107
101235.594
101233.907
101232.02
101229.929
101227.654
101225.155
101222.494
101219.565
101216.017
101253.4
101253.407
101253.413
101253.419
101253.422
101253.425
101253.426
101253.426
101253.425
101253.422
101253.417
101253.411
101253.403
101253.394
101253.383
101253.369
101253.354
101253.336
101253.316
101253.294
101253.269
101253.241
101253.21
101253.176
101253.138
101253.097
101253.052
101253.002
101252.949
101252.891
101252.828
101252.76
101252.687
101252.609
101252.525
101252.436
101252.34
101252.238
101252.13
101252.014
101251.892
101251.763
101251.626
101251.481
101251.328
101251.165
101250.993
101250.81
101250.615
101250.406
101250.183
101249.943
101249.684
101249.405
101249.102
101248.773
101248.413
101248.019
101247.585
101247.104
101246.568
101245.969
101245.297
101244.543
101243.699
101242.752
101241.691
101240.502
101239.159
101237.627
101235.916
101234.069
101232.08
101230.011
101227.908
101225.702
101223.296
101220.334
101216.927
101213.75
101253.676
101253.685
101253.693
101253.7
101253.705
101253.709
101253.712
101253.714
101253.714
101253.713
101253.71
101253.706
101253.699
101253.692
101253.682
101253.67
101253.656
101253.64
101253.622
101253.601
101253.577
101253.55
101253.521
101253.488
101253.451
101253.411
101253.366
101253.318
101253.265
101253.208
101253.146
101253.078
101253.006
101252.928
101252.845
101252.755
101252.66
101252.559
101252.451
101252.336
101252.215
101252.087
101251.951
101251.808
101251.656
101251.496
101251.327
101251.147
101250.955
101250.75
101250.53
101250.294
101250.039
101249.763
101249.462
101249.135
101248.777
101248.384
101247.951
101247.473
101246.943
101246.355
101245.697
101244.958
101244.125
101243.18
101242.101
101240.957
101239.808
101238.515
101236.914
101234.963
101232.699
101230.325
101228.021
101225.582
101222.46
101219.266
101215.799
101211.52
101254.145
101254.155
101254.165
101254.174
101254.181
101254.188
101254.193
101254.196
101254.199
101254.2
101254.2
101254.198
101254.194
101254.189
101254.181
101254.172
101254.161
101254.148
101254.132
101254.114
101254.093
101254.07
101254.043
101254.013
101253.979
101253.942
101253.901
101253.856
101253.806
101253.753
101253.694
101253.63
101253.562
101253.488
101253.409
101253.324
101253.234
101253.139
101253.037
101252.929
101252.815
101252.695
101252.569
101252.435
101252.295
101252.147
101251.992
101251.827
101251.651
101251.465
101251.265
101251.053
101250.824
101250.578
101250.311
101250.021
101249.703
101249.354
101248.968
101248.537
101248.052
101247.502
101246.876
101246.165
101245.368
101244.478
101243.489
101242.296
101240.785
101239.111
101237.6
101236.278
101234.84
101232.705
101229.497
101226.032
101223.416
101220.944
101217.218
101212.564
101254.796
101254.808
101254.82
101254.831
101254.84
101254.849
101254.856
101254.862
101254.867
101254.871
101254.873
101254.874
101254.873
101254.871
101254.867
101254.861
101254.853
101254.842
101254.83
101254.815
101254.798
101254.777
101254.754
101254.728
101254.698
101254.664
101254.627
101254.586
101254.541
101254.492
101254.438
101254.38
101254.317
101254.249
101254.177
101254.1
101254.018
101253.931
101253.84
101253.743
101253.642
101253.536
101253.426
101253.307
101253.184
101253.058
101252.925
101252.785
101252.637
101252.48
101252.312
101252.132
101251.937
101251.724
101251.49
101251.232
101250.944
101250.621
101250.257
101249.862
101249.451
101249.015
101248.545
101247.978
101247.273
101246.461
101245.535
101244.479
101243.253
101241.828
101240.032
101237.708
101235.465
101233.47
101231.475
101229.083
101225.202
101220.944
101217.596
101214.505
101255.617
101255.63
101255.644
101255.657
101255.669
101255.679
101255.689
101255.698
101255.705
101255.712
101255.717
101255.72
101255.723
101255.723
101255.722
101255.72
101255.715
101255.708
101255.7
101255.688
101255.675
101255.658
101255.64
101255.618
101255.591
101255.563
101255.532
101255.495
101255.454
101255.411
101255.364
101255.313
101255.258
101255.199
101255.137
101255.07
101255
101254.927
101254.851
101254.771
101254.688
101254.603
101254.515
101254.426
101254.334
101254.239
101254.14
101254.028
101253.905
101253.777
101253.644
101253.505
101253.36
101253.206
101253.043
101252.87
101252.687
101252.488
101252.26
101251.976
101251.614
101251.179
101250.667
101250.132
101249.566
101248.906
101248.133
101247.232
101246.187
101244.985
101243.6
101241.959
101239.822
101237.167
101234.006
101230.671
101228.086
101225.229
101221.157
101216.716
101256.593
101256.607
101256.622
101256.637
101256.65
101256.663
101256.674
101256.685
101256.695
101256.703
101256.711
101256.717
101256.722
101256.725
101256.727
101256.727
101256.725
101256.722
101256.716
101256.708
101256.698
101256.686
101256.671
101256.652
101256.631
101256.607
101256.58
101256.549
101256.515
101256.478
101256.437
101256.393
101256.348
101256.3
101256.248
101256.195
101256.14
101256.083
101256.024
101255.965
101255.905
101255.844
101255.784
101255.724
101255.663
101255.603
101255.543
101255.489
101255.438
101255.384
101255.326
101255.262
101255.191
101255.111
101255.019
101254.912
101254.786
101254.646
101254.492
101254.315
101254.099
101253.834
101253.511
101253.122
101252.673
101252.144
101251.519
101250.783
101249.915
101248.895
101247.699
101246.29
101244.636
101242.623
101240.189
101237.203
101233.327
101229.159
101225.954
101222.596
101257.704
101257.719
101257.735
101257.75
101257.764
101257.777
101257.79
101257.802
101257.813
101257.823
101257.832
101257.84
101257.846
101257.852
101257.856
101257.858
101257.859
101257.858
101257.855
101257.85
101257.844
101257.835
101257.822
101257.808
101257.791
101257.772
101257.749
101257.724
101257.696
101257.667
101257.635
101257.602
101257.568
101257.532
101257.495
101257.459
101257.422
101257.385
101257.35
101257.317
101257.286
101257.257
101257.233
101257.211
101257.195
101257.183
101257.176
101257.174
101257.176
101257.18
101257.187
101257.194
101257.2
101257.204
101257.203
101257.194
101257.172
101257.134
101257.082
101257.01
101256.912
101256.781
101256.608
101256.386
101256.107
101255.758
101255.325
101254.794
101254.146
101253.357
101252.401
101251.244
101249.844
101248.158
101246.139
101243.709
101240.832
101237.305
101232.887
101228.811
101258.939
101258.953
101258.968
101258.982
101258.996
101259.009
101259.021
101259.033
101259.044
101259.055
101259.064
101259.073
101259.081
101259.087
101259.092
101259.096
101259.099
101259.099
101259.099
101259.096
101259.092
101259.085
101259.076
101259.064
101259.05
101259.034
101259.017
101258.999
101258.98
101258.961
101258.94
101258.918
101258.895
101258.873
101258.851
101258.831
101258.813
101258.798
101258.786
101258.778
101258.776
101258.779
101258.788
101258.804
101258.828
101258.86
101258.901
101258.949
101259.006
101259.07
101259.141
101259.218
101259.301
101259.386
101259.473
101259.561
101259.646
101259.725
101259.797
101259.857
101259.9
101259.919
101259.909
101259.86
101259.764
101259.61
101259.384
101259.074
101258.661
101258.124
101257.437
101256.569
101255.48
101254.123
101252.465
101250.484
101248.124
101245.375
101242.043
101238.34
101260.262
101260.274
101260.286
101260.298
101260.31
101260.321
101260.332
101260.343
101260.352
101260.362
101260.37
101260.378
101260.385
101260.391
101260.396
101260.4
101260.403
101260.404
101260.404
101260.402
101260.398
101260.393
101260.387
101260.381
101260.375
101260.368
101260.36
101260.351
101260.341
101260.329
101260.318
101260.307
101260.298
101260.29
101260.286
101260.285
101260.288
101260.296
101260.31
101260.33
101260.358
101260.393
101260.438
101260.494
101260.56
101260.637
101260.726
101260.828
101260.941
101261.067
101261.205
101261.353
101261.512
101261.68
101261.856
101262.038
101262.224
101262.412
101262.599
101262.783
101262.958
101263.121
101263.264
101263.38
101263.461
101263.496
101263.473
101263.378
101263.195
101262.903
101262.478
101261.889
101261.096
101260.073
101258.798
101257.226
101255.288
101252.947
101250.043
101246.388
101261.66
101261.667
101261.676
101261.684
101261.692
101261.7
101261.708
101261.716
101261.724
101261.731
101261.738
101261.745
101261.751
101261.756
101261.761
101261.765
101261.769
101261.772
101261.775
101261.778
101261.779
101261.781
101261.781
101261.78
101261.778
101261.775
101261.772
101261.769
101261.768
101261.766
101261.766
101261.771
101261.778
101261.787
101261.799
101261.815
101261.836
101261.861
101261.891
101261.928
101261.975
101262.041
101262.124
101262.217
101262.324
101262.444
101262.578
101262.728
101262.893
101263.074
101263.271
101263.483
101263.71
101263.951
101264.206
101264.472
101264.749
101265.033
101265.324
101265.619
101265.914
101266.204
101266.486
101266.751
101266.994
101267.204
101267.369
101267.477
101267.513
101267.458
101267.289
101266.98
101266.501
101265.844
101264.992
101263.906
101262.537
101260.811
101258.678
101255.882
101263.074
101263.077
101263.08
101263.084
101263.087
101263.091
101263.095
101263.1
101263.104
101263.108
101263.113
101263.117
101263.122
101263.126
101263.13
101263.134
101263.138
101263.141
101263.144
101263.146
101263.149
101263.15
101263.152
101263.154
101263.156
101263.159
101263.163
101263.166
101263.171
101263.18
101263.192
101263.206
101263.224
101263.248
101263.279
101263.317
101263.365
101263.424
101263.495
101263.573
101263.652
101263.73
101263.814
101263.925
101264.065
101264.219
101264.389
101264.576
101264.782
101265.006
101265.25
101265.513
101265.795
101266.095
101266.412
101266.746
101267.096
101267.458
101267.833
101268.218
101268.609
101269.004
101269.397
101269.785
101270.16
101270.514
101270.838
101271.119
101271.346
101271.5
101271.564
101271.515
101271.326
101270.995
101270.517
101269.864
101269.006
101267.874
101266.51
101264.416
101264.465
101264.462
101264.459
101264.457
101264.456
101264.455
101264.455
101264.455
101264.456
101264.457
101264.459
101264.461
101264.464
101264.466
101264.469
101264.472
101264.476
101264.48
101264.484
101264.488
101264.492
101264.497
101264.503
101264.509
101264.517
101264.524
101264.533
101264.545
101264.56
101264.578
101264.599
101264.623
101264.651
101264.685
101264.726
101264.773
101264.829
101264.893
101264.968
101265.061
101265.177
101265.312
101265.463
101265.603
101265.733
101265.88
101266.066
101266.285
101266.522
101266.777
101267.054
101267.351
101267.671
101268.012
101268.373
101268.754
101269.155
101269.573
101270.006
101270.454
101270.914
101271.382
101271.855
101272.329
101272.797
101273.254
101273.69
101274.094
101274.457
101274.764
101275
101275.145
101275.179
101275.08
101274.853
101274.497
101273.981
101273.297
101272.434
101271.182
101265.763
101265.755
101265.746
101265.739
101265.732
101265.727
101265.722
101265.719
101265.716
101265.714
101265.713
101265.712
101265.713
101265.714
101265.716
101265.719
101265.722
101265.727
101265.732
101265.738
101265.745
101265.753
101265.763
101265.772
101265.783
101265.795
101265.813
101265.833
101265.854
101265.878
101265.906
101265.939
101265.977
101266.022
101266.073
101266.131
101266.199
101266.275
101266.362
101266.461
101266.571
101266.693
101266.833
101267.004
101267.207
101267.42
101267.617
101267.812
101268.036
101268.302
101268.601
101268.919