/*--------------------------------*- C++ -*----------------------------------*\
  =========                 |
  \\      /  F ield         | OpenFOAM: The Open Source CFD Toolbox
   \\    /   O peration     | Website:  https://openfoam.org
    \\  /    A nd           | Version:  8
     \\/     M anipulation  |
\*---------------------------------------------------------------------------*/
FoamFile
{
    version     2.0;
    format      ascii;
    class       volVectorField;
    location    "0.006";
    object      U;
}
// * * * * * * * * * * * * * * * * * * * * * * * * * * * * * * * * * * * * * //

dimensions      [0 1 -1 0 0 0 0];

internalField   nonuniform List<vector> 
42400
(
(-0.0223230764 0.0213157229 -1.62060855e-26)
(-0.0668207263 0.0620812958 5.29596688e-26)
(-0.112132261 0.101540055 5.4266226e-26)
(-0.158390985 0.139725001 0)
(-0.205636438 0.176701606 0)
(-0.253896304 0.21249153 -7.98991569e-28)
(-0.30317797 0.247096974 0)
(-0.353463522 0.280515264 8.90074998e-28)
(-0.40471252 0.312745393 0)
(-0.456866209 0.343793199 9.91870472e-28)
(-0.509850151 0.373675074 1.04710592e-27)
(-0.563575464 0.402419805 -1.10536593e-27)
(-0.61793911 0.430068676 -2.44313896e-26)
(-0.672823225 0.456673978 -1.93498953e-26)
(-0.728093687 0.482296163 -1.29950337e-27)
(-0.783598084 0.50699995 0)
(-0.83916334 0.530849692 0)
(-0.894593225 0.553904342 0)
(-0.949666038 0.57621236 0)
(-1.00413271 0.597806914 0)
(-1.05771552 0.618701718 0)
(-1.11010756 0.638887769 -3.76742925e-27)
(-1.16097305 0.658331221 4.9002738e-26)
(-1.20994853 0.676972559 1.25265119e-25)
(-1.25664498 0.694727202 7.73995866e-26)
(-1.30065054 0.711487592 -4.63586636e-27)
(-1.34153368 0.727126713 -4.88065473e-27)
(-1.37884668 0.741503575 1.02772468e-26)
(-1.41213109 0.754470896 0)
(-1.44092051 0.765878558 0)
(-1.46474546 0.775572452 -1.73581001e-25)
(-1.48312279 0.783458981 -1.96127058e-25)
(-1.49570283 0.789231609 1.29702138e-26)
(-1.50159178 0.793289287 2.81968132e-25)
(-1.50113507 0.795027897 3.20581686e-25)
(-1.49347516 0.795256447 0)
(-1.47914874 0.793214548 0)
(-1.45516086 0.789918013 0)
(-1.42115384 0.784080423 0)
(-1.3748463 0.776105343 4.06597263e-25)
(-1.31679483 0.765580671 4.85026486e-25)
(-1.24542188 0.753462364 5.28999249e-25)
(-1.15950057 0.739960862 1.19798826e-24)
(-1.05752034 0.725180956 -5.20673046e-26)
(-0.937292117 0.709024564 -6.29574005e-25)
(-0.796422944 0.691181357 -8.00867556e-25)
(-0.632225271 0.671639543 6.2425433e-26)
(-0.445372402 0.650596539 8.84499229e-25)
(-0.229185769 0.628918605 7.59814844e-26)
(0.0176493784 0.609392731 1.29778381e-24)
(0.287797145 0.593205833 4.38935825e-33)
(0.612741513 0.572634631 -2.25024689e-24)
(0.988726035 0.547555162 -1.80355069e-24)
(1.41828589 0.521118943 2.30076619e-25)
(1.90850694 0.494504202 0)
(2.46654303 0.467028999 0)
(3.09582851 0.438672046 0)
(3.8020391 0.409704214 -2.97283406e-25)
(4.59060677 0.379167177 -3.05773328e-25)
(5.46475528 0.346244026 0)
(6.42734342 0.311480243 8.06348441e-24)
(7.47976768 0.275807658 9.03828816e-24)
(8.62559582 0.240331943 -8.24716838e-24)
(9.85089324 0.208386726 -7.76514804e-24)
(11.1432893 0.183741176 0)
(12.4751394 0.164167566 0)
(13.8437821 0.15155487 -6.62465931e-24)
(15.2310008 0.11143005 -6.23234402e-24)
(16.5660707 0.127358159 1.14602722e-25)
(17.7760584 0.262221683 0)
(19.1796 0.0678566404 0)
(20.5302854 -0.301246046 5.30913433e-25)
(21.3921936 0.0905543261 9.9215849e-25)
(22.1482644 0.445009043 0)
(23.0259105 -0.127912799 6.24754996e-25)
(23.3348112 -0.470945925 9.18205137e-24)
(23.4665454 -0.136458262 -1.54173435e-24)
(23.4781865 0.0515140478 -1.46010673e-24)
(23.4192112 0.00996106399 -9.14071414e-24)
(23.3710566 -0.254452703 -6.29317096e-23)
(-0.0299319485 0.026464913 0)
(-0.0890149046 0.0771342697 5.02647284e-26)
(-0.148498391 0.126257871 5.0973189e-26)
(-0.208482522 0.173841295 0)
(-0.268967475 0.219914576 0)
(-0.329915722 0.264449321 4.42775914e-26)
(-0.391251673 0.307386306 4.33997182e-26)
(-0.45286196 0.348653586 1.26988682e-27)
(-0.514604109 0.388177579 0)
(-0.576316461 0.425892733 1.40669829e-27)
(-0.637825687 0.461749184 1.480164e-27)
(-0.698951765 0.495717717 -2.67582315e-26)
(-0.759510831 0.527792135 -4.24229292e-26)
(-0.819316179 0.557989366 -1.67926933e-26)
(-0.878177681 0.586347663 9.21348423e-27)
(-0.935899906 0.612923275 8.49882426e-27)
(-0.99227932 0.637785989 0)
(-1.0471009 0.661013947 4.20767441e-27)
(-1.1001345 0.682688154 0)
(-1.15113134 0.70288702 0)
(-1.19982069 0.721681285 0)
(-1.24590715 0.739129614 4.18602022e-26)
(-1.28906838 0.755275146 1.11140157e-25)
(-1.32895355 0.770143287 7.04547038e-26)
(-1.36518254 0.783740711 0)
(-1.39734588 0.796054841 -1.24169216e-26)
(-1.4249997 0.807054757 -6.48147414e-27)
(-1.44766589 0.816679647 1.35727117e-26)
(-1.46485019 0.824850736 1.41090863e-25)
(-1.47607459 0.831461796 1.64146873e-25)
(-1.48061292 0.836519448 -1.53155318e-26)
(-1.47853197 0.839990401 -1.63588678e-26)
(-1.46902522 0.842316002 2.7786266e-25)
(-1.452425 0.842900785 2.10153492e-25)
(-1.4258009 0.842115483 -2.15105466e-25)
(-1.38850283 0.838863573 -2.55747739e-25)
(-1.33845274 0.833415477 0)
(-1.27615746 0.825708317 2.2602945e-26)
(-1.2000791 0.816334325 0)
(-1.10899957 0.805353503 4.90463592e-26)
(-1.00133332 0.792730398 4.98991403e-25)
(-0.874747179 0.778352419 4.75504551e-25)
(-0.726901058 0.762169322 5.52274882e-26)
(-0.556230988 0.743819248 -5.65206635e-26)
(-0.359821859 0.723476052 1.23811558e-25)
(-0.139466137 0.702625025 -6.70352673e-26)
(0.115411432 0.684121371 6.86074766e-26)
(0.390679337 0.668580303 5.55799758e-25)
(0.722991374 0.647451992 7.94582721e-25)
(1.1057747 0.621328191 0)
(1.54010114 0.594685731 -9.49379716e-26)
(2.03372703 0.568385257 1.90538266e-25)
(2.59087059 0.542032505 1.29151431e-24)
(3.21666097 0.51571648 1.85909224e-24)
(3.91605837 0.489117006 2.33200752e-25)
(4.6935001 0.46147811 4.38465601e-24)
(5.55149434 0.432553707 5.10673707e-24)
(6.49205172 0.402775297 -2.28910666e-25)
(7.51680721 0.373493083 -2.20733279e-25)
(8.62586857 0.34525326 6.93183181e-24)
(9.8166943 0.31670049 6.89006356e-24)
(11.0777657 0.287420507 1.18525976e-25)
(12.3940379 0.259658798 -9.65640991e-26)
(13.7383854 0.238336813 0)
(15.0902582 0.233466133 -7.18276764e-24)
(16.4121974 0.233172454 -1.40945829e-23)
(17.699185 0.248500005 -6.78336496e-24)
(18.9111458 0.254076819 0)
(20.101723 0.215146391 3.13604141e-26)
(21.07541 0.281069654 6.28524307e-25)
(22.0163791 0.354676769 1.12427441e-23)
(22.8359297 0.174175139 1.7519569e-23)
(23.3054438 0.0418925384 -1.10957243e-23)
(23.4048033 0.180126614 2.75055601e-25)
(23.4347316 0.285610459 1.10551331e-26)
(23.4210051 0.300821298 7.47159983e-24)
(23.4072671 0.124880127 1.30419301e-23)
(23.4067462 0.0806472649 -1.58211066e-24)
(23.3919028 0.0911327702 -1.29626165e-23)
(23.3816487 0.0441785927 -1.26980796e-23)
(-0.0374869102 0.0306459486 7.03617031e-27)
(-0.111057082 0.0893940364 5.76345876e-28)
(-0.184598189 0.146430278 -6.14248737e-28)
(-0.258148788 0.201721032 6.3987675e-28)
(-0.331656454 0.255255673 0)
(-0.405000255 0.30695395 -4.0865369e-26)
(-0.478007502 0.356695967 1.39827435e-33)
(-0.550457848 0.404344032 3.59411917e-26)
(-0.622097445 0.449757422 3.27696386e-26)
(-0.692654185 0.492805506 5.82457551e-26)
(-0.761849654 0.533378368 2.68161077e-26)
(-0.829407443 0.571394143 1.93514741e-27)
(-0.895058273 0.606803158 2.03254533e-27)
(-0.95854228 0.639589265 9.42764121e-27)
(-1.0196089 0.669768828 3.14690026e-27)
(-1.07801474 0.697387801 7.0530813e-27)
(-1.13351994 0.722517403 6.22963018e-27)
(-1.18588348 0.745248851 3.84884965e-26)
(-1.23485779 0.765687605 2.79888436e-26)
(-1.28018308 0.783947527 5.70452689e-27)
(-1.32158154 0.800145186 -5.98171921e-27)
(-1.35875162 0.814394349 -6.27132152e-27)
(-1.3913615 0.826800157 0)
(-1.41904146 0.837454563 1.37225659e-26)
(-1.44138558 0.846437149 -9.51866873e-26)
(-1.45796384 0.853798278 6.60246399e-29)
(-1.46833264 0.859551517 1.25592389e-25)
(-1.47189978 0.863788583 1.5527972e-25)
(-1.46854412 0.866606526 1.90012793e-25)
(-1.45763725 0.868324992 -1.80569967e-25)
(-1.43917222 0.868781048 -1.86445081e-26)
(-1.41067614 0.867939302 2.97942427e-25)
(-1.37126553 0.865086496 2.39795018e-25)
(-1.31905179 0.860345946 0)
(-1.2542566 0.85385918 0)
(-1.17537454 0.845959047 -2.33464176e-26)
(-1.08107984 0.836595231 0)
(-0.96975262 0.825700366 5.19490256e-26)
(-0.839168107 0.813177263 3.65670483e-25)
(-0.687139694 0.798914901 1.11001245e-25)
(-0.512204697 0.782236274 -3.47844287e-25)
(-0.310420617 0.763025381 0)
(-0.0803734029 0.744152408 0)
(0.172713829 0.729439301 5.40513546e-25)
(0.453989604 0.714820614 3.71496358e-25)
(0.796698655 0.69322048 7.45745996e-26)
(1.18329869 0.668267986 0)
(1.62024139 0.644244103 0)
(2.11485396 0.620916929 9.17152407e-25)
(2.67063376 0.597627067 9.89550625e-25)
(3.29218417 0.574479577 -9.11026581e-26)
(3.98413394 0.551326501 0)
(4.75020071 0.527888344 -1.2238916e-24)
(5.59304122 0.504592957 -1.71103812e-24)
(6.5147042 0.482890846 -3.80687753e-24)
(7.51571916 0.464174396 -4.10278246e-24)
(8.59394369 0.448894539 -4.77654878e-24)
(9.74582454 0.436045206 -1.7411232e-32)
(10.9643384 0.423866849 1.72360337e-32)
(12.23658 0.412669419 -1.17739306e-23)
(13.5440637 0.402451466 -6.20562736e-24)
(14.8698622 0.393610194 6.55804092e-24)
(16.1878304 0.385336398 6.94069334e-24)
(17.4723301 0.379297849 0)
(18.6904605 0.392791583 7.8818081e-24)
(19.8000249 0.421438794 1.56235066e-23)
(20.8168614 0.437929169 7.77034664e-24)
(21.7022355 0.45648511 0)
(22.4965672 0.422276976 -5.97705709e-26)
(23.1406636 0.382590131 1.3901319e-23)
(23.3862652 0.400680023 8.28946345e-24)
(23.4292305 0.468026032 0)
(23.4147203 0.471130066 0)
(23.4143547 0.444275308 2.25122512e-25)
(23.4226567 0.392703157 -4.8011963e-25)
(23.4290782 0.364160085 9.63195877e-24)
(23.4302451 0.36460631 7.33914713e-24)
(23.4245296 0.310839123 0)
(23.4300944 0.301913533 -1.26653117e-24)
(23.4093763 0.289180988 1.48106094e-23)
(-0.0447676432 0.0337853358 4.37489985e-28)
(-0.132262385 0.0986192604 6.90183169e-28)
(-0.219256019 0.16163781 2.05720355e-26)
(-0.30573481 0.222778132 -1.77790785e-26)
(-0.391522276 0.28196072 -1.81018379e-26)
(-0.476438642 0.339069992 0)
(-0.560200572 0.393936253 -3.09988785e-26)
(-0.642472404 0.446365378 -2.9585662e-26)
(-0.722882289 0.496159773 -2.39111097e-26)
(-0.801041937 0.543134379 -1.95596999e-26)
(-0.876562565 0.587129319 -1.03282172e-26)
(-0.949066091 0.628018841 5.50697592e-34)
(-1.01819198 0.665716635 2.38588609e-27)
(-1.08360032 0.700177981 3.21101942e-33)
(-1.14497165 0.731399207 -2.62759659e-27)
(-1.202004 0.759415022 2.39620211e-26)
(-1.25440789 0.784294287 -3.26450216e-26)
(-1.30189949 0.806134691 -6.03406602e-27)
(-1.34419269 0.825056628 4.56940994e-26)
(-1.38098996 0.84119674 6.61396736e-27)
(-1.4119731 0.85470091 -1.38854499e-26)
(-1.43680183 0.865713122 -7.77180535e-26)
(-1.45511931 0.874368764 -9.12811698e-26)
(-1.46650548 0.880849386 7.79859879e-27)
(-1.47059379 0.885158706 0)
(-1.4671307 0.887691022 8.5674384e-27)
(-1.45566131 0.888754168 0)
(-1.43607196 0.888390352 1.62599093e-25)
(-1.4062121 0.886561156 2.99275365e-25)
(-1.36514253 0.882818911 1.95246027e-25)
(-1.31115214 0.877283366 -2.16868641e-25)
(-1.24422901 0.870198706 -2.68890864e-25)
(-1.16293938 0.861843222 4.725351e-26)
(-1.06593318 0.852198234 2.48335299e-26)
(-0.951593741 0.841237038 -3.02255066e-25)
(-0.817794249 0.82891398 -3.44071314e-25)
(-0.662388516 0.81515827 0)
(-0.483839457 0.799400227 3.81364232e-25)
(-0.278635979 0.781734361 5.13956279e-25)
(-0.0453245501 0.765268915 6.19438086e-26)
(0.207070129 0.751593187 6.4661972e-26)
(0.505283654 0.735030976 0)
(0.846894974 0.714561938 0)
(1.23408085 0.693192934 0)
(1.67196236 0.672465755 8.11042652e-26)
(2.16529434 0.652162962 7.56288564e-25)
(2.71713149 0.631960268 7.29804109e-25)
(3.33207169 0.612217281 0)
(4.01457108 0.592953606 0)
(4.76833451 0.574261713 1.09538828e-24)
(5.59613633 0.557141688 1.20861494e-24)
(6.49970167 0.543059907 1.47218116e-24)
(7.47877284 0.53308937 1.62617615e-24)
(8.53070834 0.527761764 -1.47348601e-25)
(9.65046338 0.527271266 -2.23397964e-24)
(10.8319987 0.53127105 -2.21714964e-24)
(12.0657992 0.539039462 -4.84251066e-24)
(13.3368021 0.550912939 -4.99016755e-24)
(14.6247863 0.566236741 0)
(15.9105031 0.585898248 3.847109e-27)
(17.165184 0.604122275 -6.04563829e-24)
(18.3800468 0.625744517 -1.27633592e-23)
(19.5047369 0.642394666 2.36922532e-26)
(20.5596522 0.656019497 4.71489347e-26)
(21.4852145 0.670851351 -6.69388385e-24)
(22.2695 0.705509382 7.36951312e-24)
(22.8809545 0.729884278 1.12192855e-23)
(23.340396 0.732670175 -3.40449561e-25)
(23.4914732 0.752298338 -6.78799873e-24)
(23.4796692 0.738170676 -5.88267093e-24)
(23.4616625 0.743323686 2.68342949e-26)
(23.4294953 0.695402154 -1.08268465e-23)
(23.4293689 0.644114566 -6.45534438e-24)
(23.4311948 0.607155226 0)
(23.4375466 0.536681412 -9.13803439e-24)
(23.4484574 0.486658496 -2.43026384e-23)
(23.4482592 0.452719318 1.14648805e-24)
(23.4441746 0.425653984 9.09205537e-24)
(23.4933509 0.345314515 1.14023655e-23)
(23.4811299 0.324614508 9.51550627e-24)
(-0.05149154 0.0358010057 5.63680711e-27)
(-0.151758876 0.10453953 0)
(-0.250985438 0.171398495 0)
(-0.349076847 0.236289548 4.65453913e-30)
(-0.445809311 0.299110535 0)
(-0.540834414 0.359677247 0)
(-0.633788072 0.417785586 0)
(-0.724208567 0.473202652 -4.29361479e-27)
(-0.811600766 0.525687879 0)
(-0.895455534 0.57501538 2.36765005e-27)
(-0.975268512 0.620988423 4.6814019e-27)
(-1.05055351 0.66344923 3.26422032e-33)
(-1.12085032 0.702284958 -1.08648683e-26)
(-1.1857278 0.73743036 0)
(-1.24478274 0.768867542 -3.00219789e-27)
(-1.29763577 0.796623301 6.30238795e-27)
(-1.34392113 0.820761589 0)
(-1.38328024 0.841374922 5.83001814e-26)
(-1.4153597 0.858576849 7.25681746e-27)
(-1.43980628 0.872490029 -1.49625911e-25)
(-1.4562454 0.883258938 -1.00424096e-25)
(-1.46440021 0.891117634 8.16500889e-27)
(-1.4639632 0.896371539 0)
(-1.45463792 0.89939081 -1.46060512e-25)
(-1.43617318 0.900505549 -1.46933918e-25)
(-1.40668583 0.899411754 -1.41118695e-25)
(-1.36522874 0.895978968 -1.72009368e-25)
(-1.31032083 0.890395345 2.0582054e-25)
(-1.24188347 0.883021407 2.19453294e-25)
(-1.15860773 0.874160166 0)
(-1.05919544 0.8638848 -2.50233906e-25)
(-0.942106726 0.852261379 -2.7020347e-25)
(-0.805366496 0.839345 2.66126174e-26)
(-0.646929168 0.825154959 -2.49636785e-25)
(-0.465205807 0.809236894 -3.15021446e-25)
(-0.257008035 0.791694204 -6.08318034e-26)
(-0.0204526186 0.775315761 3.13207265e-26)
(0.235139932 0.761499514 -3.14668649e-25)
(0.537099647 0.745050534 -3.14841188e-25)
(0.880028315 0.725657566 5.07867139e-25)
(1.26748758 0.706172725 1.17142465e-24)
(1.70380254 0.68747796 6.27825603e-25)
(2.1925706 0.669330861 0)
(2.73775178 0.651810371 -8.35843012e-26)
(3.3436218 0.635135614 -6.96767555e-25)
(4.01432489 0.619547273 -8.88824833e-26)
(4.75360296 0.605757753 1.70871915e-32)
(5.56408905 0.594834519 -9.70346553e-25)
(6.44703424 0.58770006 0)
(7.40188823 0.584963944 -8.16807214e-26)
(8.42614961 0.587007016 -1.66976053e-24)
(9.51546382 0.594254452 -1.77229808e-24)
(10.6637141 0.607221577 -2.2679611e-25)
(11.8631069 0.62607031 -2.42025863e-24)
(13.1024715 0.650633079 -2.31956176e-24)
(14.363904 0.681820652 -2.39587363e-24)
(15.6260541 0.719414142 -7.39404414e-24)
(16.8680565 0.763190934 -5.06837771e-24)
(18.0632129 0.80856757 -5.23082858e-24)
(19.1964323 0.859244133 -5.38761445e-24)
(20.2329156 0.900365577 0)
(21.1952956 0.944294872 1.52818016e-25)
(21.9935102 0.96521645 -5.35360891e-24)
(22.7609299 0.980167658 -1.05084843e-23)
(23.2403686 0.976065832 -6.4983192e-26)
(23.5115399 0.984850396 0)
(23.5737049 1.0249712 7.06542581e-24)
(23.5786701 1.03864978 2.24202969e-24)
(23.5258845 1.06048969 2.96427357e-25)
(23.4841265 1.07570694 -3.77798144e-25)
(23.4739812 1.02637232 -4.34635576e-26)
(23.4760354 0.994987301 -1.13573575e-24)
(23.4736719 0.960329679 -7.21118056e-24)
(23.4698885 0.915048038 -1.05625818e-23)
(23.4731942 0.865286204 -3.33561224e-25)
(23.4927116 0.786101488 0)
(23.5015677 0.725170186 -6.07382261e-24)
(23.512225 0.662642515 -1.13287855e-23)
(23.554596 0.598387365 0)
(23.5732659 0.532554645 -8.70055498e-24)
(-0.0574212571 0.0366874881 -7.90371881e-27)
(-0.168808515 0.107105559 -1.16225357e-26)
(-0.278517519 0.175588821 -1.30076514e-26)
(-0.386367578 0.242032671 -9.99391714e-28)
(-0.492045028 0.306311901 8.73918903e-27)
(-0.595116253 0.368219532 -2.20605021e-27)
(-0.695012716 0.427503657 -1.90970947e-27)
(-0.791216033 0.48390929 -3.69266531e-27)
(-0.883090787 0.537182171 2.56830337e-27)
(-0.969995981 0.587071749 5.39313746e-27)
(-1.0513021 0.63335907 -6.08772222e-27)
(-1.12640251 0.675865633 -3.87828001e-26)
(-1.19471893 0.714456006 -3.44838951e-26)
(-1.25570691 0.749041999 -4.03471702e-26)
(-1.30885525 0.779584554 3.43140606e-27)
(-1.35370046 0.806062473 6.72674449e-26)
(-1.38977621 0.828608543 0)
(-1.41674543 0.847344917 0)
(-1.43426602 0.862496518 1.02056467e-25)
(-1.44201026 0.874361329 2.41696237e-25)
(-1.43973081 0.883207781 1.25665603e-25)
(-1.42609427 0.88892368 1.33416509e-25)
(-1.40034769 0.891560073 2.95922201e-33)
(-1.36153873 0.891201872 -1.70767399e-25)
(-1.30838213 0.888062586 1.75740804e-25)
(-1.24082073 0.88263989 4.11885704e-25)
(-1.15767231 0.875223427 2.07749009e-25)
(-1.05771363 0.865954611 -1.21173371e-26)
(-0.939509152 0.854981074 1.27048937e-26)
(-0.801258148 0.842455865 -2.65036745e-26)
(-0.641059728 0.828497107 0)
(-0.457344107 0.812795169 3.18462088e-25)
(-0.247271388 0.795516915 -3.0161502e-26)
(-0.00882226454 0.779178323 -4.10882659e-25)
(0.249167103 0.765068491 0)
(0.552452303 0.748669084 -3.28936295e-25)
(0.895337444 0.729995871 -3.89657824e-25)
(1.28088767 0.71170331 0)
(1.71340752 0.69446821 0)
(2.19620146 0.678100406 -4.62263932e-25)
(2.73309474 0.662823586 -5.53417827e-25)
(3.32823253 0.649062141 1.71240962e-25)
(3.98552098 0.637491214 0)
(4.70840593 0.628781459 6.92327303e-25)
(5.49916767 0.623623233 1.64420734e-24)
(6.35883672 0.622664652 8.82879023e-25)
(7.28696187 0.626434051 8.84212229e-26)
(8.28147983 0.63542609 -3.17440702e-27)
(9.33855737 0.650164514 0)
(10.4522686 0.67105497 -1.84353332e-24)
(11.6149863 0.698263675 -1.22656478e-25)
(12.8169822 0.731551415 2.33257623e-24)
(14.047314 0.769867463 -5.36146799e-26)
(15.2873658 0.813498228 -2.60335147e-24)
(16.5154648 0.862376637 -5.42538273e-24)
(17.708532 0.91654307 5.34748495e-33)
(18.8413213 0.973838196 2.93294039e-24)
(19.8944346 1.03461985 0)
(20.8409398 1.08950201 0)
(21.6838626 1.14182811 1.72427607e-25)
(22.3844176 1.17900197 2.34294701e-25)
(22.9986176 1.18983578 0)
(23.4136773 1.21142077 1.20782476e-23)
(23.4998723 1.2179445 7.92646977e-24)
(23.5409559 1.24789431 -3.25771821e-24)
(23.5680296 1.2097759 -1.11718187e-23)
(23.5702434 1.16680002 -9.47782098e-24)
(23.5647026 1.16200061 -8.00170373e-24)
(23.5123347 1.16473177 -1.15992796e-23)
(23.4904518 1.14995958 -1.45754791e-24)
(23.4918193 1.14900843 7.313213e-24)
(23.4928165 1.10465756 9.07698875e-24)
(23.4951663 1.09128522 -6.57097826e-24)
(23.4870324 1.05566452 -9.81315493e-24)
(23.4947272 1.03507996 -6.89042841e-24)
(23.5215139 0.973896427 -9.65515458e-24)
(23.5486222 0.945264198 -1.12826417e-23)
(23.5499234 0.914865154 7.63470271e-32)
(23.6326572 0.840906373 2.51294443e-23)
(23.6402465 0.750433571 2.61830163e-23)
(-0.0624526228 0.0365475769 2.70055616e-27)
(-0.183010417 0.106573478 1.03415444e-27)
(-0.301064747 0.174567846 6.05604675e-27)
(-0.416343487 0.240420493 -1.7943314e-33)
(-0.528432493 0.303996652 -2.36285085e-27)
(-0.636802018 0.365098 -2.53796153e-27)
(-0.740834322 0.423467432 4.61778051e-27)
(-0.839748418 0.478816515 2.41939404e-27)
(-0.932795082 0.530861595 9.32793213e-27)
(-1.01919493 0.579384073 1.38870537e-26)
(-1.09825469 0.624105262 1.76846138e-26)
(-1.1692195 0.664935177 1.85103793e-26)
(-1.23145967 0.701744893 2.76598537e-26)
(-1.28437348 0.734525306 3.83502824e-26)
(-1.32731024 0.763216022 3.87463758e-27)
(-1.35957218 0.787837436 4.03638048e-27)
(-1.3805845 0.808406563 1.12857466e-25)
(-1.38965628 0.825027749 1.24729016e-25)
(-1.38605582 0.837791142 -9.19176335e-27)
(-1.36897933 0.846780963 -9.69474416e-27)
(-1.33738472 0.852158937 1.58504726e-25)
(-1.29108662 0.854417877 1.74246415e-25)
(-1.22913505 0.853795674 0)
(-1.15050011 0.85049099 1.15641477e-26)
(-1.05403975 0.844699442 0)
(-0.938434921 0.836640843 0)
(-0.80206952 0.82655275 1.31706482e-26)
(-0.64321211 0.814640444 -2.81596808e-25)
(-0.460345507 0.800743767 -2.66354439e-25)
(-0.250962034 0.785102749 3.43037941e-25)
(-0.0131016645 0.769988249 3.80758707e-25)
(0.245095653 0.756559757 3.11941079e-26)
(0.547266329 0.741068798 -3.32191921e-26)
(0.887884785 0.723720562 0)
(1.26962088 0.707007365 3.70331031e-26)
(1.69664036 0.691551783 0)
(2.17202867 0.677311696 0)
(2.69942999 0.664776199 4.12711935e-26)
(3.28268957 0.654506842 0)
(3.92528749 0.647086625 0)
(4.63029944 0.643095053 6.51070615e-25)
(5.39986501 0.643155897 8.09055695e-25)
(6.23507233 0.647911618 0)
(7.13581828 0.658032713 0)
(8.10048977 0.674173946 0)
(9.12567419 0.696899769 8.96628645e-26)
(10.2059085 0.726609456 8.21128088e-26)
(11.3335714 0.763433373 1.62034394e-24)
(12.4990568 0.807211008 1.98575942e-24)
(13.6905246 0.857398095 2.31354616e-24)
(14.8971392 0.911803906 2.48644362e-24)
(16.1008816 0.969419999 2.6173666e-24)
(17.2807184 1.02911324 2.80926498e-24)
(18.4142964 1.0896379 0)
(19.4784334 1.14946765 0)
(20.450927 1.20755255 -3.3777999e-24)
(21.3111822 1.2619684 -7.19600366e-24)
(22.0446611 1.3122575 -3.85009592e-24)
(22.6388115 1.34992065 -4.04099012e-24)
(23.1085366 1.36762698 -4.5324731e-24)
(23.4525159 1.38643482 9.20759919e-24)
(23.5164352 1.39515789 1.15401798e-23)
(23.5203991 1.42212562 1.26019648e-25)
(23.520369 1.42447753 -6.92318599e-24)
(23.5185807 1.40104382 1.08530048e-25)
(23.5144831 1.39129165 -3.77152444e-25)
(23.5187491 1.35022464 1.01659341e-23)
(23.526371 1.31605141 -4.55550786e-32)
(23.5053431 1.2839744 -8.98869619e-24)
(23.4856844 1.25455421 -3.68902026e-25)
(23.4743733 1.24582359 1.04763492e-23)
(23.4761782 1.21864559 9.72968456e-24)
(23.4768299 1.17014663 0)
(23.4768673 1.16364534 3.21682562e-25)
(23.4867044 1.11886636 0)
(23.5242206 1.08009244 1.04192184e-23)
(23.5563001 1.04445562 2.25946025e-23)
(23.5697395 0.998846551 1.19382172e-23)
(23.6516321 0.972274691 1.04201894e-23)
(23.646165 0.892491888 3.17832843e-23)
(-0.0664034568 0.0354517478 1.35916205e-27)
(-0.193774014 0.103151617 3.68622458e-27)
(-0.31757897 0.168683002 -1.25701421e-27)
(-0.437452557 0.231941609 1.02611637e-27)
(-0.552879429 0.292790959 4.4340044e-27)
(-0.663207291 0.351047858 7.08303536e-27)
(-0.767678758 0.406459436 -3.0747811e-27)
(-0.865437385 0.458775826 -2.10170144e-26)
(-0.955584563 0.507736634 -2.57662886e-26)
(-1.03721967 0.553068916 -3.10549963e-26)
(-1.10937382 0.594629421 0)
(-1.17119287 0.632178535 -7.82212339e-27)
(-1.2217719 0.665626332 4.10962956e-27)
(-1.26024307 0.694873627 0)
(-1.28583824 0.719972406 0)
(-1.29785127 0.741015711 0)
(-1.29548468 0.758100634 0)
(-1.27796419 0.771325996 -5.17044964e-27)
(-1.24435044 0.780896475 0)
(-1.19377325 0.786955396 -1.09452554e-25)
(-1.12524006 0.789714523 -1.17873607e-25)
(-1.03765881 0.789407767 2.17152712e-25)
(-0.929779068 0.786303909 2.46748022e-25)
(-0.800152497 0.780674647 -2.48344526e-25)
(-0.647204229 0.772784675 -2.79026737e-25)
(-0.469473017 0.762615864 -2.88516575e-25)
(-0.26476874 0.75046621 -3.48946933e-25)
(-0.0312625794 0.738321678 -4.04060519e-25)
(0.224011724 0.727150636 -5.94596744e-25)
(0.521829968 0.714132802 -3.09868529e-25)
(0.857303485 0.699553875 0)
(1.23290793 0.685689499 -3.74453479e-26)
(1.65240802 0.673197396 -3.85890645e-26)
(2.11864447 0.662169011 0)
(2.63494548 0.653145172 4.11458977e-26)
(3.20479295 0.64672424 0)
(3.83135034 0.643517948 0)
(4.51744646 0.644147603 6.32426679e-25)
(5.2652227 0.649316146 -4.70145256e-26)
(6.07590647 0.659784072 -7.07143238e-25)
(6.94963507 0.676289904 8.37110748e-25)
(7.88517915 0.699511585 8.90331393e-25)
(8.87966687 0.730031815 4.74645213e-26)
(9.92832931 0.76828813 0)
(11.024296 0.814518249 1.26824411e-24)
(12.1584604 0.86869207 1.66343891e-24)
(13.3194603 0.930414863 0)
(14.4942183 0.998802032 0)
(15.6691141 1.07193661 -2.45846854e-24)
(16.8278814 1.14752811 -2.59929641e-24)
(17.9503535 1.22377202 2.71737332e-24)
(19.0154824 1.2986418 2.8971716e-24)
(20.0018799 1.36923308 -3.10682658e-24)
(20.8913168 1.43308501 2.50089759e-33)
(21.6670845 1.48858261 3.53576437e-24)
(22.3139233 1.53325379 1.84344583e-26)
(22.8289294 1.57077531 0)
(23.1940017 1.59352678 8.09612608e-26)
(23.4598197 1.60419995 -4.20680502e-24)
(23.5547167 1.61970775 1.01667111e-25)
(23.5427877 1.61469419 3.33791282e-24)
(23.5158479 1.62490455 0)
(23.5144811 1.57021655 1.4526987e-25)
(23.5242802 1.55543311 0)
(23.5252203 1.52981503 1.67955057e-25)
(23.5254239 1.50848733 -1.06902226e-25)
(23.5178118 1.48976394 -2.19368213e-25)
(23.5091774 1.47250416 -1.00917812e-23)
(23.5004714 1.44847249 -1.06178807e-23)
(23.4964879 1.4439246 -2.26135699e-25)
(23.4968932 1.41736745 -7.29243018e-24)
(23.5089778 1.40961281 -9.88081336e-24)
(23.519654 1.389137 -9.79657194e-24)
(23.5265757 1.36264434 -1.05427468e-23)
(23.5764321 1.36059288 -1.14142072e-23)
(23.6212231 1.31771517 -1.20078445e-23)
(23.6551132 1.29147829 1.09543324e-23)
(23.6932402 1.25467747 1.10679572e-23)
(23.8013727 1.22874999 -1.76363548e-24)
(23.7998766 1.17542716 1.26858937e-24)
(-0.0692027029 0.0335339947 2.77498605e-30)
(-0.200796134 0.0972120806 -3.27016073e-28)
(-0.327428818 0.158516996 -1.47393272e-27)
(-0.448630283 0.217366863 -1.51523463e-33)
(-0.563766244 0.273642417 1.20571956e-26)
(-0.672057692 0.327158043 -1.71754685e-27)
(-0.772584695 0.377716692 2.13973483e-26)
(-0.864349044 0.425080792 2.87954774e-33)
(-0.946295591 0.469026758 -6.26290347e-26)
(-1.01735087 0.509353439 -4.00259389e-26)
(-1.07645 0.545896662 4.41852537e-27)
(-1.12254769 0.578536164 -5.93784756e-26)
(-1.15461915 0.607198885 -5.79176244e-26)
(-1.17166273 0.631861704 -7.13746025e-26)
(-1.1726798 0.652572403 -7.99384853e-26)
(-1.15673162 0.669362514 8.8283071e-26)
(-1.12271799 0.682435566 9.7626113e-26)
(-1.06962391 0.691907849 -6.05676754e-27)
(-0.996311563 0.69800828 0)
(-0.901562664 0.700976788 -1.20036476e-25)
(-0.784016003 0.701078311 -1.35729121e-25)
(-0.642195783 0.698597286 -1.45415143e-26)
(-0.474669018 0.693639444 1.51643758e-25)
(-0.279833668 0.686577945 1.97526935e-25)
(-0.0549959398 0.678886275 -3.2399183e-26)
(0.193278331 0.671472799 0)
(0.482662488 0.662452996 1.79060656e-26)
(0.809262004 0.652103121 2.55827517e-28)
(1.17537478 0.642411166 -4.65130099e-25)
(1.58428901 0.634040214 -4.47489848e-25)
(2.03863531 0.627195814 4.64934606e-25)
(2.54143733 0.622467996 4.24803749e-25)
(3.09584367 0.620507581 -9.02842601e-26)
(3.70476175 0.62199857 -5.01401693e-25)
(4.37081998 0.627647446 -3.42533985e-32)
(5.0961051 0.6381993 6.26574774e-25)
(5.88188976 0.654433827 -7.27723559e-25)
(6.72850199 0.67710294 -7.39288236e-25)
(7.63507449 0.706894467 -1.01682202e-25)
(8.59930054 0.744405294 5.11718458e-26)
(9.61718812 0.790101155 4.92336588e-26)
(10.6828324 0.844267388 -1.17366023e-24)
(11.7882357 0.906956497 -2.64630286e-24)
(12.9232001 0.977934614 -1.55031591e-24)
(14.0753437 1.05663159 -1.86816765e-24)
(15.2302965 1.14210573 -2.06552772e-24)
(16.3720195 1.23306917 0)
(17.485203 1.32675114 2.45454479e-24)
(18.5504503 1.42107375 2.61223398e-24)
(19.5477446 1.51330709 2.77608193e-24)
(20.4590009 1.60020982 6.0032873e-24)
(21.2685032 1.68059094 6.50170387e-24)
(21.961067 1.74979847 6.90482142e-24)
(22.5347423 1.80979709 7.10325096e-24)
(22.9787113 1.85065886 3.81488153e-24)
(23.3063348 1.88974349 -1.15945874e-25)
(23.4994858 1.89487948 0)
(23.6026592 1.90659942 -3.96423669e-24)
(23.6039653 1.89695501 -2.69562166e-24)
(23.5798645 1.89781696 0)
(23.5665791 1.88681532 -4.51659833e-24)
(23.564787 1.86008303 -3.03190719e-24)
(23.574143 1.85492941 0)
(23.5868902 1.84240327 -1.57094774e-25)
(23.6069694 1.83028926 0)
(23.6123391 1.80643747 -6.5254606e-24)
(23.6176398 1.79419175 -4.92919584e-25)
(23.6352915 1.80244023 9.92592678e-24)
(23.6347358 1.78702521 -4.64967021e-25)
(23.6437688 1.77332858 -4.8352012e-25)
(23.6633949 1.77020378 -9.94081941e-24)
(23.6808442 1.7543899 -1.01084563e-23)
(23.6825859 1.74528391 -5.65507664e-25)
(23.6973209 1.73294858 -5.94318083e-25)
(23.718675 1.67873796 -5.65483743e-26)
(23.7753606 1.62692902 -6.85762111e-25)
(23.8059147 1.61105294 1.33450894e-23)
(23.8101338 1.57448791 3.20328619e-23)
(23.8282101 1.51995297 1.09010489e-23)
(23.8224576 1.4504382 -1.07600734e-24)
(-0.0708253933 0.0309606045 0)
(-0.203849051 0.0892559492 -1.67168679e-27)
(-0.330026764 0.144920698 1.76354349e-27)
(-0.448780296 0.197908355 -1.68079441e-26)
(-0.559356016 0.248129559 1.95625593e-27)
(-0.660836397 0.29545012 2.05904397e-27)
(-0.752166987 0.339704606 -3.23638674e-26)
(-0.832195737 0.380716109 0)
(-0.899713442 0.418316563 4.75930015e-27)
(-0.953487659 0.452363663 -5.50358681e-26)
(-0.992285377 0.48275316 -5.84790098e-26)
(-1.01488523 0.509429054 7.31648032e-26)
(-1.02007137 0.532404023 5.80634232e-27)
(-1.00668239 0.551664593 -1.77629695e-25)
(-0.973435342 0.567392466 -2.04424512e-25)
(-0.9191312 0.579671434 -1.06432506e-25)
(-0.842476812 0.588716278 -7.01719928e-27)
(-0.742112561 0.594766844 -1.34458154e-25)
(-0.61660828 0.598101434 -1.34498704e-25)
(-0.464573134 0.598895163 7.92749007e-27)
(-0.284299791 0.597478799 -8.40949343e-27)
(-0.0735613363 0.595021872 -3.44807871e-26)
(0.163081624 0.592174782 -1.75046549e-25)
(0.439731833 0.587922126 -3.73341164e-25)
(0.752743806 0.582691883 -2.15721019e-25)
(1.10523588 0.577969058 -2.09282958e-26)
(1.49975685 0.574444135 -1.90730581e-25)
(1.93875241 0.572449145 2.23337524e-26)
(2.42496191 0.572616555 -2.32955622e-26)
(2.96121918 0.57563631 -2.46726759e-25)
(3.55017077 0.582228822 0)
(4.19422819 0.593132472 -6.34144706e-25)
(4.89539116 0.609102964 -5.35227669e-26)
(5.65494583 0.630921905 7.46823869e-25)
(6.47337742 0.659344583 8.03613056e-25)
(7.35014334 0.695064413 8.71465573e-25)
(8.28344426 0.738684855 -5.67536307e-26)
(9.26999259 0.790683739 0)
(10.304791 0.851369404 -1.12958241e-25)
(11.3809454 0.920833745 -1.26632095e-24)
(12.4895351 0.998905072 -1.43679759e-24)