/*--------------------------------*- C++ -*----------------------------------*\
  =========                 |
  \\      /  F ield         | OpenFOAM: The Open Source CFD Toolbox
   \\    /   O peration     | Website:  https://openfoam.org
    \\  /    A nd           | Version:  8
     \\/     M anipulation  |
\*---------------------------------------------------------------------------*/
FoamFile
{
    version     2.0;
    format      ascii;
    class       volScalarField;
    location    "0.005";
    object      p_rgh;
}
// * * * * * * * * * * * * * * * * * * * * * * * * * * * * * * * * * * * * * //

dimensions      [1 -1 -2 0 0 0 0];

internalField   nonuniform List<scalar> 
42400
(
101305.845
101305.815
101305.782
101305.751
101305.721
101305.692
101305.663
101305.635
101305.608
101305.582
101305.557
101305.532
101305.509
101305.486
101305.465
101305.444
101305.424
101305.405
101305.388
101305.371
101305.355
101305.34
101305.327
101305.315
101305.305
101305.296
101305.288
101305.282
101305.278
101305.276
101305.275
101305.276
101305.282
101305.298
101305.32
101305.33
101305.322
101305.315
101305.318
101305.332
101305.347
101305.362
101305.375
101305.389
101305.404
101305.415
101305.415
101305.439
101305.489
101305.567
101305.599
101305.575
101305.596
101305.655
101305.717
101305.78
101305.846
101305.916
101305.998
101306.103
101306.237
101306.399
101306.589
101306.803
101307.047
101307.334
101307.719
101308.157
101308.497
101309.137
101309.533
101309.678
101311.048
101314.742
101316.539
101316.059
101316.027
101317.591
101319.565
101320.93
101305.061
101305.032
101305
101304.97
101304.941
101304.913
101304.886
101304.859
101304.834
101304.81
101304.787
101304.766
101304.745
101304.726
101304.708
101304.692
101304.676
101304.663
101304.65
101304.639
101304.63
101304.622
101304.617
101304.613
101304.611
101304.611
101304.613
101304.617
101304.623
101304.634
101304.654
101304.681
101304.698
101304.703
101304.708
101304.724
101304.75
101304.776
101304.803
101304.83
101304.858
101304.886
101304.911
101304.925
101304.963
101305.046
101305.088
101305.071
101305.078
101305.118
101305.182
101305.235
101305.281
101305.327
101305.376
101305.435
101305.52
101305.632
101305.756
101305.893
101306.058
101306.256
101306.502
101306.788
101307.143
101307.551
101308.063
101308.637
101308.943
101309.591
101312.039
101314.445
101314.592
101313.893
101315.357
101317.249
101318.399
101319.996
101321.538
101322.65
101304.13
101304.103
101304.073
101304.045
101304.018
101303.993
101303.969
101303.946
101303.924
101303.904
101303.885
101303.868
101303.853
101303.839
101303.828
101303.817
101303.809
101303.803
101303.798
101303.796
101303.796
101303.798
101303.802
101303.809
101303.817
101303.828
101303.845
101303.869
101303.898
101303.925
101303.944
101303.96
101303.985
101304.02
101304.058
101304.096
101304.136
101304.178
101304.22
101304.259
101304.288
101304.338
101304.429
101304.479
101304.479
101304.511
101304.573
101304.631
101304.681
101304.726
101304.772
101304.821
101304.883
101304.965
101305.057
101305.153
101305.255
101305.383
101305.549
101305.75
101305.997
101306.28
101306.628
101306.979
101307.416
101307.796
101308.329
101309.716
101312.069
101313.528
101313.714
101313.994
101315.079
101316.278
101317.494
101318.377
101319.307
101320.537
101322.066
101323.607
101303.031
101303.006
101302.98
101302.955
101302.932
101302.911
101302.891
101302.873
101302.856
101302.842
101302.83
101302.819
101302.811
101302.805
101302.801
101302.799
101302.8
101302.803
101302.809
101302.817
101302.828
101302.84
101302.856
101302.876
101302.903
101302.935
101302.968
101302.995
101303.019
101303.048
101303.086
101303.131
101303.178
101303.227
101303.279
101303.33
101303.373
101303.424
101303.497
101303.597
101303.66
101303.679
101303.734
101303.812
101303.879
101303.939
101303.998
101304.057
101304.124
101304.202
101304.285
101304.37
101304.459
101304.556
101304.668
101304.808
101304.979
101305.184
101305.431
101305.738
101306.11
101306.56
101307.13
101307.584
101308.12
101309.735
101311.612
101312.418
101312.424
101312.891
101313.766
101314.906
101315.941
101316.683
101317.698
101319.083
101320.4
101321.719
101323.131
101324.333
101301.754
101301.733
101301.711
101301.691
101301.673
101301.657
101301.643
101301.631
101301.621
101301.614
101301.609
101301.607
101301.608
101301.611
101301.617
101301.626
101301.637
101301.652
101301.668
101301.689
101301.713
101301.743
101301.778
101301.813
101301.844
101301.875
101301.91
101301.954
101302.005
101302.058
101302.113
101302.171
101302.228
101302.28
101302.349
101302.453
101302.558
101302.597
101302.628
101302.702
101302.793
101302.873
101302.949
101303.028
101303.111
101303.197
101303.287
101303.378
101303.47
101303.569
101303.678
101303.8
101303.935
101304.093
101304.276
101304.488
101304.731
101305.013
101305.326
101305.689
101306.06
101306.44
101307.393
101309.337
101310.793
101310.986
101310.946
101311.491
101312.392
101313.453
101314.587
101315.677
101316.625
101317.86
101319.145
101320.33
101321.669
101322.971
101324.465
101325.72
101300.267
101300.251
101300.234
101300.22
101300.208
101300.198
101300.191
101300.187
101300.185
101300.187
101300.191
101300.199
101300.21
101300.224
101300.241
101300.261
101300.284
101300.311
101300.344
101300.38
101300.418
101300.456
101300.496
101300.541
101300.594
101300.65
101300.71
101300.771
101300.836
101300.901
101300.962
101301.038
101301.144
101301.224
101301.274
101301.347
101301.441
101301.538
101301.625
101301.712
101301.804
101301.897
101301.992
101302.089
101302.188
101302.292
101302.404
101302.524
101302.654
101302.799
101302.959
101303.142
101303.355
101303.599
101303.88
101304.206
101304.591
101305.037
101305.558
101306.117
101306.921
101308.354
101309.102
101309.096
101309.501
101310.186
101311.237
101312.432
101313.574
101314.788
101316.085
101317.034
101318.011
101319.216
101320.406
101321.667
101323.029
101324.326
101325.804
101327.125
101298.545
101298.534
101298.523
101298.515
101298.51
101298.507
101298.507
101298.51
101298.518
101298.529
101298.543
101298.56
101298.58
101298.606
101298.636
101298.671
101298.71
101298.752
101298.797
101298.846
101298.9
101298.959
101299.02
101299.085
101299.152
101299.223
101299.295
101299.364
101299.446
101299.555
101299.641
101299.702
101299.787
101299.889
101299.986
101300.081
101300.178
101300.278
101300.378
101300.479
101300.584
101300.692
101300.804
101300.922
101301.048
101301.182
101301.329
101301.491
101301.671
101301.874
101302.111
101302.386
101302.702
101303.067
101303.486
101303.958
101304.482
101305.068
101305.779
101307.013
101308.013
101308.22
101308.718
101309.774
101310.877
101312.028
101313.081
101313.953
101314.805
101315.63
101316.433
101317.473
101318.764
101320.053
101321.356
101322.701
101324.068
101325.255
101326.759
101328.519
101296.512
101296.506
101296.502
101296.501
101296.503
101296.51
101296.521
101296.536
101296.554
101296.576
101296.604
101296.637
101296.675
101296.717
101296.763
101296.813
101296.868
101296.926
101296.988
101297.054
101297.123
101297.197
101297.274
101297.353
101297.429
101297.518
101297.63
101297.724
101297.796
101297.89
101297.999
101298.103
101298.205
101298.31
101298.416
101298.523
101298.632
101298.744
101298.858
101298.975
101299.097
101299.224
101299.359
101299.503
101299.659
101299.831
101300.023
101300.238
101300.485
101300.766
101301.088
101301.465
101301.911
101302.431
101303.006
101303.649
101304.27
101305.18
101306.1
101306.706
101307.335
101308.238
101309.377
101310.241
101310.947
101311.66
101312.453
101313.408
101314.419
101315.368
101316.464
101317.936
101319.487
101320.932
101322.453
101324.046
101325.582
101327.046
101328.521
101330.047
101294.127
101294.127
101294.13
101294.137
101294.148
101294.164
101294.184
101294.208
101294.238
101294.273
101294.313
101294.359
101294.409
101294.465
101294.525
101294.59
101294.66
101294.734
101294.813
101294.896
101294.983
101295.068
101295.164
101295.28
101295.381
101295.467
101295.571
101295.687
101295.799
101295.911
101296.025
101296.14
101296.257
101296.375
101296.495
101296.618
101296.743
101296.872
101297.006
101297.146
101297.294
101297.453
101297.624
101297.811
101298.017
101298.245
101298.499
101298.782
101299.093
101299.433
101299.807
101300.208
101300.64
101301.127
101301.926
101303.042
101304.185
101304.923
101305.679
101306.626
101307.355
101308.25
101308.939
101309.61
101310.556
101311.628
101312.835
101314.03
101315.299
101316.731
101317.974
101319.163
101320.437
101321.73
101323.145
101324.655
101326.234
101328.012
101329.671
101330.784
101291.27
101291.277
101291.287
101291.302
101291.323
101291.348
101291.379
101291.415
101291.457
101291.505
101291.559
101291.62
101291.685
101291.756
101291.833
101291.915
101292.002
101292.093
101292.186
101292.286
101292.404
101292.512
101292.609
101292.722
101292.845
101292.966
101293.087
101293.211
101293.336
101293.463
101293.592
101293.723
101293.857
101293.994
101294.134
101294.279
101294.431
101294.592
101294.763
101294.947
101295.147
101295.367
101295.608
101295.875
101296.172
101296.501
101296.865
101297.266
101297.709
101298.177
101298.704
101299.324
101300.331
101301.673
101302.523
101302.926
101303.445
101304.104
101304.878
101305.493
101306.518
101307.659
101308.484
101309.695
101311.012
101312.265
101313.495
101314.751
101315.972
101317.171
101318.518
101319.763
101321.014
101322.532
101324.093
101325.622
101327.073
101328.792
101330.866
101332.159
101287.85
101287.865
101287.884
101287.909
101287.939
101287.976
101288.018
101288.067
101288.123
101288.185
101288.253
101288.327
101288.408
101288.494
101288.586
101288.681
101288.784
101288.901
101289.014
101289.12
101289.239
101289.367
101289.494
101289.622
101289.754
101289.887
101290.024
101290.162
101290.303
101290.447
101290.594
101290.745
101290.902
101291.066
101291.238
101291.422
101291.62
101291.834
101292.069
101292.328
101292.615
101292.933
101293.287
101293.68
101294.116
101294.597
101295.127
101295.709
101296.349
101296.991
101297.801
101298.839
101299.516
101299.878
101300.473
101301.378
101302.402
101303.448
101304.546
101305.829
101306.854
101307.639
101308.611
101309.677
101310.873
101312.136
101313.459
101314.789
101316.105
101317.386
101318.562
101319.851
101321.554
101323.31
101324.935
101326.641
101328.736
101330.578
101332.32
101334.034
101283.761
101283.784
101283.815
101283.851
101283.893
101283.941
101283.996
101284.058
101284.128
101284.203
101284.285
101284.374
101284.467
101284.568
101284.681
101284.795
101284.906
101285.025
101285.154
101285.284
101285.417
101285.553
101285.693
101285.835
101285.98
101286.128
101286.279
101286.434
101286.593
101286.758
101286.93
101287.111
101287.302
101287.508
101287.73
101287.973
101288.239
101288.534
101288.86
101289.222
101289.625
101290.071
101290.564
101291.106
101291.701
101292.352
101293.057
101293.825
101294.627
101295.605
101296.506
101297.192
101297.978
101298.973
101299.984
101300.923
101301.858
101302.767
101303.659
101304.535
101305.559
101306.767
101307.902
101308.968
101310.196
101311.677
101313.373
101315.208
101317.018
101318.996
101321.143
101323.078
101324.425
101325.545
101326.611
101327.926
101330.061
101332.09
101333.405
101334.874
101278.934
101278.969
101279.012
101279.061
101279.115
101279.177
101279.246
101279.322
101279.404
101279.492
101279.588
101279.694
101279.804
101279.914
101280.032
101280.159
101280.289
101280.422
101280.56
101280.701
101280.846
101280.994
101281.146
101281.302
101281.461
101281.626
101281.797
101281.974
101282.161
101282.359
101282.57
101282.798
101283.046
101283.318
101283.618
101283.95
101284.318
101284.728
101285.182
101285.686
101286.242
101286.852
101287.518
101288.236
101289.004
101289.825
101290.688
101291.568
101292.475
101293.381
101294.346
101295.364
101296.336
101297.279
101298.243
101299.223
101300.235
101301.34
101302.546
101303.626
101304.851
101306.626
101308.725
101311.021
101312.663
101313.916
101315.316
101316.729
101317.956
101319.23
101320.97
101322.319
101323.728
101325.734
101327.441
101328.784
101330.305
101331.976
101333.515
101335.243
101273.328
101273.376
101273.434
101273.496
101273.565
101273.641
101273.723
101273.813
101273.911
101274.014
101274.121
101274.236
101274.358
101274.485
101274.616
101274.752
101274.893
101275.038
101275.188
101275.342
101275.5
101275.664
101275.833
101276.008
101276.192
101276.384
101276.588
101276.806
101277.041
101277.295
101277.573
101277.879
101278.217
101278.591
101279.006
101279.467
101279.977
101280.542
101281.164
101281.849
101282.6
101283.418
101284.312
101285.277
101286.3
101287.37
101288.427
101289.291
101290.12
101291.148
101292.295
101293.474
101294.698
101295.968
101297.27
101298.505
101299.745
101301.365
101303.4
101305.307
101307.001
101308.436
101309.648
101310.857
101312.355
101314.063
101315.392
101316.582
101318.439
101320.191
101321.507
101323.008
101324.518
101325.833
101327.316
101329.202
101330.663
101332.171
101334.174
101335.783
101266.957
101267.019
101267.093
101267.171
101267.255
101267.346
101267.443
101267.546
101267.656
101267.773
101267.895
101268.023
101268.157
101268.296
101268.44
101268.589
101268.744
101268.904
101269.07
101269.243
101269.423
101269.612
101269.812
101270.024
101270.25
101270.494
101270.759
101271.048
101271.365
101271.714
101272.1
101272.527
101272.997
101273.516
101274.085
101274.706
101275.379
101276.104
101276.878
101277.695
101278.554
101279.425
101280.317
101281.375
101282.819
101284.474
101285.868
101287.255
101288.7
101290.099
101291.496
101292.922
101294.4
101295.937
101297.515
101299.15
101300.686
101301.87
101302.931
101304.521
101306.25
101307.732
101309.156
101310.516
101311.929
101313.331
101314.938
101316.759
101318.118
101319.644
101321.577
101323.537
101325.471
101327.236
101328.573
101330.013
101331.669
101333.206
101335.131
101337.067
101259.867
101259.944
101260.036
101260.13
101260.229
101260.334
101260.446
101260.564
101260.688
101260.817
101260.953
101261.094
101261.241
101261.394
101261.553
101261.719
101261.893
101262.075
101262.266
101262.47
101262.686
101262.919
101263.171
101263.445
101263.745
101264.076
101264.443
101264.849
101265.301
101265.804
101266.363
101266.982
101267.666
101268.419
101269.245
101270.146
101271.124
101272.181
101273.317
101274.527
101275.822
101277.168
101278.691
101280.157
101281.197
101282.102
101283.287
101284.7
101286.073
101287.583
101289.226
101290.87
101292.444
101293.994
101295.522
101297.004
101298.477
101299.909
101301.604
101303.573
101305.312
101307
101308.756
101310.554
101312.411
101314.055
101315.604
101317.462
101319.405
101321.032
101322.406
101324.155
101326.355
101328.746
101330.934
101332.347
101334.091
101335.494
101336.526
101337.999
101252.156
101252.248
101252.357
101252.467
101252.581
101252.701
101252.826
101252.957
101253.093
101253.236
101253.384
101253.539
101253.701
101253.87
101254.048
101254.236
101254.435
101254.648
101254.877
101255.125
101255.395
101255.692
101256.018
101256.38
101256.782
101257.23
101257.728
101258.282
101258.897
101259.577
101260.325
101261.145
101262.039
101263.006
101264.048
101265.162
101266.348
101267.605
101268.931
101270.308
101271.748
101273.252
101274.654
101276.08
101277.496
101278.697
101280.021
101281.769
101283.633
101285.445
101287.294
101289.235
101291.186
101293.128
101295.143
101297.237
101299.326
101301.612
101303.387
101304.673
101305.985
101307.474
101309.057
101310.594
101312.138
101314.075
101316.628
101318.507
101320.302
101322.816
101325.49
101327.608
101329.194
101330.652
101332.005
101333.723
101335.327
101336.567
101338.27
101339.638
101243.969
101244.076
101244.201
101244.325
101244.453
101244.584
101244.721
101244.863
101245.011
101245.164
101245.325
101245.493
101245.67
101245.857
101246.057
101246.272
101246.504
101246.757
101247.035
101247.341
101247.681
101248.06
101248.483
101248.955
101249.483
101250.071
101250.726
101251.451
101252.249
101253.124
101254.076
101255.105
101256.207
101257.377
101258.606
101259.877
101261.189
101262.493
101263.812
101265.34
101267.038
101268.934
101271.067
101273.302
101275.738
101278.373
101280.793
101282.646
101284.342
101286.144
101287.924
101289.539
101291.008
101292.512
101294.339
101296.42
101298.505
101300.457
101302.386
101304.073
101305.866
101308.147
101310.068
101311.884
101313.881
101315.938
101318.052
101319.964
101321.703
101323.462
101325.184
101327.079
101329.212
101331.375
101333.377
101335.226
101336.973
101338.568
101340.479
101342.925
101235.552
101235.673
101235.813
101235.951
101236.092
101236.236
101236.386
101236.541
101236.704
101236.874
101237.053
101237.244
101237.448
101237.668
101237.909
101238.172
101238.463
101238.787
101239.148
101239.553
101240.007
101240.518
101241.09
101241.731
101242.446
101243.241
101244.118
101245.082
101246.134
101247.276
101248.505
101249.82
101251.22
101252.696
101254.233
101255.907
101258.127
101260.995
101263.91
101265.995
101267.607
101269.366
101271.218
101272.935
101274.69
101276.503
101278.299
101280.331
101282.707
101284.574
101286.039
101287.766
101289.524
101291.63
101294.101
101296.187
101298.036
101300.183
101302.737
101304.806
101306.485
101308.054
101309.745
101311.729
101313.78
101315.836
101317.963
101320.297
101322.831
101325.072
101327.007
101328.914
101330.884
101332.888
101334.94
101336.272
101337.705
101339.636
101342.254
101344.675
101227.142
101227.277
101227.43
101227.581
101227.734
101227.892
101228.056
101228.229
101228.411
101228.605
101228.814
101229.041
101229.29
101229.566
101229.873
101230.217
101230.605
101231.044
101231.541
101232.103
101232.739
101233.457
101234.265
101235.169
101236.175
101237.29
101238.517
101239.859
101241.314
101242.883
101244.561
101246.342
101248.211
101250.149
101252.133
101254.139
101256.106
101258.09
101260.156
101262.559
101264.987
101266.949
101268.756
101270.515
101272.179
101273.846
101275.557
101277.355
101279.289
101281.581
101284.273
101286.842
101289.433
101291.593
101293.237
101294.862
101296.926
101299.288
101301.603
101304.2
101306.741
101309.203
101311.565
101313.797
101315.941
101317.844
101319.668
101321.561
101323.404
101325.405
101327.737
101329.927
101331.971
101333.983
101335.649
101337.323
101339.07
101340.358
101342.232
101344.511
101289.508
101289.514
101289.521
101289.528
101289.538
101289.548
101289.559
101289.572
101289.586
101289.601
101289.618
101289.635
101289.655
101289.675
101289.697
101289.72
101289.744
101289.77
101289.797
101289.826
101289.856
101289.887
101289.919
101289.953
101289.988
101290.024
101290.061
101290.1
101290.141
101290.183
101290.226
101290.271
101290.318
101290.367
101290.418
101290.472
101290.529
101290.588
101290.651
101290.719
101290.792
101290.87
101290.955
101291.045
101291.138
101291.238
101291.343
101291.455
101291.574
101291.7
101291.832
101291.97
101292.113
101292.26
101292.411
101292.565
101292.72
101292.877
101293.032
101293.186
101293.337
101293.484
101293.625
101293.762
101293.896
101294.024
101294.146
101294.263
101294.372
101294.474
101294.568
101294.656
101294.696
101294.677
101294.591
101294.485
101294.39
101294.34
101294.252
101293.696
101291.792
101291.798
101291.806
101291.815
101291.825
101291.837
101291.85
101291.864
101291.88
101291.897
101291.916
101291.936
101291.958
101291.981
101292.006
101292.032
101292.06
101292.089
101292.12
101292.152
101292.186
101292.221
101292.258
101292.297
101292.336
101292.378
101292.421
101292.465
101292.511
101292.559
101292.609
101292.66
101292.714
101292.77
101292.829
101292.89
101292.956
101293.025
101293.099
101293.178
101293.26
101293.347
101293.439
101293.537
101293.641
101293.751
101293.868
101293.993
101294.124
101294.263
101294.408
101294.56
101294.718
101294.881
101295.05
101295.224
101295.4
101295.579
101295.76
101295.942
101296.125
101296.306
101296.487
101296.667
101296.842
101297.011
101297.179
101297.348
101297.514
101297.672
101297.81
101297.902
101297.988
101298.111
101298.262
101298.351
101298.39
101298.487
101298.591
101298.367
101293.901
101293.908
101293.917
101293.927
101293.938
101293.951
101293.966
101293.982
101293.999
101294.018
101294.039
101294.061
101294.085
101294.11
101294.137
101294.166
101294.196
101294.228
101294.262
101294.297
101294.334
101294.372
101294.412
101294.454
101294.498
101294.543
101294.589
101294.637
101294.688
101294.739
101294.793
101294.849
101294.908
101294.969
101295.032
101295.101
101295.173
101295.246
101295.323
101295.404
101295.49
101295.582
101295.679
101295.782
101295.89
101296.006
101296.128
101296.258
101296.395
101296.54
101296.692
101296.853
101297.021
101297.194
101297.374
101297.56
101297.747
101297.937
101298.129
101298.322
101298.514
101298.704
101298.893
101299.078
101299.26
101299.443
101299.625
101299.809
101299.996
101300.19
101300.395
101300.615
101300.831
101300.978
101301.022
101301.14
101301.416
101301.625
101301.809
101301.863
101295.822
101295.83
101295.84
101295.851
101295.864
101295.878
101295.893
101295.911
101295.93
101295.95
101295.972
101295.996
101296.021
101296.049
101296.077
101296.108
101296.14
101296.174
101296.209
101296.246
101296.285
101296.326
101296.368
101296.411
101296.456
101296.503
101296.552
101296.602
101296.653
101296.707
101296.762
101296.822
101296.883
101296.944
101297.009
101297.077
101297.146
101297.22
101297.298
101297.38
101297.467
101297.559
101297.657
101297.76
101297.87
101297.987
101298.111
101298.243
101298.384
101298.533
101298.689
101298.855
101299.028
101299.204
101299.386
101299.573
101299.765
101299.961
101300.161
101300.363
101300.567
101300.773
101300.978
101301.183
101301.386
101301.587
101301.785
101301.984
101302.185
101302.391
101302.599
101302.811
101303.022
101303.225
101303.449
101303.702
101303.814
101304.035
101304.581
101304.86
101297.548
101297.557
101297.569
101297.581
101297.595
101297.61
101297.627
101297.646
101297.666
101297.688
101297.711
101297.736
101297.762
101297.79
101297.82
101297.852
101297.885
101297.919
101297.956
101297.993
101298.033
101298.074
101298.116
101298.16
101298.205
101298.252
101298.299
101298.349
101298.4
101298.455
101298.51
101298.565
101298.623
101298.683
101298.744
101298.809
101298.878
101298.949
101299.025
101299.106
101299.191
101299.281
101299.377
101299.48
101299.588
101299.704
101299.83
101299.963
101300.108
101300.26
101300.417
101300.58
101300.752
101300.931
101301.117
101301.31
101301.508
101301.711
101301.92
101302.132
101302.348
101302.566
101302.787
101303.01
101303.233
101303.457
101303.684
101303.914
101304.147
101304.384
101304.624
101304.868
101305.113
101305.351
101305.607
101305.928
101306.273
101306.49
101306.761
101307.048
101299.087
101299.097
101299.11
101299.124
101299.139
101299.155
101299.173
101299.192
101299.213
101299.236
101299.26
101299.285
101299.312
101299.34
101299.37
101299.402
101299.435
101299.469
101299.504
101299.542
101299.58
101299.619
101299.66
101299.702
101299.745
101299.789
101299.834
101299.883
101299.931
101299.979
101300.028
101300.079
101300.131
101300.186
101300.242
101300.302
101300.366
101300.435
101300.506
101300.582
101300.662
101300.748
101300.84
101300.939
101301.046
101301.161
101301.287
101301.423
101301.563
101301.712
101301.871
101302.038
101302.215
101302.399
101302.592
101302.792
101302.999
101303.213
101303.433
101303.658
101303.889
101304.126
101304.366
101304.611
101304.86
101305.113
101305.37
101305.629
101305.891
101306.156
101306.424
101306.698
101306.973
101307.246
101307.495
101307.717
101307.979
101308.308
101308.561
101308.729
101300.452
101300.464
101300.477
101300.492
101300.508
101300.525
101300.543
101300.563
101300.584
101300.606
101300.63
101300.655
101300.682
101300.709
101300.738
101300.769
101300.8
101300.833
101300.866
101300.901
101300.936
101300.973
101301.01
101301.048
101301.087
101301.127
101301.168
101301.209
101301.249
101301.29
101301.331
101301.374
101301.42
101301.471
101301.525
101301.58
101301.636
101301.697
101301.761
101301.83
101301.905
101301.987
101302.076
101302.173
101302.279
101302.395
101302.517
101302.644
101302.784
101302.936
101303.098
101303.27
101303.451
101303.642
101303.842
101304.05
101304.267
101304.492
101304.725
101304.966
101305.214
101305.47
101305.734
101306.006
101306.286
101306.573
101306.867
101307.166
101307.467
101307.77
101308.073
101308.378
101308.681
101308.981
101309.276
101309.541
101309.742
101309.887
101310.101
101310.27
101301.669
101301.68
101301.694
101301.709
101301.724
101301.741
101301.759
101301.778
101301.798
101301.82
101301.842
101301.866
101301.891
101301.916
101301.943
101301.971
101302
101302.029
101302.059
101302.09
101302.121
101302.153
101302.185
101302.217
101302.25
101302.282
101302.314
101302.345
101302.377
101302.413
101302.453
101302.494
101302.535
101302.576
101302.619
101302.664
101302.714
101302.767
101302.827
101302.892
101302.962
101303.038
101303.124
101303.218
101303.32
101303.427
101303.548
101303.686
101303.834
101303.988
101304.152
101304.328
101304.515
101304.713
101304.921
101305.138
101305.366
101305.602
101305.848
101306.104
101306.371
101306.646
101306.925
101307.205
101307.495
101307.801
101308.122
101308.455
101308.801
101309.163
101309.536
101309.901
101310.246
101310.584
101310.912
101311.227
101311.508
101311.722
101311.905
101312.057
101302.759
101302.77
101302.783
101302.796
101302.81
101302.825
101302.841
101302.858
101302.876
101302.896
101302.915
101302.936
101302.958
101302.981
101303.004
101303.028
101303.052
101303.076
101303.101
101303.127
101303.152
101303.177
101303.202
101303.226
101303.252
101303.28
101303.309
101303.339
101303.37
101303.399
101303.427
101303.455
101303.485
101303.518
101303.553
101303.592
101303.636
101303.681
101303.728
101303.783
101303.851
101303.928
101304.01
101304.098
101304.199
101304.316
101304.444
101304.578
101304.723
101304.879
101305.048
101305.23
101305.423
101305.627
101305.843
101306.07
101306.307
101306.555
101306.812
101307.078
101307.352
101307.635
101307.933
101308.26
101308.609
101308.967
101309.337
101309.721
101310.118
101310.522
101310.925
101311.32
101311.707
101312.089
101312.46
101312.813
101313.137
101313.423
101313.678
101313.811
101303.748
101303.756
101303.766
101303.777
101303.788
101303.8
101303.812
101303.826
101303.841
101303.856
101303.872
101303.889
101303.907
101303.925
101303.944
101303.963
101303.983
101304.002
101304.022
101304.042
101304.062
101304.083
101304.105
101304.127
101304.148
101304.167
101304.185
101304.204
101304.222
101304.241
101304.262
101304.283
101304.306
101304.332
101304.361
101304.39
101304.42
101304.463
101304.517
101304.574
101304.637
101304.707
101304.786
101304.877
101304.977
101305.086
101305.208
101305.342
101305.489
101305.649
101305.822
101306.008
101306.207
101306.42
101306.644
101306.881
101307.131
101307.392
101307.665
101307.953
101308.256
101308.574
101308.888
101309.225
101309.596
101309.98
101310.378
101310.792
101311.221
101311.661
101312.106
101312.553
101313.003
101313.451
101313.889
101314.309
101314.697
101315.042
101315.392
101315.679
101304.652
101304.656
101304.661
101304.667
101304.674
101304.681
101304.689
101304.698
101304.709
101304.72
101304.731
101304.743
101304.756
101304.769
101304.783
101304.796
101304.811
101304.826
101304.841
101304.856
101304.87
101304.883
101304.897
101304.909
101304.922
101304.934
101304.946
101304.959
101304.971
101304.984
101304.998
101305.014
101305.033
101305.05
101305.067
101305.097
101305.133
101305.172
101305.217
101305.265
101305.32
101305.385
101305.459
101305.543
101305.639
101305.746
101305.865
101305.996
101306.141
101306.299
101306.471
101306.656
101306.855
101307.067
101307.293
101307.531
101307.783
101308.049
101308.328
101308.622
101308.934
101309.273
101309.656
101310.024
101310.362
101310.733
101311.155
101311.61
101312.077
101312.557
101313.053
101313.567
101314.093
101314.626
101315.158
101315.679
101316.179
101316.639
101317.044
101317.347
101305.466
101305.465
101305.464
101305.465
101305.466
101305.468
101305.471
101305.474
101305.479
101305.484
101305.49
101305.497
101305.504
101305.512
101305.521
101305.53
101305.539
101305.548
101305.556
101305.565
101305.574
101305.583
101305.591
101305.599
101305.607
101305.614
101305.621
101305.629
101305.637
101305.646
101305.655
101305.662
101305.673
101305.689
101305.708
101305.733
101305.763
101305.792
101305.829
101305.872
101305.923
101305.982
101306.05
101306.128
101306.216
101306.316
101306.428
101306.553
101306.691
101306.842
101307.006
101307.185
101307.378
101307.583
101307.802
101308.035
101308.288
101308.56
101308.839
101309.125
101309.424
101309.735
101310.068
101310.454
101310.889
101311.332
101311.747
101312.155
101312.604
101313.095
101313.641
101314.23
101314.835
101315.456
101316.088
101316.723
101317.358
101318.011
101318.549
101318.838
101306.171
101306.164
101306.157
101306.151
101306.146
101306.142
101306.139
101306.137
101306.136
101306.136
101306.136
101306.138
101306.14
101306.142
101306.146
101306.149
101306.153
101306.157
101306.161
101306.165
101306.169
101306.173
101306.177
101306.18
101306.183
101306.185
101306.189
101306.193
101306.197
101306.198
101306.203
101306.208
101306.221
101306.237
101306.249
101306.263
101306.283
101306.308
101306.338
101306.374
101306.416
101306.466
101306.525
101306.592
101306.67
101306.758
101306.857
101306.968
101307.092
101307.229
101307.379
101307.543
101307.721
101307.911
101308.116
101308.341
101308.587
101308.84
101309.101
101309.377
101309.67
101309.979
101310.306
101310.65
101311.014
101311.41
101311.857
101312.357
101312.887
101313.433
101313.981
101314.549
101315.161
101315.808
101316.48
101317.168
101317.908
101318.794
101319.656
101320.241
101306.75
101306.737
101306.724
101306.712
101306.701
101306.692
101306.683
101306.675
101306.668
101306.663
101306.658
101306.654
101306.651
101306.649
101306.647
101306.646
101306.644
101306.644
101306.644
101306.644
101306.643
101306.643
101306.643
101306.642
101306.643
101306.643
101306.64
101306.633
101306.635
101306.642
101306.644
101306.644
101306.646
101306.652
101306.661
101306.672
101306.686
101306.705
101306.728
101306.756
101306.789
101306.829
101306.876
101306.932
101306.996
101307.069
101307.153
101307.248
101307.355
101307.475