/*--------------------------------*- C++ -*----------------------------------*\
  =========                 |
  \\      /  F ield         | OpenFOAM: The Open Source CFD Toolbox
   \\    /   O peration     | Website:  https://openfoam.org
    \\  /    A nd           | Version:  8
     \\/     M anipulation  |
\*---------------------------------------------------------------------------*/
FoamFile
{
    version     2.0;
    format      ascii;
    class       surfaceScalarField;
    location    "0.005";
    object      phi;
}
// * * * * * * * * * * * * * * * * * * * * * * * * * * * * * * * * * * * * * //

dimensions      [1 0 -1 0 0 0 0];

internalField   nonuniform List<scalar> 
84340
(
-1.52305822e-07
4.95796613e-07
-3.4358525e-07
-6.1616128e-07
1.49840634e-06
-1.03470356e-06
-1.40693665e-06
2.54366672e-06
-1.75308002e-06
-2.53788981e-06
3.63231471e-06
-2.50158184e-06
-4.02009195e-06
4.76590765e-06
-3.28395446e-06
-5.8623196e-06
5.9464232e-06
-4.10447195e-06
-8.0708985e-06
7.17635246e-06
-4.96807768e-06
-1.06495215e-05
8.45892645e-06
-5.88063662e-06
-1.3599057e-05
9.79828562e-06
-6.84911466e-06
-1.69173463e-05
1.11995782e-05
-7.88168751e-06
-2.05989915e-05
1.26689973e-05
-8.98778823e-06
-2.46351344e-05
1.42137481e-05
-1.01780827e-05
-2.90132324e-05
1.5841944e-05
-1.14643689e-05
-3.37168357e-05
1.75624274e-05
-1.28593974e-05
-3.87253554e-05
1.93845032e-05
-1.43766119e-05
-4.40138584e-05
2.13176135e-05
-1.60297999e-05
-4.95528521e-05
2.33709214e-05
-1.78326839e-05
-5.53081168e-05
2.55528394e-05
-1.97984044e-05
-6.12405918e-05
2.78705073e-05
-2.19389424e-05
-6.73062557e-05
3.03292311e-05
-2.42645656e-05
-7.34560007e-05
3.29319064e-05
-2.67832558e-05
-7.96355496e-05
3.56784314e-05
-2.95000824e-05
-8.57854013e-05
3.85651217e-05
-3.24165841e-05
-9.18408228e-05
4.15841664e-05
-3.5530184e-05
-9.77318013e-05
4.47230971e-05
-3.88336928e-05
-0.000103382984
4.79643308e-05
-4.23148701e-05
-0.000108713711
5.12849051e-05
-4.59560589e-05
-0.000113638404
5.46565855e-05
-4.97339462e-05
-0.000118067112
5.80458632e-05
-5.36193962e-05
-0.000121904651
6.14127262e-05
-5.75776334e-05
-0.000125047655
6.47093018e-05
-6.15689669e-05
-0.000127396782
6.78956906e-05
-6.554946e-05
-0.00012886501
7.09343683e-05
-6.94692867e-05
-0.000129345143
7.37480721e-05
-7.32713152e-05
-0.000128689156
7.62519073e-05
-7.69114979e-05
-0.000126688758
7.83476115e-05
-8.03519535e-05
-0.000123133658
7.99553033e-05
-8.35147039e-05
-0.000117799019
8.09644387e-05
-8.63037576e-05
-0.000110448975
8.12582716e-05
-8.86134365e-05
-0.000100828381
8.07524433e-05
-9.0378621e-05
-8.86635294e-05
7.93229062e-05
-9.14938366e-05
-7.36487811e-05
7.68280672e-05
-9.18494619e-05
-5.54515866e-05
7.31247823e-05
-9.13292481e-05
-3.36549747e-05
6.80527595e-05
-8.98573502e-05
-7.72622826e-06
6.13439793e-05
-8.72814869e-05
2.27798855e-05
5.29473642e-05
-8.3463134e-05
5.78386709e-05
4.31725905e-05
-7.8242073e-05
9.83428185e-05
3.08168075e-05
-7.13329193e-05
0.000145186194
1.59225535e-05
-6.27789613e-05
0.000199288314
-1.92888933e-06
-5.21873164e-05
0.000261722128
-2.23642319e-05
-4.00854882e-05
0.000333738054
-4.72451819e-05
-2.47886895e-05
0.000416691675
-7.65515977e-05
-6.42171902e-06
0.000512423394
-0.000110579977
1.4826793e-05
0.000621749248
-0.000149973635
4.06246273e-05
0.000745915497
-0.000195411524
7.12206222e-05
0.000886570972
-0.000247632904
0.000106951573
0.001045666
-0.000307432919
0.000148311596
0.00122503452
-0.000375699906
0.000196305607
0.00142660754
-0.000453376051
0.000251778786
0.001652177
-0.000541222144
0.000315632527
0.00190294073
-0.000639794519
0.000389016894
0.00217958595
-0.000749480345
0.000472827599
0.00248210796
-0.000870587052
0.00056806357
0.00281041119
-0.00100288403
0.000674583894
0.00316074909
-0.00114436119
0.000794029457
0.00353307363
-0.00130270787
0.000930389475
0.00393470745
-0.00146965572
0.00106802775
0.0043429565
-0.00162101251
0.00121277131
0.00473377939
-0.00180178309
0.00141096925
0.00515969857
-0.00200530534
0.00157939014
0.0056206265
-0.0021528237
0.00169188373
0.00596639333
-0.00227714547
0.00193133623
0.00619767429
-0.00243558975
0.00220421767
0.00644188707
-0.00256090316
0.00231652185
0.00670532958
-0.00267083888
0.00240722284
0.00690641767
-0.00277852219
0.00257726182
0.00704108024
-0.00286506216
0.00273011329
0.00716578715
-0.00297313156
0.00284808575
-0.0030778484
0.00295434847
0.00728909349
-1.48850535e-07
6.44519392e-07
-6.01286041e-07
1.95066825e-06
-1.37107667e-06
3.31326211e-06
-2.46925961e-06
4.73028097e-06
-3.90444519e-06
6.20085492e-06
-5.68254668e-06
7.724264e-06
-7.80660541e-06
9.30012685e-06
-1.02765995e-05
1.09286108e-05
-1.30892403e-05
1.26105892e-05
-1.62377595e-05
1.43477302e-05
-1.97116854e-05
1.61425233e-05
-2.34966125e-05
1.79982396e-05
-2.75739638e-05
1.99188206e-05
-3.19207489e-05
2.19086949e-05
-3.65093352e-05
2.3972525e-05
-4.13071993e-05
2.61148618e-05
-4.62767065e-05
2.83397565e-05
-5.13748918e-05
3.0650291e-05
-5.6553249e-05
3.30480635e-05
-6.17575376e-05
3.55326446e-05
-6.69275892e-05
3.81010021e-05
-7.19971023e-05
4.07468997e-05
-7.6893437e-05
4.34603146e-05
-8.15374577e-05
4.62269382e-05
-8.58436031e-05
4.9027877e-05
-8.97200722e-05
5.18393059e-05
-9.30681341e-05
5.46313314e-05
-9.57808661e-05
5.73675249e-05
-9.77499686e-05
6.00130086e-05
-9.88740945e-05
6.25347132e-05
-9.90422675e-05
6.48751588e-05
-9.81015279e-05
6.69524413e-05
-9.58546291e-05
6.8684714e-05
-9.21006337e-05
6.99910443e-05
-8.6620816e-05
7.07687432e-05
-7.91795716e-05
7.09026665e-05
-6.9538514e-05
7.03101799e-05
-5.74430447e-05
6.8864498e-05
-4.26249916e-05
6.64353083e-05
-2.47600754e-05
6.28821236e-05
-3.49174029e-06
5.80486186e-05
2.16318039e-05
5.16979425e-05
5.10341119e-05
4.37151559e-05
8.47131915e-05
3.43655124e-05
0.000123518246
2.2529994e-05
0.000168179061
8.27675483e-06
0.000219568115
-8.2275498e-06
0.000278630366
-2.82579658e-05
0.000346499548
-5.19605858e-05
0.000424223858
-7.9668801e-05
0.000513571537
-0.000111729268
0.000615104611
-0.000148797496
0.000730023065
-0.000191491298
0.000859811925
-0.000240392132
0.00100595709
-0.000296143942
0.00116997314
-0.000359454392
0.0013535332
-0.000431221423
0.00155820133
-0.000512130259
0.00178531241
-0.000602838864
0.00203579887
-0.000703887418
0.0023100872
-0.000815532459
0.00260784443
-0.000937570628
0.00292796887
-0.00106962095
0.00326705755
-0.00120968927
0.00362376208
-0.0013595995
0.00399249186
-0.00151310014
0.00436643401
-0.00167666013
0.00474382353
-0.00184705757
0.00512908335
-0.00200629045
0.00547122887
-0.00214395064
0.00574908195
-0.00228319055
0.00599929227
-0.00240309881
0.00622558346
-0.00250352571
0.00639607844
-0.0026061814
0.0065310755
-0.00269605614
0.00665750159
-0.00279748275
0.00677688151
-0.00289813828
0.00689466728
-0.00298307691
0.0069879289
-0.00306669511
-0.0031613145
0.00707111656
-1.40941426e-07
7.85441357e-07
-5.67615663e-07
2.37732294e-06
-1.29085937e-06
4.0364886e-06
-2.31865192e-06
5.75805692e-06
-3.6561997e-06
7.53838513e-06
-5.30569671e-06
9.37374098e-06
-7.26613779e-06
1.1260544e-05
-9.53310992e-06
1.31955538e-05
-1.20985715e-05
1.51760148e-05
-1.49506249e-05
1.71997394e-05
-1.80732757e-05
1.92651199e-05
-2.14461793e-05
2.1371077e-05
-2.50443807e-05
2.3516942e-05
-2.88380451e-05
2.57022629e-05
-3.27921781e-05
2.7926543e-05
-3.68663499e-05
3.0188897e-05
-4.10143957e-05
3.24876414e-05
-4.51841241e-05
3.48198305e-05
-4.93169962e-05
3.71807155e-05
-5.33478054e-05
3.95631984e-05
-5.72043987e-05
4.19573008e-05
-6.08074733e-05
4.43496355e-05
-6.40703682e-05
4.67228217e-05
-6.6898366e-05
4.90544931e-05
-6.91887994e-05
5.1317806e-05
-7.08375149e-05
5.34874507e-05
-7.17372897e-05
5.55304675e-05
-7.17782751e-05
5.7407795e-05
-7.08107114e-05
5.90446399e-05
-6.86545433e-05
6.03776402e-05
-6.51095202e-05
6.13291241e-05
-5.99655032e-05
6.18072846e-05
-5.29934442e-05
6.17113735e-05
-4.39631797e-05
6.09593422e-05
-3.26270089e-05
5.94309627e-05
-1.87259789e-05
5.69998303e-05
-1.94709102e-06
5.35292673e-05
1.80689554e-05
4.88461736e-05
4.16347939e-05
4.28669083e-05
6.91791486e-05
3.53348688e-05
0.00010073619
2.64882931e-05
0.000137136982
1.52934956e-05
0.000179047217
1.80085181e-06
0.000227196064
-1.3788031e-05
0.000282391132
-3.26705287e-05
0.000345591497
-5.49299185e-05
0.000418222449
-8.08658109e-05
0.000500885412
-0.0001109294
0.000594553017
-0.000145637998
0.000700368792
-0.000185495946
0.000819652572
-0.000231026147
0.000953639881
-0.000282799757
0.00110363279
-0.00034150114
0.00127083466
-0.000407613167
0.0014565435
-0.000481874465
0.00166202199
-0.000564956594
0.00188820454
-0.000657428214
0.00213576932
-0.000759718861
0.00240465385
-0.000871746386
0.00269408717
-0.0009933426
0.00300233598
-0.0011238014
0.00332703293
-0.00126228626
0.00366492279
-0.00140752925
0.00400881024
-0.00155359575
0.00435385386
-0.00170466411
0.00469697355
-0.00185624233
0.00501865641
-0.00199836419
0.00529921299
-0.00212763617
0.00554318142
-0.00225028813
0.00575031078
-0.00235111422
0.00591848084
-0.00245141274
0.00605395089
-0.00253864308
0.00617764284
-0.00262731814
0.0062878832
-0.00271657708
0.00639297227
-0.00280134095
0.00648586319
-0.00289058215
0.00657184286
-0.00298433678
0.00666447349
-0.00307593569
0.00676387711
-0.00316635045
-0.00325642834
0.00685878646
-1.27669459e-07
9.13062039e-07
-5.11887255e-07
2.76147497e-06
-1.15961435e-06
4.68414207e-06
-2.07500604e-06
6.67336716e-06
-3.25852834e-06
8.72181819e-06
-4.70783032e-06
1.08229457e-05
-6.41711034e-06
1.29697186e-05
-8.37688181e-06
1.51552111e-05
-1.0573725e-05
1.73727347e-05
-1.29900324e-05
1.96159136e-05
-1.56037274e-05
2.18786713e-05
-1.83879805e-05
2.41551751e-05
-2.13108893e-05
2.64396837e-05
-2.43351576e-05
2.87263508e-05
-2.74177454e-05
3.10089362e-05
-3.05094835e-05
3.32804246e-05
-3.35546865e-05
3.55326168e-05
-3.64907571e-05
3.77556544e-05
-3.92478323e-05
3.99375231e-05
-4.17483552e-05
4.206343e-05
-4.39072224e-05
4.41158501e-05
-4.56333204e-05
4.60753851e-05
-4.68313236e-05
4.79204462e-05
-4.7402134e-05
4.96248896e-05
-4.72305279e-05
5.11457437e-05
-4.61757055e-05
5.24321254e-05
-4.4073223e-05
5.34274304e-05
-4.07342795e-05
5.40682351e-05
-3.5964938e-05
5.4274613e-05
-2.95478204e-05
5.39597551e-05
-2.12540482e-05
5.30344931e-05
-1.0855618e-05
5.14078924e-05
1.89183288e-06
4.89628472e-05
1.72798708e-05
4.55701012e-05
3.56543988e-05
4.10550962e-05
5.73554206e-05
3.5297318e-05
8.25540262e-05
2.83289995e-05
0.000111498011
1.99003213e-05
0.000145043247
9.31961171e-06
0.000183716149
-3.34031583e-06
0.00022813573
-1.79338948e-05
0.000279020702
-3.55944725e-05
0.000337188896
-5.63707527e-05
0.000403924676
-8.05276942e-05
0.000479760508
-0.000108510767
0.000565588686
-0.000140763103
0.000662452221
-0.000177735029
0.000771447943
-0.000219931557
0.000893692081
-0.000267889364
0.00103025944
-0.000322071392
0.00118222719
-0.000383002907
0.00135062662
-0.000451209267
0.001536411
-0.000527296911
0.00174060357
-0.000611818243
0.00196385367
-0.000705137712
0.00220627707
-0.000807393477
0.00246721148
-0.000918376854
0.0027451908
-0.00103771329
0.00303770469
-0.00116427685
0.00334168287
-0.00129733882
0.00365273187
-0.00143487013
0.00396636831
-0.00157594341
0.00427796793
-0.00171914933
0.00457980444
-0.00185545209
0.00485507798
-0.00197995785
0.00509318488
-0.00209437041
0.00528987367
-0.00219508131
0.0054489729
-0.00228677976
0.00557752243
-0.00237888308
0.00569788266
-0.00247151822
0.00580717297
-0.00256075708
0.00591152424
-0.00264306151
0.00600720061
-0.00272309117
0.0060958853
-0.00280537438
0.00618261916
-0.00288820636
0.00626626707
-0.00297439009
0.00634802312
-0.00306624579
0.00643786521
-0.00316594593
0.00654094511
-0.00326962226
-0.00336179829
0.00664617687
-1.09818283e-07
1.02293886e-06
-4.3691904e-07
3.08865917e-06
-9.83242236e-07
5.23056129e-06
-1.74779122e-06
7.43802321e-06
-2.726336e-06
9.7004797e-06
-3.91055555e-06
1.20072906e-05
-5.28898154e-06
1.43482778e-05
-6.84619119e-06
1.67125614e-05
-8.56253658e-06
1.90892277e-05
-1.04138477e-05
2.1467379e-05
-1.23711136e-05
2.38360977e-05
-1.44001061e-05
2.6184334e-05
-1.64609761e-05
2.85007258e-05
-1.85078267e-05
3.07733783e-05
-2.04882707e-05
3.29895619e-05
-2.23429996e-05
3.51353392e-05
-2.40061728e-05
3.71959794e-05
-2.54057514e-05
3.91554255e-05
-2.64637063e-05
4.09956725e-05
-2.70967034e-05
4.26966221e-05
-2.72124876e-05
4.42318297e-05
-2.66970437e-05
4.55601367e-05
-2.5420805e-05
4.66444024e-05
-2.32333962e-05
4.74376737e-05
-1.9972099e-05
4.7884637e-05
-1.54590553e-05
4.79192684e-05
-9.49704751e-06
4.74656056e-05
-1.86824932e-06
4.64396136e-05
7.64042002e-06
4.47661124e-05
1.92601937e-05
4.23401377e-05
3.32493573e-05
3.90454708e-05
4.99225097e-05
3.47348577e-05
6.95866685e-05
2.92987755e-05
9.23530796e-05
2.28037351e-05
0.000118777179
1.46309882e-05
0.000149331525
4.74289834e-06
0.000184517624
-6.85724313e-06
0.00022493383
-2.0516113e-05
0.000271308884
-3.70557598e-05
0.00032430898
-5.63408367e-05
0.000385073289
-7.86987502e-05
0.000454041886
-0.000104563768
0.000532019442
-0.000134349189
0.000619966375
-0.000168475748
0.000718837557
-0.000207383367
0.000829603879
-0.00025153122
0.000953245838
-0.00030137925
0.00109069415
-0.000357382721
0.0012427927
-0.000419991487
0.00141038478
-0.000489667989
0.00159422988
-0.000566853698
0.00179499224
-0.000651978609
0.00201293945
-0.000745252037
0.00224771874
-0.000846606169
0.00249817193
-0.000955599981
0.00276220904
-0.0010714399
0.00303695637
-0.00119313312
0.00331870068
-0.00131946584
0.00360312566
-0.00144870889
0.00388503755
-0.00157925719
0.00415982743
-0.0017096676
0.00441922014
-0.00183534529
0.00464824114
-0.00194818087
0.00484505091
-0.00205227481
0.00500699021
-0.0021419157
0.00513964691
-0.00222704639
0.00525511458
-0.00231056982
0.00535960366
-0.00239129557
0.00545292974
-0.00247224148
0.0055365166
-0.00255514394
0.00561420873
-0.00263849826
0.00569464461
-0.00272355681
0.00577670814
-0.00280522512
0.00585964589
-0.00288840513
0.00594477918
-0.00297343935
0.00603140786
-0.00306109774
0.00612209789
-0.00315702099
0.00622153184
-0.00326549175
0.00632860508
-0.00337682879
-0.00347431935
0.0064409972
-8.90613579e-08
1.11197665e-06
-3.49373555e-07
3.34893797e-06
-7.76669671e-07
5.65781903e-06
-1.36340972e-06
8.02472051e-06
-2.09921647e-06
1.04362399e-05
-2.96984279e-06
1.28778671e-05
-3.95657089e-06
1.53349532e-05
-5.03634294e-06
1.77922781e-05
-6.1820343e-06
2.02348617e-05
-7.36165646e-06
2.2646942e-05
-8.53800278e-06
2.50123836e-05
-9.66853061e-06
2.73148004e-05
-1.07052986e-05
2.95374319e-05
-1.15949145e-05
3.16629324e-05
-1.22785019e-05
3.3673088e-05
-1.26880571e-05
3.55448341e-05
-1.27449226e-05
3.7252786e-05
-1.23603623e-05
3.87708078e-05
-1.14336846e-05
4.00689398e-05
-9.84931388e-06
4.11121985e-05
-7.47745411e-06
4.18599194e-05
-4.17906079e-06
4.2261695e-05
2.04961666e-07
4.22603339e-05
5.85344505e-06
4.17891454e-05
1.29548084e-05
4.07832301e-05
2.17062075e-05
3.91678251e-05
3.23212672e-05
3.68505011e-05
4.50331442e-05
3.37276884e-05
6.01278715e-05
2.96713323e-05
7.78952222e-05
2.45727248e-05
9.84626908e-05
1.84779289e-05
0.000122339449
1.08580124e-05
0.000149956234
1.68188691e-06
0.000181778656
-9.01881483e-06
0.000218318783
-2.19092979e-05
0.00026016198
-3.71005024e-05
0.000308138433
-5.48339523e-05
0.000363038034
-7.541603e-05
0.000425189555
-9.92076432e-05
0.000495417214
-0.000126568896
0.000574598031
-0.000157879981
0.000663586111
-0.000193552249
0.00076325108
-0.000234014499
0.000874460199
-0.000279685106
0.000998057544
-0.000330980782
0.00113482755
-0.000388301077
0.0012854572
-0.000452008462
0.00145050508
-0.000522429833
0.0016303424
-0.000599827705
0.00182522557
-0.000684549795
0.00203500643
-0.00077663318
0.00225894916
-0.000875920221
0.00249553176
-0.00098183423
0.00274238605
-0.00109346113
0.00299637701
-0.00120959338
0.0032534701
-0.00132853752
0.0035090761
-0.00144874624
0.00375784535
-0.0015682445
0.00399606419
-0.00168693886
0.00421672614
-0.00179993008
0.00441029377
-0.00190324428
0.00457181321
-0.00199687415
0.00470245837
-0.00207883638
0.00481253708
-0.00216236786
0.00491419301
-0.00224359044
0.00500892971
-0.00232180236
0.00509475351
-0.00239641521
0.00517369265
-0.00247025556
0.00524663347
-0.00254520181
0.00531511896
-0.00262364929
0.00538125437
-0.00270466231
0.00544613052
-0.00278846531
0.0055198821
-0.00287900961
0.00560500852
-0.00297357539
0.00569611615
-0.00306459651
0.00578881342
-0.00315384724
0.00588434393
-0.00325260969
0.0059854431
-0.00336666699
0.00609074515
-0.00348223457
-0.00359019266
0.00620650598
-6.66976228e-08
1.17873589e-06
-2.54070271e-07
3.53639537e-06
-5.50410314e-07
5.95425462e-06
-9.40681756e-07
8.41509736e-06
-1.40628434e-06
1.09019571e-05
-1.9255649e-06
1.3397271e-05
-2.47228714e-06
1.58818075e-05
-3.01601727e-06
1.83361492e-05
-3.52111601e-06
2.07401103e-05
-3.94660218e-06
2.3072587e-05
-4.24563679e-06
2.53115864e-05
-4.36490608e-06
2.74342477e-05
-4.24389973e-06
2.94166139e-05
-3.81378389e-06
3.12330161e-05
-2.99617215e-06
3.28556873e-05
-1.70502392e-06
3.42539087e-05
1.54502722e-07
3.53934952e-05
2.69157856e-06
3.62339813e-05
6.03029433e-06
3.67304883e-05
1.03117291e-05
3.68310444e-05
1.56916053e-05
3.64803413e-05
2.23308144e-05
3.56228021e-05
3.04057752e-05
3.4185709e-05
4.01079049e-05
3.20873724e-05
5.16558143e-05
2.92356998e-05
6.53051722e-05
2.55188691e-05
8.13227002e-05
2.08334003e-05
9.98468386e-05
1.52040036e-05
0.000121330525
8.18811952e-06
0.000146159196
-2.55454995e-07
0.000174747675
-1.01100324e-05
0.000207560082
-2.19538514e-05
0.00024512612
-3.58835909e-05
0.000288228013
-5.21201334e-05
0.000337275676
-7.09563718e-05
0.000392876464
-9.27006924e-05
0.000455729276
-0.000117686153
0.00052657833
-0.000146264464
0.000606180403
-0.000178809082
0.000695322929
-0.000215710785
0.000794800378
-0.000257356777
0.000905375913
-0.00030412712
0.0010277452
-0.000356383084
0.00116251154
-0.000414450717
0.00131013448
-0.000478602907
0.00147087633
-0.000549042017
0.0016447695
-0.000625900506
0.00183161626
-0.000709275201
0.00203089204
-0.000799101697
0.00224151549
-0.000895171055
0.0024616889
-0.000996803722
0.00268887845
-0.00110310621
0.00291994804
-0.00121289943
0.00315114525
-0.00132465315
0.00337821081
-0.00143665287
0.00359659798
-0.00154691784
0.00380129874
-0.00165343965
0.00398970401
-0.00175664255
0.00415482838
-0.00185205819
0.00429398059
-0.0019390797
0.00440686961
-0.0020161337
0.00450229055
-0.00209229838
0.00459178043
-0.00216833237
0.00467180802
-0.00224240452
0.00474347361
-0.00231526646
0.00480857353
-0.00238691431
0.0048705403
-0.00245839671
0.00493165383
-0.00253138601
0.00499400853
-0.00260757647
0.00505874724
-0.0026884063
0.00512728269
-0.00277321048
0.00519695642
-0.00285814959
0.00527122156
-0.00295328236
0.00535466761
-0.0030570265
0.00544795737
-0.00315789149
0.00554717666
-0.00325307472
0.00564394749
-0.00334940016
0.00573582389
-0.00345858149
0.00582555281
-0.00357204575
-0.00368164626
0.00591690837
-4.19690475e-08
1.22067491e-06
-1.49066975e-07
3.64345057e-06
-3.01358429e-07
6.10649711e-06
-4.75117655e-07
8.58880246e-06
-6.42666677e-07
1.10694478e-05
-7.7205811e-07
1.35266009e-05
-8.2750607e-07
1.59371913e-05
-7.68240249e-07
1.82768174e-05
-5.4749723e-07
2.05193003e-05
-1.12696725e-07
2.26377195e-05
5.95133541e-07
2.46036899e-05
1.6424448e-06
2.63868721e-05
3.10471724e-06
2.795428e-05
5.06764248e-06
2.92700334e-05
7.62806003e-06
3.02952177e-05
1.08933526e-05
3.09885709e-05
1.49803875e-05
3.13064236e-05
2.00181758e-05
3.11961662e-05
2.61486342e-05
3.06000152e-05
3.35271724e-05
2.94525056e-05
4.23273797e-05
2.76801498e-05
5.27498573e-05
2.52003584e-05
6.502056e-05
2.19150604e-05
7.93798425e-05
1.77281657e-05
9.59753231e-05
1.26403193e-05
0.000115198838
6.29547735e-06
0.000137391224
-1.35883723e-06
0.000162920883
-1.03254806e-05
0.000192199281
-2.10900733e-05
0.000225689625
-3.37455682e-05
0.000264075312
-4.84954615e-05
0.000307726514
-6.56047709e-05
0.000357192478
-8.53492507e-05
0.000413101369
-0.000108028702
0.000476108109
-0.00013396277
0.000546897343
-0.000163489565
0.000626174481
-0.0001969629
0.000714645059
-0.000234734608
0.000812990772
-0.000277154297
0.000921837423
-0.000324556848
0.0010417295
-0.00037724814
0.00117309109
-0.000435487817
0.00131617857
-0.000499469445
0.00147102806
-0.000569298806
0.00163740229
-0.000644975365
0.00181474728
-0.000726384808
0.0020022288
-0.000813379411
0.00219853243
-0.000905575961
0.00240176529
-0.00100233161
0.00260926832
-0.00110267119
0.00281794245
-0.00120547527
0.00302436321
-0.00130952479
0.00322479077
-0.00141332534
0.00341582428
-0.00151568562
0.00359362311
-0.00161445109
0.00375475532
-0.00170804923
0.00389590665
-0.00179458935
0.00401601353
-0.00187674625
0.00411359136
-0.00194963142
0.00419603
-0.00202151316
0.00427210884
-0.00209220814
0.00434199905
-0.00216218663
0.00440720846
-0.0022335417
0.00446846026
-0.00230365721
0.00452731914
-0.00237412568
0.00458591807
-0.00244551167
0.00464578031
-0.00251825496
0.0047075792
-0.00259317919
0.00477297503
-0.00267296687
0.00484389852
-0.0027593232
0.0049193066
-0.00284861334
0.00499778809
-0.00293662539
0.00507487809
-0.00303036337
0.00514917288
-0.00313131023
0.00522570948
-0.00323441551
0.00530856424
-0.00333592158
0.00539407671
-0.00343491912
0.00547222282
-0.00353675752
0.00554579307
-0.00364567622
-0.00375433087
0.00561836807
-1.69829372e-08
1.2376857e-06
-4.07838086e-08
3.66728653e-06
-4.13263939e-08
6.10707715e-06
1.54455272e-08
8.53207074e-06
1.67978718e-07
1.0916958e-05
4.59554292e-07
1.32350722e-05
9.3873466e-07
1.54580618e-05
1.65973356e-06
1.75558737e-05
2.68245544e-06
1.94966385e-05
4.07370676e-06
2.12465335e-05
5.90797229e-06
2.27694959e-05
8.26809293e-06
2.40268298e-05
1.12453161e-05
2.49771429e-05
1.49409608e-05
2.55744833e-05
1.94665307e-05
2.57697525e-05
2.49479433e-05
2.55072743e-05
3.15278754e-05
2.47266201e-05
3.9364035e-05
2.33601493e-05
4.86310271e-05
2.13331817e-05
5.95240751e-05
1.85596336e-05
7.22606404e-05
1.49437801e-05
8.69916764e-05
1.04695399e-05
0.000104047254
4.85972195e-06
0.000123726013
-1.95033257e-06
0.00014635193
-9.98530652e-06
0.000172286254
-1.96385238e-05
0.000201932826
-3.10050522e-05
0.000235880522
-4.42727862e-05
0.000274466558
-5.96756809e-05
0.000318181546
-7.74600925e-05
0.000367580711
-9.7894126e-05
0.000423241283
-0.000121264809
0.000485768389
-0.000147875794
0.000555785992
-0.000178045722
0.000633918895
-0.00021209508
0.000720774053
-0.000250344134
0.000816915018
-0.000293103288
0.000922842177
-0.000340661223
0.00103895895
-0.000393270565
0.00116553337
-0.000451130824
0.00130265478
-0.00051436916
0.00145018658
-0.000583019292
0.0016077173
-0.000656999856
0.00177451498
-0.000736096156
0.00194950476
-0.000819964649
0.00213130069
-0.000908179949
0.00231803746
-0.00100011482
0.00250727503
-0.00109481135
0.00269612174
-0.00119117477
0.00288142832
-0.00128797248
0.00306017725
-0.00138421637
0.00322959388
-0.00147893094
0.00338731811
-0.00157103701
0.00352931042
-0.00165766455
0.00365271817
-0.00173784511
0.00375791702
-0.00181323346
0.00384791618
-0.00188457513
0.00392441563
-0.00195323361
0.00399326471
-0.00201846983
0.0040557648
-0.00208400528
0.00411175825
-0.00214819831
0.00416496685
-0.00221539554
0.0042157943
-0.00228437151
0.004267504
-0.00235536988
0.00432097168
-0.0024275964
0.00437721907
-0.00250176218
0.0044364055
-0.00257744289
0.00449902147
-0.00265579497
0.00456395068
-0.00273788937
0.00462792265
-0.00282328013
0.00469175057
-0.00291241696
0.00476011846
-0.00300496153
0.00482986043
-0.00310007223
0.00489678484
-0.00319820289
0.00496177169
-0.00329937151
0.00502970821
-0.00340383528
0.00510444524
-0.00350964259
0.00518275994
-0.00361508295
0.00526037331
-0.0037233256
-0.00383554056
0.00534152855
1.17465278e-08
1.22586547e-06
8.29386693e-08
3.59598283e-06
2.54821786e-07
5.9350611e-06
5.73112579e-07
8.21362867e-06
1.08836987e-06
1.04015335e-05
1.85637027e-06
1.24668903e-05
2.93861822e-06
1.4375619e-05
4.40299777e-06
1.60912865e-05
6.32445753e-06
1.75749584e-05
8.78583991e-06
1.87849181e-05
1.18787173e-05
1.96763728e-05
1.57042512e-05
2.02010373e-05
2.037525e-05
2.0305872e-05
2.60165845e-05
1.99328627e-05
3.27671869e-05
1.901885e-05
4.07799866e-05
1.74941601e-05
5.02257754e-05
1.52805029e-05
6.12947757e-05
1.2290806e-05
7.4142822e-05
8.48477686e-06
8.90396737e-05
3.66241105e-06
0.000106247335
-2.26426424e-06
0.000126047445
-9.33097258e-06
0.000148755344
-1.78486012e-05
0.000174721351
-2.79167855e-05
0.00020444198
-3.97064055e-05
0.000238225966
-5.34230078e-05
0.000276505651
-6.92852643e-05
0.000319763588
-8.75312837e-05
0.000368504588
-0.00010841728
0.000423258291
-0.000132214438
0.000484571579
-0.000159208099
0.000552994858
-0.00018968882
0.000629066927
-0.000223948646
0.000713294644
-0.000262274277
0.000806135887
-0.000304937217
0.000907972805
-0.000352182006
0.00101908066
-0.000404212154
0.00113959226
-0.000461173889
0.00126945893
-0.000523138359
0.00140840974
-0.0005900828
0.00155591112
-0.000661871738
0.00171113039
-0.000738239805
0.00187290755
-0.000818778314
0.00203974845
-0.000902938437
0.00220989316
-0.000990110842
0.00238121496
-0.00107950333
0.00255115269
-0.00117005438
0.00271695022
-0.00126061104
0.00287590499
-0.00135013224
0.00302530953
-0.00143738025
0.00316355915
-0.00152246979
0.00328687621
-0.00160225141
0.00339270957
-0.00167687245
0.00348122068
-0.00174617545
0.00355631091
-0.00181293108
0.00362213244
-0.00187904518
0.00368244077
-0.00194486806
0.00373877112
-0.0020095451
0.00379281884
-0.0020724968
0.00384535317
-0.00213652159
0.00389661682
-0.00219944275
0.00394579019
-0.00226454768
0.00399368728
-0.00233225191
0.00404170317
-0.00240337001
0.00409105011
-0.00247692588
0.00414305912
-0.00255375493
0.00419819667
-0.00263256764
0.00425502681
-0.00271261511
0.0043121201
-0.00279497491
0.00436914056
-0.00288029183
0.0044254989
-0.00296875938
0.00448437442
-0.00306381317
0.00454847355
-0.00316414152
0.00461721233
-0.00326690581
0.00468802992
-0.00337014951
0.00475824531
-0.00347401294
0.00483078599
-0.00358215667
0.00490850488
-0.00369280086
0.00498616031
-0.00380099491
-0.00391111102
0.00506167874
4.66421808e-08
1.17916447e-06
2.31862422e-07
3.41066828e-06
6.08969937e-07
5.55783769e-06
1.23620672e-06
7.5862574e-06
2.17730115e-06
9.4602882e-06
3.50199404e-06
1.11420314e-05
5.28667051e-06
1.25907617e-05
7.61510365e-06
1.37626573e-05
1.05793182e-05
1.46105321e-05
1.42798764e-05
1.50841315e-05
1.88288027e-05
1.51271998e-05
2.43492342e-05
1.4680339e-05
3.09772914e-05
1.36775264e-05
3.88630164e-05
1.20468258e-05
4.81734472e-05
9.7080816e-06
5.90633707e-05
6.60386956e-06
7.17475137e-05
2.59596358e-06
8.6461914e-05
-2.42402184e-06
0.000103449912
-8.50368797e-06
0.000122985202
-1.58733919e-05
0.000145365369
-2.46449914e-05
0.000171002914
-3.49691288e-05
0.000200181406
-4.70277636e-05
0.000233277121
-6.10132349e-05
0.00027070586
-7.71359535e-05
0.000312905308
-9.56233483e-05
0.000360335378
-0.000116716322
0.000413472144
-0.000140669145
0.000472797534
-0.000167743889
0.000538787313
-0.000198205578
0.000611895286
-0.000232317599
0.000692538516
-0.000270333772
0.00078107667
-0.00031248875
0.000877786649
-0.000358986478
0.000982833636
-0.000409986744
0.00109623875
-0.000465590033
0.00121784469
-0.000525821449
0.00134728091
-0.000590613988
0.00148393088
-0.000659792797
0.00162690438
-0.000733061443
0.00177501941
-0.000809992649
0.0019267974
-0.000890024541
0.00208048012
-0.000972468682
0.00223411025
-0.00105657683
0.00238555362
-0.00114156253
0.00253246605
-0.00122642377
0.00267254534
-0.00131014066
0.0028037143
-0.00139178502
0.00292418338
-0.00147060243
0.00303263168
-0.00154582479
0.00312719045
-0.00161702043
0.00320732103
-0.00168237111
0.00327511123
-0.00174464914
0.00333536709
-0.0018064155
0.00339103405
-0.00186858227
0.00344216363
-0.00193015859
0.00348886816
-0.00199155706
0.00353252525
-0.00205318819
0.00357472723
-0.00211468624
0.00361489961
-0.00217667982
0.00365614512
-0.00224067461
0.00369923745
-0.00230762993
0.00374436595
-0.00237737596
0.0037919259
-0.00245093139
0.00384282008
-0.00252782499
0.00389590337
-0.0026068441
0.00395169281
-0.00268835783
0.00401043041
-0.00277134676
0.00407208821
-0.00285661871
0.00413749748
-0.0029456794
0.00420765923
-0.00303889742
0.00427819431
-0.00313432292
0.00434907794
-0.00323499659
0.00442148088
-0.00333927501
0.00449496085
-0.00344359168
0.00456524083
-0.00354425848
0.00462931158
-0.0036461978
0.00468846642
-0.00375193907
0.00475658365
-0.00386909854
-0.00398136394
0.00482684879
8.99529639e-08
1.08901423e-06
4.14262236e-07
3.08606886e-06
1.0388205e-06
4.93293834e-06
2.03520127e-06
6.58948985e-06
3.48127605e-06
8.01378468e-06
5.46185236e-06
9.16098602e-06
8.06942539e-06
9.98267919e-06
1.1404719e-05
1.0426813e-05
1.55784986e-05
1.04361583e-05
2.07119617e-05
9.95002637e-06
2.69384243e-05
8.90004364e-06
3.44049682e-05
7.2130454e-06
4.32575242e-05
4.82415791e-06
5.3678811e-05
1.62466259e-06
6.58703035e-05
-2.4843542e-06
8.00437314e-05
-7.57058164e-06
9.64346481e-05
-1.37960676e-05
0.000115299863
-2.12904486e-05
0.000136972409
-3.01775495e-05
0.000161715878
-4.06182943e-05
0.000189852678
-5.27833521e-05
0.000221739852
-6.68580053e-05
0.000257753407
-8.30431794e-05
0.000298290292
-0.000101552154
0.000343762734
-0.000122610616
0.000394590861
-0.000146453899
0.00045119333
-0.000173321435
0.000513975409
-0.000203454107
0.000583316211
-0.000237087832
0.00065955319
-0.000274445979
0.000742961935
-0.00031573007
0.000833732776
-0.000361108668
0.000931944496
-0.000410704881
0.00103753569
-0.00046458247
0.00115027501
-0.000522731282
0.00126973199
-0.000585052692
0.00139525051
-0.000651346158
0.00152592823
-0.000721298474
0.00166060512
-0.000794477112
0.00179786611
-0.000870330618
0.0019360622
-0.000948197837
0.00207335167
-0.00102732424
0.00220777882
-0.00110690726
0.00233738257
-0.00118619298
0.00246022186
-0.00126441508
0.00257456664
-0.00134078269
0.00267903408
-0.00141462333
0.00277277347
-0.00148554083
0.00285492097
-0.00155276596
0.00292621979
-0.00161713754
0.00298630755
-0.00167712162
0.00303975891
-0.00173583579
0.0030896291
-0.00179452702
0.00313562261
-0.0018524092
0.00317812288
-0.00191107537
0.00321878739
-0.00197081027
0.00325836098
-0.0020311143
0.00329787568
-0.00209268421
0.00333852396
-0.00215531346
0.00338130907
-0.00221944543