/*--------------------------------*- C++ -*----------------------------------*\
  =========                 |
  \\      /  F ield         | OpenFOAM: The Open Source CFD Toolbox
   \\    /   O peration     | Website:  https://openfoam.org
    \\  /    A nd           | Version:  8
     \\/     M anipulation  |
\*---------------------------------------------------------------------------*/
FoamFile
{
    version     2.0;
    format      ascii;
    class       volVectorField;
    location    "0.005";
    object      U;
}
// * * * * * * * * * * * * * * * * * * * * * * * * * * * * * * * * * * * * * //

dimensions      [0 1 -1 0 0 0 0];

internalField   nonuniform List<vector> 
42400
(
(-0.0256164171 0.0244339705 -2.30370801e-26)
(-0.0759016058 0.069998316 7.61578812e-26)
(-0.12629822 0.112741131 7.99687752e-26)
(-0.176927981 0.152645973 0)
(-0.227850226 0.189820425 0)
(-0.279151382 0.224367067 -1.37172854e-27)
(-0.330928215 0.256406569 0)
(-0.383284848 0.286096475 1.52636935e-27)
(-0.436334835 0.313634393 0)
(-0.490200631 0.339255969 1.69595902e-27)
(-0.54500926 0.363230487 1.78655406e-27)
(-0.600885385 0.385854244 -1.88110759e-27)
(-0.657942516 0.407441875 -7.65689579e-26)
(-0.716272901 0.428316095 -7.5619732e-26)
(-0.775936663 0.448796439 -2.1890788e-27)
(-0.836950804 0.46918758 0)
(-0.899278668 0.489767786 0)
(-0.962820346 0.510777959 0)
(-1.02740466 0.532411586 0)
(-1.09278426 0.554807375 0)
(-1.15863277 0.57804414 0)
(-1.22454403 0.602137595 -6.10058912e-27)
(-1.29003373 0.627039425 -6.22845017e-26)
(-1.35454352 0.652638697 -1.09240855e-25)
(-1.41744705 0.678765628 -4.59022923e-26)
(-1.4780575 0.705197424 -7.23043791e-27)
(-1.53563625 0.731665738 -7.5244236e-27)
(-1.58940314 0.757864646 1.56471936e-26)
(-1.63854595 0.78345798 0)
(-1.68222867 0.808086168 0)
(-1.71964664 0.831402351 8.14508258e-28)
(-1.75008372 0.85308898 -1.97395319e-26)
(-1.77265312 0.873143697 1.80438644e-26)
(-1.78689674 0.890843204 1.13182803e-25)
(-1.79189792 0.906759568 7.73781941e-26)
(-1.78838371 0.91975121 0)
(-1.77274299 0.931344635 0)
(-1.7443463 0.93921037 0)
(-1.70040991 0.943579878 0)
(-1.64144635 0.944289493 1.05246683e-25)
(-1.56609712 0.94214402 1.08972589e-25)
(-1.47304795 0.937311489 1.04739652e-25)
(-1.3610224 0.929997908 2.60302798e-25)
(-1.2282814 0.920283317 -4.89228012e-26)
(-1.07200051 0.908031029 -5.59274021e-26)
(-0.889863716 0.893223502 -9.06305289e-26)
(-0.681302767 0.875280385 4.82325827e-26)
(-0.441279012 0.854941379 2.70561187e-25)
(-0.17536277 0.834850861 5.61184772e-26)
(0.131444614 0.8190577 4.9149586e-25)
(0.454313749 0.808474163 2.74768341e-33)
(0.84578435 0.792128447 1.45296054e-25)
(1.2936947 0.769056171 -5.26797186e-25)
(1.80017241 0.74514098 1.31582257e-25)
(2.37173485 0.72241014 0)
(3.01177279 0.700926063 0)
(3.72451064 0.680504453 0)
(4.51402944 0.660515248 -1.31670255e-25)
(5.38492195 0.639682397 -1.29503284e-25)
(6.33986158 0.617649693 0)
(7.38073206 0.594798522 3.28812464e-24)
(8.51219794 0.570329177 3.48582116e-24)
(9.72772625 0.54476699 -3.42022404e-24)
(11.0162909 0.517154667 -3.41286734e-24)
(12.3508702 0.495248804 0)
(13.7181528 0.473714282 0)
(15.1379525 0.394051772 -4.36308283e-24)
(16.4840894 0.385623259 -3.73963789e-24)
(17.6694482 0.537529157 9.41928219e-26)
(19.0291403 0.373036232 0)
(20.2868306 0.0333085321 0)
(21.1444672 0.413311407 7.54186525e-25)
(21.8498468 0.688902644 5.09060437e-25)
(22.560842 0.245024334 0)
(22.7589541 -0.0433110072 7.44866195e-25)
(22.8379536 0.216775993 -1.85672059e-24)
(22.840377 0.333708127 3.18248743e-24)
(22.7211593 0.404101463 -7.10126284e-25)
(22.6805326 0.194993263 -1.46251091e-23)
(22.6817423 0.135299908 -1.94359879e-23)
(-0.0360969484 0.0318913542 0)
(-0.106654005 0.0919667335 7.43104049e-26)
(-0.176815621 0.14894073 7.69273521e-26)
(-0.24652505 0.202648188 0)
(-0.315692552 0.253072199 0)
(-0.384267886 0.300203962 7.35802468e-26)
(-0.452221725 0.344063836 7.48432164e-26)
(-0.519542695 0.384719187 1.85367061e-27)
(-0.58623945 0.422287236 0)
(-0.652339944 0.456932883 2.04900761e-27)
(-0.717886883 0.488864313 2.15262259e-27)
(-0.78293056 0.518326579 -6.80431129e-26)
(-0.847519868 0.545593308 -1.29303854e-25)
(-0.911691935 0.570956917 -6.33521033e-26)
(-0.97546096 0.594717862 5.79700316e-26)
(-1.03880683 0.617173473 6.28978482e-26)
(-1.10166417 0.638606928 0)
(-1.16391239 0.659276878 5.9451241e-27)
(-1.22536714 0.679408177 0)
(-1.28577373 0.699184154 0)
(-1.34480256 0.718740752 0)
(-1.40204678 0.738162741 -3.59274248e-26)
(-1.45702213 0.757482173 -5.07514701e-26)
(-1.50916899 0.776679027 -1.3665777e-26)
(-1.55785672 0.795683352 0)
(-1.60238793 0.814377784 -1.65584612e-26)
(-1.64200286 0.832599504 -8.56797487e-27)
(-1.6759252 0.850162836 1.76524196e-26)
(-1.70340301 0.866869021 4.5821097e-26)
(-1.72349143 0.882733138 8.44746923e-26)
(-1.7355802 0.897152599 -1.92542089e-26)
(-1.73880246 0.910645351 -1.96705617e-26)
(-1.73349692 0.922396706 1.03035526e-25)
(-1.71631495 0.933282766 3.0413507e-26)
(-1.68625844 0.941424425 -8.75297226e-26)
(-1.64055717 0.946865913 -1.54668472e-25)
(-1.57969937 0.949546103 0)
(-1.50190321 0.950008141 2.35426926e-26)
(-1.40587268 0.948216926 0)
(-1.29009262 0.944123888 4.89955912e-26)
(-1.15260014 0.937676382 2.56405038e-25)
(-0.990873767 0.928737608 2.0064974e-25)
(-0.802579367 0.917244051 4.94980322e-26)
(-0.586872472 0.902425977 -4.98570155e-26)
(-0.338945891 0.884612976 1.06303784e-25)
(-0.0589538236 0.869405816 -5.20235832e-26)
(0.237226012 0.859398929 5.127993e-26)
(0.590884577 0.845642053 -9.37576954e-26)
(0.995393902 0.82554537 2.68270916e-25)
(1.45436355 0.803361283 0)
(1.96957363 0.782216754 -6.35959182e-26)
(2.54915601 0.762418928 1.18877077e-25)
(3.19521149 0.743345682 3.46581933e-25)
(3.91074291 0.724943347 6.05847587e-25)
(4.69929539 0.706869356 1.20381345e-25)
(5.56383524 0.688668189 1.62497944e-24)
(6.50652573 0.670533762 2.17441367e-24)
(7.52950957 0.653801887 -9.82357274e-26)
(8.63445271 0.639003257 -7.89407868e-26)
(9.81918977 0.624781007 2.62788558e-24)
(11.0727881 0.61165148 2.78786445e-24)
(12.3758365 0.599964162 1.21788137e-26)
(13.7106604 0.593578775 8.03129691e-28)
(15.0495142 0.587125448 0)
(16.3737167 0.577493225 -3.74124897e-24)
(17.628188 0.594110723 -8.39028031e-24)
(18.8479861 0.571124087 -4.45546874e-24)
(20.0273296 0.488902147 0)
(20.946 0.536787355 1.67992348e-26)
(21.797317 0.646634936 5.67439635e-25)
(22.4708035 0.494102918 1.43793874e-23)
(22.8456803 0.402087776 7.88693716e-24)
(22.9021068 0.514737309 3.21447537e-24)
(22.9044611 0.59664087 -1.62014175e-24)
(22.8108077 0.660993419 4.19581606e-26)
(22.7900175 0.508642774 1.00872918e-23)
(22.8025073 0.44054378 1.00560572e-23)
(22.7412057 0.479499302 -8.82929914e-25)
(22.710851 0.481469449 -8.26940736e-24)
(22.6823147 0.376276888 -1.12758022e-23)
(-0.0468464346 0.0382745147 1.05689549e-26)
(-0.138105438 0.110769615 7.91371955e-28)
(-0.228336351 0.179922372 -8.4487727e-28)
(-0.317266251 0.245424924 8.78719741e-28)
(-0.404657774 0.3071545 0)
(-0.490304991 0.364999394 -6.76777546e-26)
(-0.574037152 0.418886826 1.91882824e-33)
(-0.655714912 0.468800883 6.42739097e-26)
(-0.735232176 0.514785108 6.18820656e-26)
(-0.812514958 0.556940075 1.1814279e-25)
(-0.887516307 0.595418875 5.83441571e-26)
(-0.960208591 0.630420763 2.63969513e-27)
(-1.03057392 0.662183092 2.76631787e-27)
(-1.09859316 0.690971861 4.36204304e-26)
(-1.16423391 0.717071332 3.86509334e-26)
(-1.2274383 0.740773221 9.50346607e-27)
(-1.28811086 0.762365977 -3.37882808e-26)
(-1.34610734 0.782124678 -4.11168202e-26)
(-1.40122469 0.800302 -1.32808181e-26)
(-1.45319289 0.817120659 7.52820263e-27)
(-1.50166882 0.832767498 -7.84856632e-27)
(-1.54623199 0.84738898 -8.17763212e-27)
(-1.58638013 0.861087791 0)
(-1.62152697 0.873919872 1.76767248e-26)
(-1.65103225 0.885898666 -4.55355599e-26)
(-1.67423086 0.896990896 4.02872835e-29)
(-1.69025947 0.907323132 1.00276541e-25)
(-1.69849872 0.916546159 1.3439842e-25)
(-1.69822215 0.924901554 1.44285024e-25)
(-1.68906542 0.932514849 -9.86088015e-26)
(-1.66935674 0.93937769 -2.2521518e-26)
(-1.63655241 0.944445721 1.85959502e-25)
(-1.58845606 0.947480406 2.26411217e-25)
(-1.52514687 0.948461983 0)
(-1.44481516 0.947802114 0)
(-1.34596778 0.94539965 -2.58971941e-26)
(-1.22690861 0.941156669 0)
(-1.08543803 0.934991506 5.57545817e-26)
(-0.919419424 0.926804013 2.79026744e-25)
(-0.726731735 0.916552128 1.11985543e-25)
(-0.50621343 0.903534841 -2.32127215e-25)
(-0.253502601 0.887852993 0)
(0.0335299824 0.874356071 0)
(0.3379348 0.865147355 1.94517056e-25)
(0.701293404 0.85209498 1.92105386e-25)
(1.11404647 0.833549842 6.72562975e-26)
(1.57994508 0.814121619 0)
(2.1031629 0.795604782 0)
(2.68692366 0.777943581 4.28440995e-25)
(3.33417732 0.761044126 4.24850072e-25)
(4.04811516 0.74519192 -6.75550344e-26)
(4.83220207 0.730062434 0)
(5.68871446 0.715716586 -5.66748957e-25)
(6.61921757 0.703532119 -8.46255095e-25)
(7.62449161 0.694884744 -1.709544e-24)
(8.70293676 0.690057166 -1.70287043e-24)
(9.85285499 0.687567761 -1.98394559e-24)
(11.0679525 0.685778286 -7.86327967e-33)
(12.3343523 0.685463271 6.43819734e-33)
(13.6330892 0.686856962 -5.7152451e-24)
(14.9443094 0.692469302 -3.04477407e-24)
(16.2392986 0.698830939 3.29027009e-24)
(17.50071 0.714900011 3.3886657e-24)
(18.6705243 0.742129315 0)
(19.7768554 0.759034572 3.48335611e-24)
(20.7455893 0.768925352 6.86373174e-24)
(21.6444585 0.781587632 6.44601317e-24)
(22.3254729 0.742661165 0)
(22.8402578 0.691054023 -5.29634741e-26)
(22.9521437 0.748574883 6.6852825e-24)
(23.0065171 0.804054992 1.19252734e-24)
(22.9387932 0.834780811 0)
(22.8985552 0.810255147 0)
(22.8731321 0.765237763 3.51935201e-25)
(22.8359702 0.742587521 -3.9347421e-25)
(22.8119539 0.708935852 4.80505932e-24)
(22.8087768 0.650261721 6.87052801e-24)
(22.7683823 0.620702954 0)
(22.7320931 0.647322554 -5.07112689e-25)
(22.6986136 0.624227097 1.23066849e-23)
(-0.0574226733 0.04331516 5.93263078e-28)
(-0.168903134 0.125599656 9.36697996e-28)
(-0.278565675 0.204341502 3.19864144e-26)
(-0.385937734 0.279131105 -2.83417688e-26)
(-0.490601806 0.34974069 -2.91656469e-26)
(-0.592190584 0.415974157 0)
(-0.690386688 0.477681924 -5.32305773e-26)
(-0.784917645 0.534778606 -5.22835033e-26)
(-0.875557493 0.587245623 -4.5722728e-26)
(-0.962125217 0.635128776 -4.11186327e-26)
(-1.04447904 0.67853375 -3.01236838e-26)
(-1.12250796 0.717619906 7.40539773e-34)
(-1.19612127 0.752592486 3.19901793e-27)
(-1.26523657 0.783693529 4.29987416e-33)
(-1.32976664 0.811191919 -3.50622692e-27)
(-1.38960581 0.835373063 5.82699733e-27)
(-1.44461635 0.856528627 -1.49429247e-26)
(-1.49461535 0.874946509 -7.99624753e-27)
(-1.53936191 0.890901495 2.7178644e-26)
(-1.57854495 0.904647335 8.69535408e-27)
(-1.61178043 0.916410383 -1.81339812e-26)
(-1.63861977 0.926374236 -6.03034059e-26)
(-1.6585582 0.934667164 -7.78893364e-26)
(-1.6709188 0.941514608 9.98377736e-27)
(-1.67522288 0.946830702 0)
(-1.67090036 0.951168652 1.08815587e-26)
(-1.65735357 0.954502321 0)
(-1.63360376 0.957154356 1.39157904e-25)
(-1.59679811 0.958303476 2.71357746e-25)
(-1.54527165 0.957598042 2.06750673e-25)
(-1.47769677 0.955165533 -2.31273186e-25)
(-1.39345496 0.951315363 -2.87417911e-25)
(-1.29077259 0.946182541 5.65255796e-26)
(-1.16784597 0.939634047 2.96227489e-26)
(-1.02230983 0.931520861 -3.18005273e-25)
(-0.851861448 0.921736757 -3.31740484e-25)
(-0.654783861 0.90978697 0)
(-0.428526046 0.895610568 4.44328402e-25)
(-0.174659699 0.88073875 5.97309643e-25)
(0.116679422 0.868298916 6.75170415e-26)
(0.426257843 0.859143308 6.90212881e-26)
(0.796043331 0.845752861 0)
(1.21442908 0.827477819 0)
(1.68362001 0.809320735 0)
(2.20886474 0.792477241 7.94130547e-26)
(2.79228284 0.776591642 5.7301707e-25)
(3.43688916 0.761814654 5.03908382e-25)
(4.14599217 0.748119753 0)
(4.92277985 0.735808305 0)
(5.76943164 0.726044277 7.22819356e-25)
(6.68663583 0.720074098 6.81130559e-25)
(7.67335252 0.718602224 7.85545724e-25)
(8.72693608 0.721850459 8.31659312e-25)
(9.84273569 0.729626275 -1.34861017e-25)
(11.0171543 0.740630832 -1.16996901e-24)
(12.2417833 0.754003345 -1.07444321e-24)
(13.50039 0.769786729 -2.51428061e-24)
(14.7739791 0.788083874 -2.69104474e-24)
(16.038043 0.809332136 0)
(17.2699713 0.831428791 9.98611828e-27)
(18.4433692 0.855693594 -3.78872605e-24)
(19.5367366 0.876715485 -8.67625055e-24)
(20.5407277 0.901431203 5.51425022e-26)
(21.3806008 0.933544853 1.72621974e-25)
(22.11293 0.954875095 -7.95982318e-24)
(22.6917894 0.952100219 1.0259278e-23)
(22.9470087 0.976111055 7.98590459e-24)
(23.0133626 1.01681659 -2.2017191e-25)
(23.0029508 0.997169819 -1.95037785e-24)
(23.0060337 0.975073712 -3.38857107e-24)
(22.9917373 0.928420437 3.44490845e-26)
(22.9375812 0.953100924 -6.60840251e-24)
(22.888933 0.952633239 -6.1413329e-24)
(22.8570387 0.927400388 0)
(22.8235914 0.936848788 -7.11512547e-24)
(22.8061685 0.913803757 -1.65823526e-23)
(22.8025129 0.864333916 8.05513268e-25)
(22.8120391 0.814468058 6.04464273e-24)
(22.8390774 0.788974291 9.61960588e-24)
(22.8119736 0.792600443 8.19659747e-24)
(-0.0673708498 0.0468235393 8.68278189e-27)
(-0.1976745 0.135886774 0)
(-0.325203125 0.2212488 0)
(-0.449300604 0.302427525 7.50898442e-30)
(-0.56929406 0.379086639 0)
(-0.684721231 0.450986169 0)
(-0.795107666 0.517926414 0)
(-0.900043975 0.579769036 -5.85776816e-27)
(-0.999180258 0.636447472 0)
(-1.0922231 0.687965026 3.2220076e-27)
(-1.17892908 0.734390124 -4.09129865e-27)
(-1.2590953 0.775850149 4.43226533e-33)
(-1.33254745 0.812523977 -2.44427737e-27)
(-1.39912616 0.844633299 0)
(-1.45867193 0.872433128 -4.05764689e-27)
(-1.51100898 0.896201745 8.49466972e-27)
(-1.5559295 0.916226841 0)
(-1.593186 0.932790478 5.98193519e-26)
(-1.62248764 0.946158834 9.6839321e-27)
(-1.64346398 0.956615933 -1.70391481e-25)
(-1.65577794 0.964383134 -1.22381421e-25)
(-1.6590628 0.969840666 1.07872236e-26)
(-1.65291056 0.973507658 0)
(-1.63695605 0.975514961 -1.61771893e-25)
(-1.60952682 0.976023358 -1.57617905e-25)
(-1.56884827 0.974568474 -1.57595351e-25)
(-1.51340025 0.971036498 -2.06431305e-25)
(-1.4414647 0.965658494 2.54129374e-25)
(-1.35286465 0.958807198 2.71480081e-25)
(-1.24582116 0.950734311 0)
(-1.11859313 0.941390605 -3.12885981e-25)
(-0.969030631 0.930732828 -3.28705454e-25)
(-0.794918039 0.918700957 3.25161427e-26)
(-0.594665469 0.904655783 -3.27936006e-25)
(-0.36476765 0.888509708 -5.34108155e-25)
(-0.103586281 0.873130601 -7.20006713e-26)
(0.181714835 0.861828223 3.59979698e-26)
(0.497325805 0.850738885 -2.27686892e-25)
(0.875250431 0.833727353 -3.60114758e-25)
(1.29597991 0.8144453 6.28158356e-25)
(1.76501753 0.797049655 1.33212974e-24)
(2.28799255 0.781332232 6.7170174e-25)
(2.86712858 0.766581006 0)
(3.50547174 0.75318143 -9.53377401e-26)
(4.20645744 0.74173557 -6.89067396e-25)
(4.97310266 0.732934813 -9.88702538e-26)
(5.80680346 0.72760777 1.89674051e-32)
(6.7075698 0.726533636 -6.70371862e-25)
(7.67375167 0.730245976 0)
(8.70211526 0.739062223 -9.37234688e-26)
(9.78814794 0.753329285 -1.14999717e-24)
(10.9258875 0.773193616 -1.07613179e-24)
(12.1095565 0.797784915 -2.88756575e-25)
(13.3289517 0.826328126 -1.43792902e-24)
(14.5659877 0.858905183 -1.25632965e-24)
(15.799681 0.895685393 -1.31863914e-24)
(17.0063968 0.935013356 -4.13745951e-24)
(18.1645663 0.975053421 -2.88760641e-24)
(19.245651 1.01480818 -3.04179283e-24)
(20.2393827 1.05315084 -3.11427839e-24)
(21.1159224 1.08316036 0)
(21.8810425 1.09662854 1.36110633e-25)
(22.5245912 1.10756686 -8.64717703e-24)
(22.9314581 1.10873874 -1.00768991e-23)
(23.0639842 1.16251215 -2.3725888e-26)
(23.040276 1.19463044 0)
(23.0391139 1.21003141 1.22790643e-24)
(23.0010231 1.19991573 5.19165193e-24)
(22.9836982 1.18273624 1.71857909e-25)
(22.9698726 1.13293986 -2.43945748e-25)
(22.9500634 1.10112003 -3.35966032e-26)
(22.9284857 1.062635 -5.79727042e-25)
(22.8949297 1.06604894 -6.91878807e-24)
(22.864811 1.0762145 -7.64481275e-24)
(22.8534069 1.06469348 -4.55875823e-25)
(22.8509001 1.05537139 0)
(22.8608993 1.03993259 -5.36861173e-24)
(22.9068067 0.993259264 -8.31937224e-24)
(22.9858035 0.982837807 0)
(22.9471228 0.973287197 -8.38428115e-24)
(-0.0762473384 0.0487002811 -1.24976453e-26)
(-0.223062218 0.141304807 -1.86337696e-26)
(-0.365942063 0.230056861 -2.07453894e-26)
(-0.504032451 0.314440694 -1.39427991e-27)
(-0.636576289 0.39409573 1.46912671e-26)
(-0.762791104 0.468693095 -3.07815942e-27)
(-0.882151134 0.538008441 -4.70009231e-27)
(-0.994095664 0.60188678 -7.54133677e-27)
(-1.09814495 0.660233296 3.57136536e-27)
(-1.19388915 0.713025113 7.49275185e-27)
(-1.28097645 0.760307672 -5.74578779e-27)
(-1.35909839 0.802184964 -4.51567261e-26)
(-1.42797728 0.838809587 -4.14703492e-26)
(-1.48735638 0.870375295 -4.86448717e-26)
(-1.5369863 0.897103565 4.73975501e-27)
(-1.57661812 0.9192192 8.70096857e-26)
(-1.60600781 0.937099089 0)
(-1.62496376 0.951108337 0)
(-1.63322715 0.961697729 1.35557387e-25)
(-1.63055944 0.969262768 3.07663166e-25)
(-1.61627369 0.974128211 1.56460957e-25)
(-1.58873571 0.976085079 1.67193532e-25)
(-1.54690866 0.975185686 4.03850638e-33)
(-1.48935066 0.971629155 -2.35497194e-25)
(-1.41536507 0.965828149 2.40639631e-25)
(-1.32413444 0.958215422 5.56821813e-25)
(-1.21414295 0.94897273 2.82615656e-25)
(-1.08378084 0.938179496 -1.62773078e-26)
(-0.931092466 0.925925229 1.69185561e-26)
(-0.753985116 0.912280815 -3.4817102e-26)
(-0.550832921 0.896809482 0)
(-0.318631703 0.879657108 5.54278975e-25)
(-0.0557518474 0.86384223 -3.85863506e-26)
(0.226955345 0.850791615 -3.81634033e-25)
(0.558415086 0.835353246 0)
(0.93207756 0.817047496 -5.73946175e-25)
(1.35043423 0.798879588 -5.78043362e-25)
(1.81722356 0.782226461 0)
(2.33564312 0.766920568 0)
(2.90789061 0.752923684 -5.84452952e-25)
(3.53741184 0.741047478 -6.71885981e-25)
(4.22749191 0.731841944 2.17465162e-25)
(4.98068876 0.72578349 0)
(5.79801522 0.72356512 6.43846012e-25)
(6.67933609 0.725880702 1.47050393e-24)
(7.62313534 0.733361412 7.29374473e-25)
(8.62634679 0.746597616 1.14838568e-25)
(9.68425116 0.766097536 -2.42545334e-27)
(10.7902882 0.79212469 0)
(11.9368446 0.824546487 -1.2958318e-24)
(13.1154372 0.862506257 -1.88697992e-25)
(14.3161438 0.904501535 1.34818705e-24)
(15.5203618 0.950302481 -1.23225668e-25)
(16.7063632 0.99980537 -1.57940269e-24)
(17.8506094 1.0520249 -3.08600887e-24)
(18.9283461 1.1057121 -5.55454286e-33)
(19.919012 1.15851191 1.84540899e-24)
(20.8039283 1.20634275 0)
(21.5695646 1.2452879 0)
(22.2067138 1.27293833 8.7392736e-26)
(22.7161618 1.27400225 1.24827981e-25)
(23.0400232 1.31084975 0)
(23.0620519 1.32049871 3.46823921e-24)
(23.093604 1.33541292 1.06166639e-24)
(23.072195 1.32717708 -5.04304229e-24)
(23.0603443 1.31968736 -9.72754264e-24)
(23.0060064 1.33191021 -6.83956394e-24)
(22.9522834 1.3344812 -6.40965313e-24)
(22.9131539 1.32538504 -6.41140578e-24)
(22.8919997 1.30262599 -5.21541049e-25)
(22.8926549 1.2690277 6.28334041e-24)
(22.8959046 1.19816374 8.29667518e-24)
(22.9083979 1.17515079 -5.38339231e-24)
(22.922393 1.15496181 -7.11536513e-24)
(22.929345 1.1701827 -7.89061566e-24)
(22.928651 1.18688999 -8.51862451e-24)
(22.9736023 1.17416834 -7.66325578e-24)
(23.0649633 1.12092727 5.06130045e-32)
(23.1655063 1.10664579 2.06487079e-23)
(23.1601737 1.09445795 1.4330648e-23)
(-0.0838202671 0.0490403778 4.33314521e-27)
(-0.244283048 0.142094851 1.47459191e-27)
(-0.399360716 0.231109529 1.022086e-26)
(-0.548019273 0.315565963 -2.55600278e-33)
(-0.68934078 0.395104495 -5.23887584e-27)
(-0.822523154 0.469407941 -5.83783732e-27)
(-0.946723522 0.538198776 4.14774177e-27)
(-1.06125141 0.601314049 4.03492995e-27)
(-1.16558856 0.658644655 1.41223577e-26)
(-1.25918325 0.710188885 1.92628487e-26)
(-1.34158712 0.755940157 2.39655839e-26)
(-1.41237636 0.796081035 2.53059261e-26)
(-1.471264 0.830770253 3.79986106e-26)
(-1.51798011 0.860277466 5.23175257e-26)
(-1.55227992 0.884947945 5.49264248e-27)
(-1.57361275 0.904974704 5.72145127e-27)
(-1.58133919 0.920480939 1.51202188e-25)
(-1.57483255 0.931754519 1.66779928e-25)
(-1.55335429 0.939007299 -1.30282053e-26)
(-1.51592906 0.942471043 -1.37583772e-26)
(-1.46171342 0.94253654 2.20673138e-25)
(-1.39038144 0.939766355 2.43309365e-25)
(-1.30075907 0.934447907 0)
(-1.1915852 0.926792082 1.6309348e-26)
(-1.06141872 0.917013337 0)
(-0.90850159 0.905338478 0)
(-0.730943385 0.891958926 1.83814173e-26)
(-0.52716079 0.876618104 -4.21534504e-25)
(-0.294510439 0.859515651 -4.78092273e-25)
(-0.0311129324 0.843286236 4.72566697e-25)
(0.252841476 0.829279817 3.99830664e-25)
(0.584223657 0.813119381 4.45397438e-26)
(0.956362751 0.794794599 -4.6869703e-26)
(1.37153223 0.777176344 0)
(1.83341754 0.761082234 5.10643697e-26)
(2.34458791 0.746458855 0)
(2.9080164 0.733748705 0)
(3.52679687 0.723527492 5.78269763e-26)
(4.20373891 0.716277643 0)
(4.94108979 0.712522763 0)
(5.73986006 0.712968512 7.54492983e-25)
(6.60010819 0.718369607 9.20999625e-25)
(7.5205992 0.729449787 0)
(8.49855893 0.746856628 0)
(9.52948036 0.771130145 0)
(10.6069573 0.80262407 1.32957908e-25)
(11.7227156 0.841387812 1.28507743e-25)
(12.8670341 0.887165292 1.13202807e-24)
(14.0283732 0.939132569 1.39816487e-24)
(15.1982786 0.994678432 1.46447865e-24)
(16.3581532 1.05279769 1.55675139e-24)
(17.487085 1.11267713 1.56591716e-24)
(18.5628236 1.17286599 1.68973546e-24)
(19.562898 1.23208809 0)
(20.4666501 1.28862683 0)
(21.2542133 1.34225047 -2.14845091e-24)
(21.9149078 1.38834721 -4.46469964e-24)
(22.4380679 1.42470093 -2.47890906e-24)
(22.8563023 1.43840913 -3.41694534e-24)
(23.1078726 1.47331147 -3.38637929e-24)
(23.1376031 1.50019212 3.6982619e-24)
(23.1057554 1.49120682 6.24504928e-24)
(23.0935888 1.51097701 8.06867183e-27)
(23.0616393 1.49949109 -6.22015338e-24)
(23.0369023 1.4806466 7.6468895e-26)
(22.9966961 1.4647403 -1.88645961e-25)
(22.9554032 1.44003349 6.3930438e-24)
(22.9215044 1.42164655 -2.46387816e-32)
(22.8954571 1.40812717 -6.38733535e-24)
(22.8902916 1.38266619 -1.35125039e-25)
(22.8937843 1.3620339 5.07409723e-24)
(22.893682 1.35871151 7.33518301e-24)
(22.9473138 1.30729135 0)
(23.0312524 1.26019271 2.74961682e-25)
(23.0746825 1.25776963 0)
(23.088404 1.29513003 8.44219665e-24)
(23.1234128 1.31893236 1.57918168e-23)
(23.2058286 1.26571958 8.2461082e-24)
(23.289004 1.2422788 9.15555767e-24)
(23.3127366 1.19625076 2.06242152e-23)
(-0.0897462279 0.0479060622 2.20895141e-27)
(-0.260267907 0.138456971 6.10704056e-27)
(-0.423616624 0.224761868 -1.82313802e-27)
(-0.578601883 0.306328476 8.57639277e-28)
(-0.724172691 0.382810281 5.99038504e-27)
(-0.859376074 0.453951545 9.9583644e-27)
(-0.98336062 0.519515748 -4.45315165e-27)
(-1.09534591 0.579339421 -2.81038259e-26)
(-1.19453188 0.633350502 -3.47298439e-26)
(-1.28028428 0.681507135 -4.33689708e-26)
(-1.35199054 0.723904896 0)
(-1.40911999 0.76058039 -1.13266742e-26)
(-1.45107141 0.791712714 5.95059381e-27)
(-1.47724033 0.817472498 0)
(-1.4869723 0.83804229 0)
(-1.47980747 0.853838719 0)
(-1.45534887 0.865221499 0)
(-1.41274308 0.872519293 -7.50641177e-27)
(-1.35120852 0.876006038 0)
(-1.26979674 0.876002773 -1.53623909e-25)
(-1.16744158 0.872815491 -1.66035224e-25)
(-1.04289581 0.866771975 3.05754118e-25)
(-0.894651231 0.858209663 3.4552726e-25)
(-0.721068706 0.847425397 -3.34715059e-25)
(-0.520677591 0.834352076 -4.06615457e-25)
(-0.291199945 0.819272726 -4.81077461e-25)
(-0.0307670034 0.804467811 -4.76478613e-25)
(0.251471328 0.791171057 -4.59910751e-25)
(0.579523289 0.775934923 -8.70406457e-25)
(0.947170503 0.758962814 -5.4428289e-25)
(1.356528 0.742830566 0)
(1.8111433 0.72824892 -5.47826341e-26)
(2.31337832 0.715248315 -5.70630105e-26)
(2.86602756 0.704340513 0)
(3.47198437 0.69610052 6.14759777e-26)
(4.13376205 0.691110181 0)
(4.85353511 0.689962562 0)
(5.63238707 0.693399928 8.09829904e-25)
(6.47050946 0.702184656 -7.09163063e-26)
(7.36692543 0.717033101 -8.07753404e-25)
(8.31926335 0.738587695 9.23840426e-25)
(9.32355085 0.767394566 9.01789946e-25)
(10.3740156 0.803859255 7.55972151e-26)
(11.4629249 0.848190252 0)
(12.5805361 0.900330913 9.89375755e-25)
(13.7152144 0.959838718 1.40587991e-24)
(14.8542541 1.02574615 0)
(15.9855718 1.0959426 0)
(17.0942248 1.16823523 -1.70882308e-24)
(18.15999 1.24117028 -1.78453026e-24)
(19.1620968 1.31272859 1.79952625e-24)
(20.0811566 1.38070301 1.90059121e-24)
(20.8998107 1.44341916 -2.26533507e-24)
(21.6025243 1.49926789 -1.90561642e-32)
(22.181245 1.54737121 2.49070728e-24)
(22.6306555 1.58989588 1.21903301e-26)
(22.9361955 1.61591065 0)
(23.1602658 1.64202508 -1.63523967e-26)
(23.1930527 1.65315042 -3.10357773e-24)
(23.1733757 1.64871266 -1.71801122e-26)
(23.1340811 1.64572876 3.10428903e-24)
(23.106184 1.65037463 0)
(23.0780755 1.63475425 2.28609047e-26)
(23.044711 1.61131672 0)
(23.0114069 1.60659494 -1.91910548e-26)
(22.9797336 1.59519726 4.02141858e-26)
(22.9485133 1.59868372 4.92718661e-26)
(22.9250162 1.59743151 -7.4549362e-24)
(22.9243706 1.58818533 -4.99169121e-24)
(22.9531375 1.57088102 -1.4436761e-25)
(23.0017141 1.56709666 -7.72687169e-24)
(23.0358008 1.57527513 -8.42835031e-24)
(23.0926992 1.55533186 -9.10922731e-24)
(23.185732 1.49812364 -9.50300491e-24)
(23.2626404 1.45513105 -1.01653051e-23)
(23.2842112 1.44560049 -1.20683122e-23)
(23.2727012 1.46428349 8.29437354e-24)
(23.2855747 1.46027598 7.09637261e-24)
(23.3013898 1.41222769 -9.59676573e-25)
(23.2895955 1.39075361 7.81340077e-25)
(-0.093814716 0.0454578122 -4.0778693e-29)
(-0.270284197 0.130848082 -3.24444256e-28)
(-0.437351161 0.211745964 -2.16469357e-27)
(-0.593686769 0.287725133 -2.22479761e-33)
(-0.738111137 0.358486612 1.78836545e-26)
(-0.869553992 0.42377972 -2.52167418e-27)
(-0.987003288 0.483461299 3.12727953e-26)
(-1.08954173 0.537412693 4.2268094e-33)
(-1.17631943 0.585596786 -9.01578174e-26)
(-1.24655454 0.628040371 -5.72915305e-26)
(-1.29951574 0.664830756 6.48452833e-27)
(-1.33450082 0.696107813 -8.41948622e-26)
(-1.35081926 0.722058863 -8.14023416e-26)
(-1.3477622 0.742932233 -9.92741676e-26)
(-1.32469176 0.758936847 -1.09795065e-25)
(-1.28069924 0.770429304 1.21785519e-25)
(-1.21499364 0.777679357 1.34488985e-25)
(-1.12660137 0.781064217 -8.93912086e-27)
(-1.01443187 0.780950061 0)
(-0.877214364 0.777706785 -1.6232021e-25)
(-0.71353473 0.771697534 -1.79490272e-25)
(-0.522052146 0.763023542 -2.15934302e-26)
(-0.300845684 0.752038975 2.33662681e-25)
(-0.0482230861 0.740654995 2.66379465e-25)
(0.228273542 0.729900601 -4.82295799e-26)
(0.548857484 0.7173644 0)
(0.908282328 0.703338451 2.71093976e-26)
(1.30863012 0.690040809 3.56191231e-28)
(1.75298218 0.678161704 -6.14900959e-25)
(2.24356854 0.667848066 -6.0643533e-25)
(2.78297928 0.659674711 6.33534392e-25)
(3.37387054 0.654273312 5.59201187e-25)
(4.01857758 0.652279278 -1.39557219e-25)
(4.71913006 0.65433484 -6.38237752e-25)
(5.47666232 0.661181393 -5.3140719e-32)
(6.29148348 0.673576245 7.65620414e-25)
(7.16288431 0.69223061 -8.7668622e-25)
(8.08892556 0.717786069 -8.34620939e-25)
(9.06623451 0.750795654 -1.64785278e-25)
(10.0898006 0.791683385 8.40921857e-26)
(11.1528 0.840701537 8.35595164e-26)
(12.2464764 0.897884392 -1.08081252e-24)
(13.3601004 0.96300225 -2.2682091e-24)
(14.4810455 1.03550137 -1.28743887e-24)
(15.5951355 1.11445205 -1.57787438e-24)
(16.6873673 1.19841453 -1.56701712e-24)
(17.7450884 1.28470144 0)
(18.7499275 1.37135656 1.53317561e-24)
(19.6832231 1.45656443 1.58960678e-24)
(20.5273969 1.53776055 1.65048756e-24)
(21.2690666 1.61280708 3.49275302e-24)
(21.8996782 1.67789822 3.65077647e-24)
(22.415995 1.73575393 3.84887062e-24)
(22.822557 1.78030582 4.89645254e-24)
(23.0987021 1.82336083 3.20635518e-24)
(23.2422821 1.84018662 5.76545855e-26)
(23.2828808 1.87372198 0)
(23.2560749 1.8691898 -2.02084429e-24)
(23.2057142 1.90013234 -2.70378414e-24)
(23.154466 1.89413057 0)
(23.1149178 1.88219614 -2.82788236e-24)
(23.0842422 1.87613847 -2.34563595e-24)
(23.066981 1.82566424 0)
(23.0523328 1.82419232 4.52356159e-26)
(23.0312519 1.80721184 0)
(23.0155738 1.80297469 -7.90108115e-24)
(23.0152444 1.80044196 -2.63864525e-25)
(23.0173013 1.79197408 6.41673511e-24)
(23.0513581 1.78781315 -2.5160741e-25)
(23.1048575 1.76882193 -2.90458143e-25)
(23.1498342 1.7252971 -8.90304085e-24)
(23.1815411 1.71548576 -7.71714836e-24)
(23.2168252 1.70443472 -2.26654409e-25)
(23.2481953 1.68677724 -2.24456992e-25)
(23.2760756 1.65385433 -4.67257191e-26)
(23.3066966 1.60908301 -3.16530932e-25)
(23.3180254 1.58699259 8.54242132e-24)
(23.3090477 1.59593291 2.59031111e-23)
(23.3147251 1.58506584 7.49238405e-24)
(23.3074948 1.52997475 -8.00857828e-25)
(-0.0958338281 0.0418964275 0)
(-0.273620583 0.11988832 -2.46224537e-27)
(-0.439190818 0.193129474 2.59757763e-27)
(-0.591113075 0.261287487 -2.52775996e-26)
(-0.728118394 0.324135998 2.88140893e-27)
(-0.849039976 0.381520914 3.03307243e-27)
(-0.952786413 0.43334848 -4.70557328e-26)
(-1.03833664 0.479585143 0)
(-1.10473324 0.52025749 7.01691406e-27)
(-1.15107159 0.555450125 -7.79239456e-26)
(-1.17648454 0.585304811 -8.20801053e-26)
(-1.18011092 0.610037108 1.01641422e-25)
(-1.16116638 0.629822859 8.57889713e-27)
(-1.11865638 0.645028369 -2.4336542e-25)
(-1.05169303 0.655896258 -2.79639894e-25)
(-0.959249313 0.662798263 -1.43485216e-25)
(-0.840194546 0.666107543 -1.04129139e-26)
(-0.69328176 0.666208951 -1.76308771e-25)
(-0.517345893 0.663350604 -1.79164587e-25)
(-0.310855688 0.657933453 1.18575305e-26)
(-0.0717282316 0.651354554 -1.23957982e-26)
(0.193800691 0.644547148 -5.15324676e-26)
(0.501760572 0.636102141 -2.3160704e-25)
(0.848303406 0.626318462 -5.36570512e-25)
(1.2353459 0.617045189 -2.84980198e-25)
(1.66553594 0.608966713 -3.16112867e-26)
(2.14094982 0.602354589 -2.36816004e-25)
(2.66393959 0.597829025 3.42731961e-26)
(3.23690066 0.596057292 -3.58670827e-26)
(3.86197222 0.597713529 -3.05985874e-25)
(4.54102308 0.603475513 0)
(5.27522653 0.614080043 -7.82856295e-25)
(6.06500133 0.630279233 -8.36256099e-26)
(6.90988596 0.652783128 8.9152216e-25)
(7.80834198 0.682234067 9.33770255e-25)
(8.7575605 0.719188122 9.82265688e-25)
(9.75326499 0.76407992 -9.24966167e-26)
(10.7895339 0.817183227 0)
(11.8586674 0.878567919 -1.90407187e-25)
(12.9511153 0.948057528 -1.19095145e-24)
(14.0554889 1.02519131 -1.30140274e-24)
(15.1586798 1.10919511 9.45243979e-26)
(16.2461124 1.19896527 -9.25884308e-26)
(17.3021996 1.29301569 0)