/*--------------------------------*- C++ -*----------------------------------*\
  =========                 |
  \\      /  F ield         | OpenFOAM: The Open Source CFD Toolbox
   \\    /   O peration     | Website:  https://openfoam.org
    \\  /    A nd           | Version:  8
     \\/     M anipulation  |
\*---------------------------------------------------------------------------*/
FoamFile
{
    version     2.0;
    format      ascii;
    class       volScalarField;
    location    "0.001";
    object      p;
}
// * * * * * * * * * * * * * * * * * * * * * * * * * * * * * * * * * * * * * //

dimensions      [1 -1 -2 0 0 0 0];

internalField   nonuniform List<scalar> 
42400
(
101299.111
101299.148
101299.196
101299.254
101299.327
101299.421
101299.539
101299.688
101299.87
101300.089
101300.349
101300.649
101300.991
101301.375
101301.8
101302.263
101302.763
101303.297
101303.864
101304.46
101305.082
101305.729
101306.401
101307.104
101307.818
101308.539
101309.286
101310.051
101310.831
101311.626
101312.435
101313.259
101314.096
101314.945
101315.806
101316.678
101317.563
101318.453
101319.4
101320.38
101321.285
101322.198
101323.159
101324.126
101325.11
101326.105
101327.111
101328.128
101329.157
101330.197
101331.247
101332.307
101333.377
101334.455
101335.542
101336.636
101337.736
101338.843
101339.955
101341.066
101342.171
101343.27
101344.361
101345.444
101346.518
101347.583
101348.639
101349.686
101350.748
101351.756
101352.761
101353.786
101354.89
101355.93
101356.511
101357.941
101359.989
101360.875
101361.609
101362.475
101287.995
101288.035
101288.087
101288.148
101288.226
101288.326
101288.454
101288.614
101288.81
101289.047
101289.326
101289.65
101290.019
101290.432
101290.888
101291.385
101291.92
101292.491
101293.096
101293.732
101294.396
101295.086
101295.802
101296.551
101297.316
101298.093
101298.898
101299.722
101300.561
101301.418
101302.292
101303.183
101304.089
101305.009
101305.945
101306.897
101307.859
101308.871
101309.874
101310.83
101311.838
101312.886
101313.946
101315.019
101316.106
101317.207
101318.322
101319.45
101320.593
101321.748
101322.916
101324.097
101325.289
101326.493
101327.707
101328.932
101330.165
101331.407
101332.655
101333.902
101335.146
101336.387
101337.623
101338.854
101340.078
101341.293
101342.501
101343.702
101344.897
101346.125
101347.292
101348.4
101349.547
101350.795
101352.004
101353.034
101354.284
101354.531
101355.85
101357.05
101276.642
101276.687
101276.744
101276.813
101276.899
101277.009
101277.147
101277.319
101277.529
101277.781
101278.076
101278.417
101278.804
101279.235
101279.71
101280.228
101280.786
101281.381
101282.013
101282.678
101283.376
101284.103
101284.859
101285.641
101286.45
101287.288
101288.164
101289.045
101289.925
101290.84
101291.777
101292.73
101293.699
101294.688
101295.69
101296.742
101297.774
101298.788
101299.867
101300.969
101302.089
101303.226
101304.381
101305.555
101306.746
101307.956
101309.183
101310.427
101311.689
101312.967
101314.261
101315.572
101316.898
101318.239
101319.594
101320.962
101322.341
101323.732
101325.13
101326.526
101327.921
101329.315
101330.709
101332.101
101333.493
101334.875
101336.258
101337.624
101338.991
101340.358
101341.769
101342.985
101344.115
101345.604
101346.772
101347.416
101348.684
101349.568
101350.862
101351.654
101264.727
101264.765
101264.815
101264.877
101264.957
101265.062
101265.196
101265.367
101265.577
101265.832
101266.134
101266.485
101266.886
101267.337
101267.837
101268.385
101268.978
101269.614
101270.29
101271.004
101271.754
101272.538
101273.352
101274.195
101275.064
101275.961
101276.894
101277.835
101278.783
101279.764
101280.764
101281.778
101282.842
101283.907
101284.961
101286.058
101287.182
101288.335
101289.508
101290.703
101291.921
101293.161
101294.423
101295.708
101297.015
101298.344
101299.694
101301.066
101302.46
101303.876
101305.312
101306.769
101308.245
101309.74
101311.252
101312.78
101314.321
101315.876
101317.437
101318.999
101320.562
101322.127
101323.693
101325.262
101326.835
101328.406
101329.979
101331.542
101333.084
101334.669
101336.32
101337.796
101340.018
101342.816
101344.019
101344.509
101345.386
101345.662
101346.99
101347.709
101252.351
101252.386
101252.433
101252.492
101252.57
101252.673
101252.809
101252.983
101253.202
101253.469
101253.788
101254.161
101254.59
101255.075
101255.613
101256.203
101256.843
101257.53
101258.259
101259.028
101259.833
101260.672
101261.54
101262.438
101263.364
101264.328
101265.303
101266.288
101267.308
101268.376
101269.448
101270.52
101271.632
101272.769
101273.939
101275.134
101276.352
101277.595
101278.864
101280.159
101281.481
101282.828
101284.202
101285.603
101287.03
101288.486
101289.969
101291.479
101293.017
101294.582
101296.172
101297.787
101299.426
101301.087
101302.768
101304.467
101306.184
101307.916
101309.657
101311.402
101313.15
101314.898
101316.648
101318.398
101320.152
101321.91
101323.668
101325.442
101327.17
101328.975
101330.779
101332.852
101335.005
101336.882
101338.993
101340.663
101342.933
101345.985
101348.512
101347.896
101239.757
101239.798
101239.851
101239.916
101240.001
101240.112
101240.259
101240.446
101240.68
101240.965
101241.306
101241.704
101242.159
101242.671
101243.239
101243.859
101244.53
101245.248
101246.01
101246.813
101247.652
101248.527
101249.433
101250.371
101251.337
101252.332
101253.357
101254.413
101255.495
101256.604
101257.743
101258.913
101260.112
101261.339
101262.595
101263.879
101265.192
101266.535
101267.908
101269.312
101270.747
101272.213
101273.711
101275.242
101276.806
101278.403
101280.032
101281.694
101283.388
101285.112
101286.866
101288.649
101290.459
101292.295
101294.156
101296.04
101297.947
101299.876
101301.817
101303.764
101305.71
101307.652
101309.59
101311.522
101313.446
101315.369
101317.281
101319.205
101321.122
101322.953
101324.85
101326.66
101328.68
101330.754
101332.877
101334.71
101336.995
101340.603
101344.257
101346.226
101226.927
101226.971
101227.026
101227.095
101227.184
101227.301
101227.455
101227.651
101227.895
101228.194
101228.549
101228.963
101229.437
101229.97
101230.56
101231.206
101231.904
101232.651
101233.444
101234.281
101235.158
101236.074
101237.027
101238.015
101239.038
101240.094
101241.182
101242.302
101243.455
101244.64
101245.857
101247.106
101248.387
101249.702
101251.049
101252.429
101253.844
101255.292
101256.776
101258.296
101259.851
101261.444
101263.074
101264.741
101266.446
101268.189
101269.968
101271.783
101273.634
101275.519
101277.439
101279.392
101281.377
101283.394
101285.443
101287.523
101289.635
101291.777
101293.936
101296.097
101298.253
101300.399
101302.534
101304.657
101306.77
101308.869
101310.968
101313.046
101315.152
101317.205
101319.158
101321.084
101322.851
101324.717
101326.902
101329.196
101330.614
101332.383
101335.87
101339.619
101213.926
101213.969
101214.024
101214.093
101214.183
101214.301
101214.457
101214.658
101214.908
101215.214
101215.579
101216.006
101216.494
101217.045
101217.655
101218.324
101219.048
101219.825
101220.651
101221.524
101222.441
101223.401
101224.4
101225.438
101226.514
101227.63
101228.784
101229.977
101231.207
101232.474
101233.775
101235.112
101236.485
101237.895
101239.343
101240.828
101242.352
101243.915
101245.518
101247.162
101248.847
101250.573
101252.341
101254.151
101256.002
101257.894
101259.827
101261.8
101263.813
101265.864
101267.955
101270.084
101272.252
101274.459
101276.707
101278.995
101281.326
101283.692
101286.071
101288.449
101290.817
101293.171
101295.51
101297.833
101300.149
101302.462
101304.77
101307.08
101309.401
101311.744
101314.029
101316.368
101318.213
101321.263
101324.227
101325.597
101327.173
101328.455
101330.375
101331.926
101200.781
101200.822
101200.876
101200.942
101201.03
101201.149
101201.306
101201.509
101201.764
101202.079
101202.455
101202.897
101203.404
101203.978
101204.616
101205.317
101206.079
101206.897
101207.768
101208.69
101209.659
101210.674
101211.733
101212.835
101213.977
101215.16
101216.383
101217.646
101218.951
101220.298
101221.684
101223.111
101224.578
101226.088
101227.64
101229.235
101230.873
101232.556
101234.284
101236.057
101237.876
101239.741
101241.651
101243.608
101245.61
101247.658
101249.751
101251.889
101254.072
101256.301
101258.574
101260.892
101263.256
101265.664
101268.118
101270.617
101273.161
101275.732
101278.302
101280.863
101283.417
101285.984
101288.495
101290.989
101293.465
101295.952
101298.441
101300.929
101303.438
101306.003
101308.53
101311.317
101313.767
101315.683
101319.387
101322.988
101326.25
101328.036
101329.172
101330.575
101187.737
101187.779
101187.832
101187.898
101187.985
101188.104
101188.262
101188.469
101188.731
101189.054
101189.442
101189.898
101190.424
101191.019
101191.683
101192.412
101193.206
101194.06
101194.973
101195.942
101196.962
101198.033
101199.151
101200.317
101201.529
101202.784
101204.08
101205.419
101206.8
101208.228
101209.705
101211.23
101212.801
101214.417
101216.079
101217.789
101219.547
101221.354
101223.21
101225.116
101227.073
101229.081
101231.141
101233.252
101235.415
101237.631
101239.898
101242.218
101244.589
101247.011
101249.483
101252.004
101254.573
101257.186
101259.84
101262.529
101265.252
101267.985
101270.716
101273.412
101276.2
101279.021
101281.72
101284.357
101286.908
101289.565
101292.195
101294.815
101297.398
101300.097
101302.838
101305.8
101308.545
101310.632
101312.602
101315.212
101317.984
101321.108
101324.173
101325.951
101174.793
101174.836
101174.891
101174.958
101175.048
101175.169
101175.333
101175.546
101175.817
101176.151
101176.554
101177.028
101177.575
101178.195
101178.887
101179.648
101180.476
101181.368
101182.323
101183.339
101184.413
101185.543
101186.727
101187.961
101189.244
101190.575
101191.954
101193.38
101194.853
101196.373
101197.942
101199.563
101201.236
101202.961
101204.738
101206.568
101208.452
101210.391
101212.386
101214.439
101216.55
101218.72
101220.949
101223.239
101225.588
101227.998
101230.467
101232.995
101235.58
101238.221
101240.917
101243.664
101246.459
101249.296
101252.171
101255.08
101258.035
101260.994
101264.009
101266.895
101269.648
101272.703
101275.463
101278.044
101281.015
101283.959
101286.825
101289.593
101292.119
101294.312
101296.616
101301.195
101305.651
101308.241
101309.673
101312.089
101315.675
101318.609
101321.328
101324.287
101162.321
101162.365
101162.421
101162.49
101162.582
101162.707
101162.876
101163.096
101163.377
101163.724
101164.143
101164.637
101165.207
101165.853
101166.575
101167.37
101168.236
101169.17
101170.169
101171.231
101172.353
101173.533
101174.771
101176.065
101177.414
101178.816
101180.271
101181.779
101183.341
101184.955
101186.62
101188.339
101190.115
101191.95
101193.845
101195.801
101197.819
101199.9
101202.047
101204.26
101206.54
101208.887
101211.302
101213.784
101216.333
101218.948
101221.628
101224.372
101227.176
101230.041
101232.961
101235.933
101238.955
101242.017
101245.115
101248.246
101251.43
101254.591
101257.746
101260.932
101263.995
101267.03
101270.273
101273.497
101276.681
101279.884
101283.167
101286.622
101290.294
101294.468
101297.352
101298.502
101299.557
101302.433
101307.62
101312.124
101316.916
101320.606
101323.229
101325.852
101150.199
101150.246
101150.305
101150.377
101150.472
101150.603
101150.778
101151.008
101151.3
101151.663
101152.1
101152.616
101153.212
101153.887
101154.641
101155.471
101156.375
101157.349
101158.391
101159.498
101160.671
101161.906
101163.201
101164.558
101165.977
101167.457
101168.993
101170.587
101172.238
101173.949
101175.721
101177.555
101179.453
101181.415
101183.445
101185.544
101187.714
101189.956
101192.271
101194.659
101197.121
101199.657
101202.266
101204.946
101207.696
101210.514
101213.399
101216.347
101219.356
101222.423
101225.542
101228.711
101231.924
101235.179
101238.469
101241.804
101245.171
101248.59
101252.048
101255.475
101258.925
101262.329
101265.665
101269.052
101272.469
101275.926
101279.41
101282.987
101286.638
101290.165
101293.8
101297.364
101300.495
101302.622
101305.438
101308.507
101312.067
101316.019
101320.026
101323.608
101138.686
101138.735
101138.796
101138.87
101138.969
101139.103
101139.284
101139.522
101139.824
101140.2
101140.653
101141.189
101141.808
101142.513
101143.301
101144.171
101145.12
101146.144
101147.241
101148.405
101149.637
101150.933
101152.294
101153.719
101155.207
101156.76
101158.379
101160.062
101161.811
101163.626
101165.51
101167.464
101169.49
101171.59
101173.765
101176.018
101178.348
101180.757
101183.245
101185.811
101188.454
101191.173
101193.966
101196.831
101199.766
101202.768
101205.836
101208.966
101212.155
101215.4
101218.697
101222.044
101225.437
101228.876
101232.36
101235.877
101239.433
101243.019
101246.607
101250.219
101253.821
101257.478
101261.151
101264.78
101268.395
101271.963
101275.519
101279.079
101282.696
101286.414
101290.051
101293.429
101296.811
101300.159
101303.175
101306.222
101309.646
101313.829
101317.856
101321.678
101127.966
101128.016
101128.079
101128.155
101128.256
101128.394
101128.581
101128.827
101129.141
101129.531
101130.002
101130.559
101131.204
101131.937
101132.758
101133.665
101134.657
101135.73
101136.881
101138.108
101139.404
101140.769
101142.201
101143.7
101145.266
101146.898
101148.601
101150.377
101152.225
101154.148
101156.147
101158.224
101160.381
101162.619
101164.939
101167.342
101169.829
101172.398
101175.049
101177.78
101180.591
101183.479
101186.443
101189.48
101192.589
101195.768
101199.012
101202.32
101205.688
101209.111
101212.587
101216.111
101219.679
101223.285
101226.926
101230.596
101234.286
101238.008
101241.729
101245.452
101249.155
101252.868
101256.8
101260.696
101264.538
101268.44
101272.333
101276.26
101280.191
101284.088
101288.011
101291.908
101295.759
101299.834
101304.54
101309.928
101313.308
101314.81
101317.147
101320.115
101117.951
101118.004
101118.069
101118.148
101118.253
101118.396
101118.591
101118.846
101119.172
101119.577
101120.067
101120.647
101121.317
101122.08
101122.933
101123.877
101124.908
101126.025
101127.227
101128.512
101129.875
101131.314
101132.826
101134.41
101136.068
101137.801
101139.61
101141.496
101143.462
101145.509
101147.64
101149.856
101152.158
101154.547
101157.024
101159.588
101162.238
101164.974
101167.795
101170.701
101173.689
101176.758
101179.909
101183.138
101186.444
101189.824
101193.273
101196.787
101200.362
101203.993
101207.673
101211.4
101215.169
101218.977
101222.82
101226.7
101230.614
101234.563
101238.55
101242.494
101246.516
101250.267
101253.787
101257.603
101261.455
101265.342
101269.296
101273.288
101277.418
101281.381
101285.325
101289.172
101293.111
101296.364
101299.959
101305.516
101309.715
101313.037
101316.329
101319.958
101109.164
101109.217
101109.285
101109.366
101109.475
101109.624
101109.826
101110.092
101110.432
101110.854
101111.365
101111.969
101112.668
101113.462
101114.352
101115.335
101116.41
101117.573
101118.823
101120.157
101121.574
101123.074
101124.656
101126.317
101128.06
101129.885
101131.794
101133.788
101135.87
101138.039
101140.298
101142.647
101145.087
101147.617
101150.237
101152.948
101155.749
101158.64
101161.62
101164.689
101167.847
101171.093
101174.425
101177.84
101181.335
101184.903
101188.539
101192.237
101195.987
101199.785
101203.623
101207.495
101211.396
101215.317
101219.249
101223.187
101227.127
101231.043
101234.988
101238.889
101242.685
101246.731
101250.828
101254.832
101258.808
101262.71
101266.483
101269.655
101273.307
101278.37
101283.761
101289.108
101294.494
101299.423
101303.532
101306.245
101308.914
101312.588
101315.658
101318.493
101101.245
101101.301
101101.371
101101.455
101101.568
101101.723
101101.934
101102.211
101102.565
101103.005
101103.537
101104.167
101104.896
101105.725
101106.655
101107.682
101108.806
101110.024
101111.333
101112.733
101114.22
101115.799
101117.469
101119.229
101121.075
101123.008
101125.027
101127.136
101129.335
101131.626
101134.01
101136.486
101139.057
101141.72
101144.479
101147.332
101150.279
101153.322
101156.46
101159.692
101163.016
101166.43
101169.929
101173.509
101177.163
101180.884
101184.663
101188.492
101192.364
101196.268
101200.199
101204.148
101208.11
101212.079
101216.058
101220.044
101224.05
101228.07
101232.111
101236.326
101240.469
101244.537
101248.63
101252.528
101257.191
101263.049
101269.181
101276.26
101281.614
101284.636
101287.419
101290.191
101293.021
101295.408
101297.329
101300.841
101306.357
101311.287
101315.871
101320.047
101094.836
101094.893
101094.964
101095.051
101095.169
101095.332
101095.552
101095.843
101096.214
101096.675
101097.232
101097.891
101098.652
101099.518
101100.488
101101.559
101102.731
101104
101105.363
101106.821
101108.37
101110.01
101111.741
101113.566
101115.484
101117.496
101119.601
101121.801
101124.098
101126.491
101128.983
101131.573
101134.263
101137.053
101139.945
101142.938
101146.033
101149.23
101152.526
101155.92
101159.408
101162.986
101166.646
101170.383
101174.187
101178.05
101181.955
101185.898
101189.882
101193.901
101197.951
101202.016
101206.076
101210.15
101214.262
101218.423
101222.563
101226.64
101230.514
101234.829
101240.346
101246.489
101252.593
101258.541
101263.374
101267.115
101271.118
101274.543
101277.44
101280.555
101284.463
101288.347
101292.801
101296.29
101299.633
101304.782
101310.056
101314.706
101317.912
101321.042
101089.483
101089.541
101089.614
101089.704
101089.825
101089.993
101090.222
101090.525
101090.911
101091.39
101091.969
101092.652
101093.442
101094.34
101095.345
101096.455
101097.669
101098.985
101100.4
101101.912
101103.522
101105.227
101107.028
101108.927
101110.927
101113.031
101115.238
101117.545
101119.951
101122.457
101125.066
101127.778
101130.596
101133.52
101136.551
101139.689
101142.932
101146.28
101149.73
101153.278
101156.918
101160.646
101164.455
101168.335
101172.275
101176.263
101180.278
101184.313
101188.381
101192.49
101196.666
101200.853
101205.03
101209.06
101212.868
101217.391
101223.208
101229.429
101236.179
101240.729
101244.328
101248.553
101252.351
101256.538
101260.36
101264.353
101269.369
101273.723
101278.644
101283.382
101288.471
101293.022
101296.805
101301.192
101304.783
101306.659
101308.611
101312.134
101315.998
101319.281
101410.276
101410.335
101410.404
101410.474
101410.546
101410.621
101410.7
101410.78
101410.862
101410.945
101411.028
101411.11
101411.191
101411.27
101411.347
101411.42
101411.49
101411.555
101411.615
101411.67
101411.719
101411.763
101411.802
101411.834
101411.86
101411.88
101411.894
101411.9
101411.9
101411.892
101411.876
101411.853
101411.821
101411.781
101411.732
101411.674
101411.608
101411.532
101411.447
101411.353
101411.249
101411.136
101411.013
101410.881
101410.739
101410.588
101410.427
101410.258
101410.08
101409.892
101409.697
101409.493
101409.281
101409.062
101408.836
101408.604
101408.365
101408.12
101407.87
101407.616
101407.358
101407.096
101406.832
101406.565
101406.298
101406.034
101405.776
101405.522
101405.273
101405.029
101404.791
101404.558
101404.331
101404.109
101403.892
101403.681
101403.473
101403.268
101403.066
101402.851
101409.845
101409.909
101409.985
101410.062
101410.142
101410.225
101410.311
101410.4
101410.49
101410.581
101410.673
101410.763
101410.852
101410.939
101411.022
101411.102
101411.177
101411.246
101411.311
101411.369
101411.421
101411.466
101411.504
101411.535
101411.559
101411.575
101411.584
101411.586
101411.58
101411.566
101411.545
101411.515
101411.479
101411.434
101411.381
101411.32
101411.251
101411.173
101411.087
101410.992
101410.889
101410.777
101410.656
101410.526
101410.388
101410.241
101410.085
101409.92
101409.747
101409.566
101409.376
101409.178
101408.973
101408.76
101408.541
101408.315
101408.082
101407.844
101407.601
101407.353
101407.101
101406.846
101406.587
101406.326
101406.066
101405.81
101405.558
101405.312
101405.071
101404.835
101404.604
101404.379
101404.159
101403.944
101403.735
101403.53
101403.328
101403.129
101402.93
101402.714
101408.983
101409.033
101409.093
101409.155
101409.221
101409.292
101409.366
101409.444
101409.525
101409.609
101409.693
101409.779
101409.865
101409.95
101410.033
101410.114
101410.192
101410.266
101410.336
101410.4
101410.46
101410.513
101410.561
101410.602
101410.636
101410.663
101410.683
101410.696
101410.701
101410.699
101410.689
101410.671
101410.646
101410.612
101410.571
101410.521
101410.463
101410.397
101410.322
101410.239
101410.147
101410.046
101409.937
101409.819
101409.692
101409.556
101409.412
101409.258
101409.097
101408.927
101408.748
101408.562
101408.368
101408.166
101407.958
101407.743
101407.522
101407.296
101407.064
101406.827
101406.587
101406.343
101406.096
101405.847
101405.599
101405.356
101405.119
101404.887
101404.661
101404.44
101404.225
101404.016
101403.812
101403.614
101403.421
101403.233
101403.045
101402.862
101402.678
101402.473
101407.345
101407.389
101407.442
101407.497
101407.557
101407.621
101407.689
101407.762
101407.839
101407.919
101408.002
101408.088
101408.175
101408.263
101408.352
101408.44
101408.527
101408.612
101408.694
101408.773
101408.848
101408.918
101408.983
101409.043
101409.096
101409.144
101409.185
101409.22
101409.248
101409.269
101409.282
101409.288
101409.286
101409.277
101409.259
101409.233
101409.198
101409.156
101409.104
101409.043
101408.973
101408.895
101408.806
101408.709
101408.603
101408.487
101408.362
101408.228
101408.085
101407.933
101407.773
101407.605
101407.429
101407.246
101407.055
101406.858
101406.655
101406.447
101406.233
101406.015
101405.793
101405.568
101405.34
101405.11
101404.883
101404.662
101404.446
101404.237
101404.035
101403.839
101403.649
101403.465
101403.288
101403.116
101402.949
101402.787
101402.626
101402.467
101402.31
101402.128
101405.254
101405.311
101405.377
101405.446
101405.519
101405.595
101405.677
101405.762
101405.85
101405.942
101406.036
101406.132
101406.229
101406.326
101406.424
101406.52
101406.614
101406.707
101406.796
101406.882
101406.965
101407.043
101407.117
101407.187
101407.251
101407.311
101407.365
101407.413
101407.456
101407.493
101407.523
101407.547
101407.564
101407.574
101407.576
101407.57
101407.557
101407.535
101407.504
101407.465
101407.417
101407.36
101407.294
101407.219
101407.134
101407.041
101406.938
101406.827
101406.706
101406.578
101406.441
101406.296
101406.143
101405.983
101405.817
101405.644
101405.466
101405.283
101405.095
101404.903
101404.708
101404.51
101404.31
101404.108
101403.909
101403.717
101403.533
101403.356
101403.186
101403.024
101402.87
101402.722
101402.581
101402.446
101402.316
101402.19
101402.066
101401.943
101401.82
101401.683
101402.607
101402.654
101402.711
101402.77
101402.834
101402.903
101402.977
101403.056
101403.14
101403.228
101403.321
101403.417
101403.516
101403.617
101403.72
101403.824
101403.929
101404.034
101404.138
101404.241
101404.342
101404.441
101404.538
101404.632
101404.723
101404.81
101404.893
101404.972
101405.045
101405.113
101405.175
101405.231
101405.279
101405.321
101405.355
101405.381
101405.398
101405.407
101405.407
101405.398
101405.38
101405.354
101405.318
101405.273
101405.22
101405.157
101405.086
101405.006
101404.918
101404.821
101404.716
101404.603
101404.482
101404.355
101404.222
101404.083
101403.939
101403.791
101403.639
101403.484
101403.326
101403.166
101403.005
101402.842
101402.681
101402.527
101402.383
101402.248
101402.122
101402.003
101401.893
101401.791
101401.695
101401.606
101401.521
101401.442
101401.362
101401.287
101401.197
101401.111
101399.451
101399.493
101399.544
101399.599
101399.658
101399.724
101399.797
101399.876
101399.961
101400.053
101400.151
101400.255
101400.364
101400.477
101400.595
101400.715
101400.839
101400.964
101401.09
101401.216
101401.342
101401.467
101401.59
101401.711
101401.829
101401.943
101402.054
101402.16
101402.261
101402.356
101402.445
101402.527
101402.603
101402.671
101402.732
101402.784
101402.828
101402.864
101402.891
101402.911
101402.922
101402.925
101402.92
101402.909
101402.891
101402.865
101402.832
101402.792
101402.742
101402.686
101402.622
101402.55
101402.47
101402.384
101402.292
101402.195
101402.095
101401.991
101401.885
101401.777
101401.668
101401.557
101401.446
101401.334
101401.222
101401.115
101401.018
101400.932
101400.854
101400.786
101400.726
101400.675
101400.631
101400.593
101400.561
101400.535
101400.507
101400.492
101400.45
101400.425
101395.735
101395.772
101395.818
101395.869
101395.925
101395.988
101396.059
101396.137
101396.223
101396.317
101396.418
101396.527
101396.642
101396.765
101396.893
101397.026
101397.164
101397.305
101397.449
101397.596
101397.744
101397.892
101398.04
101398.188
101398.334
101398.477
101398.617
101398.754
101398.887
101399.014
101399.136
101399.252
101399.361
101399.464
101399.561
101399.651
101399.729
101399.8
101399.865
101399.923
101399.974
101400.018
101400.056
101400.092
101400.122
101400.151
101400.18
101400.192
101400.189
101400.191
101400.178
101400.163
101400.134
101400.089
101400.043
101399.995
101399.947
101399.897
101399.846
101399.795
101399.742
101399.689
101399.636
101399.582
101399.527
101399.475
101399.43
101399.395
101399.369
101399.353
101399.345
101399.346
101399.355
101399.373
101399.397
101399.432
101399.468
101399.531
101399.575
101399.659
101391.338
101391.366
101391.4
101391.44
101391.485
101391.537
101391.597
101391.666
101391.745
101391.834
101391.934
101392.044
101392.165
101392.296
101392.437
101392.587
101392.746
101392.912
101393.085
101393.262
101393.444
101393.629
101393.816
101394.003
101394.189
101394.374
101394.556
101394.735
101394.91
101395.08
101395.24
101395.394
101395.54
101395.682
101395.857
101395.996
101396.084
101396.193
101396.301
101396.401
101396.494
101396.577
101396.657
101396.729
101396.801
101396.928
101397.09
101397.144
101397.214
101397.292
101397.368
101397.494
101397.49
101397.467
101397.482
101397.496
101397.509
101397.522
101397.533
101397.542
101397.55
101397.557
101397.562
101397.566
101397.568
101397.571
101397.579
101397.596
101397.622
101397.656
101397.697
101397.748
101397.807
101397.877
101397.955
101398.051
101398.15
101398.3
101398.453
101398.704
101386.339
101386.382
101386.433
101386.487
101386.546
101386.613
101386.688
101386.773
101386.869
101386.976
101387.096
101387.229
101387.374
101387.531
101387.7
101387.879
101388.067
101388.263
101388.465
101388.673
101388.885
101389.099
101389.314
101389.53
101389.745
101389.959
101390.168
101390.374
101390.604
101390.81
101390.984
101391.17
101391.356
101391.537
101391.711
101391.88
101392.049
101392.214
101392.375
101392.532
101392.686
101392.834
101392.977
101393.115
101393.251
101393.369
101393.543
101393.699
101393.859
101394.075
101394.165
101394.236
101394.335
101394.444
101394.545
101394.64
101394.73
101394.815
101394.895
101394.971
101395.043
101395.112
101395.177
101395.239
101395.298
101395.357
101395.42
101395.491
101395.568
101395.65
101395.739
101395.833
101395.932
101396.042
101396.155
101396.288
101396.413
101396.603
101396.82
101397.233
101381.068
101381.13
101381.203
101381.28
101381.363
101381.454
101381.554
101381.665
101381.787
101381.92
101382.064
101382.221
101382.388
101382.566
101382.753
101382.949
101383.152
101383.362
101383.577
101383.796
101384.019
101384.244
101384.47
101384.697
101384.926
101385.173
101385.406
101385.618
101385.84
101386.064
101386.287
101386.509
101386.73
101386.949
101387.166
101387.381
101387.594
101387.805
101388.015
101388.222
101388.427
101388.627
101388.824
101389.078
101389.357
101389.534
101389.744
101389.962
101390.186
101390.374
101390.575
101390.79
101390.932
101391.114
101391.289
101391.457
101391.619
101391.773
101391.92
101392.062
101392.198
101392.331
101392.46
101392.586
101392.708
101392.828
101392.952
101393.079
101393.21
101393.34
101393.471
101393.599
101393.723
101393.848
101393.963
101394.082
101394.16
101394.271
101394.379
101394.79
101375.459
101375.512
101375.577
101375.647
101375.725
101375.813
101375.913
101376.023
101376.147
101376.283
101376.431
101376.592
101376.765
101376.949
101377.144
101377.349
101377.562
101377.783
101378.011
101378.246
101378.486
101378.731
101378.98
101379.234
101379.506
101379.77
101380.019
101380.283
101380.55
101380.819
101381.088
101381.359
101381.631
101381.904
101382.177
101382.451
101382.725
101382.998
101383.27
101383.54
101383.809
101384.074
101384.335
101384.589
101384.899
101385.178
101385.467
101385.812
101386.054
101386.302
101386.584
101386.86
101387.144
101387.423
101387.693
101387.944
101388.177
101388.41
101388.622
101388.817
101389.016
101389.216
101389.415
101389.611
101389.803
101389.993
101390.183
101390.374
101390.561
101390.741
101390.913
101391.073
101391.213
101391.339
101391.437
101391.506
101391.463
101391.382
101391.191
101391.221
101369.076
101369.113
101369.16
101369.213
101369.276
101369.349
101369.435
101369.535
101369.65
101369.782
101369.929
101370.094
101370.275
101370.472
101370.685
101370.913
101371.154
101371.408
101371.674
101371.951
101372.236
101372.529
101372.828
101373.137
101373.464
101373.783
101374.092
101374.416
101374.746
101375.078
101375.412
101375.748
101376.085
101376.424
101376.763
101377.102
101377.44
101377.778
101378.114
101378.449
101378.783
101379.115
101379.446
101379.777
101380.107
101380.43
101380.76
101381.086
101381.498
101381.891
101382.192
101382.508
101382.833
101383.238
101383.679
101383.938
101384.257
101384.693
101384.941
101385.168
101385.449
101385.731
101386.012
101386.29
101386.563
101386.832
101387.099
101387.36
101387.614
101387.858
101388.088
101388.301
101388.487
101388.652
101388.785
101388.881
101388.8
101388.579
101388.074
101387.794
101362.128
101362.164
101362.209
101362.26
101362.319
101362.391
101362.476
101362.578
101362.698
101362.837
101362.996
101363.176
101363.378
101363.6
101363.842
101364.103
101364.382
101364.677
101364.986
101365.309
101365.644
101365.988
101366.342
101366.719
101367.094
101367.454
101367.828
101368.213
101368.6
101368.99
101369.383
101369.777
101370.173
101370.57
101370.966
101371.363
101371.76
101372.156
101372.551
101372.945
101373.338
101373.731
101374.123
101374.515
101374.908
101375.3
101375.693
101376.081
101376.519
101376.994
101377.365
101377.769