/*--------------------------------*- C++ -*----------------------------------*\
  =========                 |
  \\      /  F ield         | OpenFOAM: The Open Source CFD Toolbox
   \\    /   O peration     | Website:  https://openfoam.org
    \\  /    A nd           | Version:  8
     \\/     M anipulation  |
\*---------------------------------------------------------------------------*/
FoamFile
{
    version     2.0;
    format      ascii;
    class       surfaceScalarField;
    location    "0.001";
    object      phi;
}
// * * * * * * * * * * * * * * * * * * * * * * * * * * * * * * * * * * * * * //

dimensions      [1 0 -1 0 0 0 0];

internalField   nonuniform List<scalar> 
84340
(
1.6725163e-07
-4.16675672e-06
3.99929614e-06
7.16215468e-07
-1.36530681e-05
1.3103764e-05
1.70477489e-06
-2.45935577e-05
2.36045754e-05
3.18615617e-06
-3.68839188e-05
3.54020432e-05
5.20915289e-06
-5.03922763e-05
4.83687238e-05
7.81708938e-06
-6.49631391e-05
6.23545925e-05
1.10474958e-05
-8.04224774e-05
7.71914114e-05
1.49315239e-05
-9.65861898e-05
9.27014563e-05
1.94934695e-05
-0.00011326766
0.000108704966
2.47502773e-05
-0.00013028499
0.000125027395
3.07110749e-05
-0.000147467606
0.000141505986
3.73768043e-05
-0.000164661768
0.000157995185
4.47401341e-05
-0.000181734802
0.000174370594
5.27858113e-05
-0.000198577932
0.000190531358
6.14915068e-05
-0.0002151076
0.000206400996
7.08296401e-05
-0.000231265733
0.000221926688
8.0769758e-05
-0.000247018717
0.000237077691
9.12819373e-05
-0.000262355629
0.000251842555
0.000102340602
-0.000277285865
0.000266226329
0.000113928655
-0.000291836277
0.000280247385
0.000126041505
-0.000306048362
0.000293934713
0.000138690691
-0.000319975917
0.000307325978
0.000151906944
-0.000333683507
0.000320466571
0.000165743296
-0.00034724629
0.000333409337
0.000180267375
-0.000360667584
0.000346142979
0.000195576985
-0.000373977126
0.000358667074
0.000211769701
-0.000387337139
0.000371144085
0.000228930447
-0.000400797101
0.000383636131
0.000247123235
-0.000414395784
0.000396202899
0.000266395124
-0.000428173873
0.000408902024
0.000286771827
-0.000442164458
0.000421787942
0.000308258734
-0.000456398574
0.000434912008
0.000330843367
-0.000470906523
0.00044832239
0.000354495956
-0.000485715381
0.000462063449
0.000379180717
-0.000500855102
0.000476171152
0.000404872564
-0.000516355926
0.000490665067
0.000431544979
-0.000532228015
0.000505556824
0.00045923931
-0.000548547704
0.00052085479
0.000487949085
-0.000565309706
0.000536601466
0.000517771033
-0.000582493251
0.000552673031
0.000549297821
-0.000600330931
0.00056880604
0.000582894158
-0.000619049095
0.000585454638
0.000619072011
-0.000638952241
0.000602776155
0.000658122023
-0.000660201487
0.000621153154
0.000700387577
-0.000682941267
0.00064067743
0.000746142549
-0.000707280241
0.000661527131
0.00079568799
-0.000733336453
0.000683793085
0.000849297366
-0.000761211288
0.000707604218
0.000907181664
-0.000790983015
0.000733101265
0.000969463414
-0.00082270389
0.000760424937
0.00103616822
-0.000856406193
0.00078970446
0.00110723238
-0.00089210676
0.000821045994
0.00118251933
-0.000929812022
0.000854528879
0.00126184017
-0.000969520501
0.000890204024
0.00134497265
-0.00101122202
0.000928094641
0.0014316726
-0.00105489311
0.00096819926
0.00152167601
-0.00110048881
0.00101049287
0.00161469468
-0.00114793562
0.00105492626
0.00171041694
-0.00119713247
0.00110142167
0.00180851851
-0.00124794582
0.00114985812
0.00190867924
-0.00130021016
0.00120006628
0.00201057122
-0.0013537306
0.0012518592
0.00211383058
-0.00140826043
0.00130502629
0.00221799999
-0.00146352608
0.00135938761
0.00232253562
-0.00151940973
0.00141491204
0.00242690836
-0.00157607843
0.0014717521
0.00253083746
-0.00163409601
0.00153022331
0.00263497927
-0.00169431255
0.00159023876
0.00274095634
-0.00175597252
0.00165007623
0.00284852659
-0.00181496655
0.00170748969
0.00294899297
-0.00186930596
0.00176894221
0.0030345925
-0.00192809609
0.00184260806
0.00311298464
-0.00199869104
0.00192042145
0.00320756461
-0.00207803196
0.00198358746
0.00333426318
-0.00216605818
0.00203953565
0.00350688046
-0.00225068831
0.00207826026
0.00372432589
-0.00232417627
0.00210687462
0.00396967602
-0.00237929742
0.00213407429
0.00421647718
-0.00241832396
0.00217132255
-0.00245629142
0.00223717852
0.00443517426
1.84985625e-07
-4.35202906e-06
7.82846806e-07
-1.42513368e-05
1.85153113e-06
-2.56627126e-05
3.44618197e-06
-3.84790979e-05
5.61717138e-06
-5.25638462e-05
8.40824594e-06
-6.77548421e-05
1.18551663e-05
-8.38700707e-05
1.59840712e-05
-0.000100715809
2.0810052e-05
-0.000118094393
2.63361839e-05
-0.000135811908
3.25532909e-05
-0.000153685529
3.94407478e-05
-0.000171550063
4.69684577e-05
-0.000189263366
5.51000252e-05
-0.000206710361
6.37971372e-05
-0.000223805572
7.30244483e-05
-0.000240493893
8.2754968e-05
-0.000256750062
9.29748562e-05
-0.000272576309
0.000103687148
-0.000287998905
0.00011491393
-0.000303063751
0.000126696441
-0.000317831496
0.000139092576
-0.000332372596
0.000152171615
-0.000346762991
0.000166005907
-0.000361080919
0.000180707139
-0.00037536904
0.000196413995
-0.000389684083
0.000213203704
-0.00040412681
0.00023107183
-0.000418665041
0.000249946691
-0.000433270298
0.000269815444
-0.000448042106
0.000290650635
-0.000462998939
0.000312430784
-0.000478177816
0.00033515133
-0.000493625957
0.000358844471
-0.000509407224
0.000383559404
-0.000525568591
0.000409422564
-0.000542217487
0.000436502046
-0.000559305749
0.000464860497
-0.000576904228
0.000494893863
-0.000595340674
0.000526972007
-0.000614568353
0.000561622199
-0.000634977565
0.000599326116
-0.000656749111
0.000640358931
-0.000679980985
0.000684928533
-0.000704766952
0.000733178516
-0.000731187095
0.000785200437
-0.000759297986
0.000841012062
-0.000789143861
0.000900559735
-0.000820754662
0.000963735455
-0.000854154319
0.00103040132
-0.000889365165
0.00110041177
-0.000926411835
0.00117363108
-0.000965320944
0.00124994076
-0.00100611618
0.0013292355
-0.00104880913
0.00141140694
-0.00109338657
0.00149631935
-0.00113979755
0.00158378275
-0.00118794273
0.00167353017
-0.00123767173
0.00176522437
-0.00128881329
0.00185847574
-0.00134118129
0.00195290011
-0.00139461553
0.00204817865
-0.00144898627
0.0021441067
-0.00150416091
0.00224054918
-0.0015599352
0.00233731796
-0.00161613833
0.00243415083
-0.00167286306
0.00253071702
-0.00173060483
0.00262739165
-0.00179091971
0.00272740577
-0.00185590846
0.0028356191
-0.00192309188
0.0029501041
-0.00198369581
0.00305646915
-0.00203436429
0.00314125511
-0.00208338392
0.00320472497
-0.00214141394
0.00325064916
-0.00221190804
0.00330730554
-0.00230730399
0.0034109384
-0.00242783975
0.00357405418
-0.00254257779
0.00380704885
-0.00265165871
-0.00273703518
0.00408737416
2.0374549e-07
-4.55605672e-06
8.65548382e-07
-1.491354e-05
2.04537079e-06
-2.6842996e-05
3.79210893e-06
-4.02263514e-05
6.14327814e-06
-5.49155789e-05
9.12343e-06
-7.07356006e-05
1.2744051e-05
-8.74913369e-05
1.70040125e-05
-0.00010497645
2.1891014e-05
-0.000122982104
2.73841917e-05
-0.000141305819
3.34578239e-05
-0.00015975991
4.0085935e-05
-0.000178178933
4.72473941e-05
-0.000196425584
5.49308278e-05
-0.000214394545
6.31385332e-05
-0.000232014006
7.18884674e-05
-0.000249244523
8.12179687e-05
-0.000266080214
9.11799844e-05
-0.000282538917
0.000101838905
-0.000298658344
0.000113264315
-0.000314489592
0.000125523271
-0.00033009078
0.000138671814
-0.000345521347
0.000152747177
-0.000360838426
0.000167761847
-0.000376095508
0.00018373687
-0.000391343805
0.000200681262
-0.000406628036
0.000218545575
-0.000421990493
0.000237238863
-0.00043735748
0.000256660587
-0.000452690944
0.000276811051
-0.00046819128
0.000297729617
-0.000483915996
0.000319488128
-0.000499934608
0.000342255476
-0.000516391369
0.000366147884
-0.000533297448
0.000391230668
-0.000550649003
0.000417735189
-0.000568719444
0.000445980327
-0.000587547875
0.000476360145
-0.000607280499
0.000509246344
-0.000628222864
0.000545118481
-0.000650436032
0.000584178988
-0.000674033193
0.000626507977
-0.000699072847
0.000672136994
-0.000725604436
0.000721040166
-0.000753664298
0.00077314758
-0.000783288482
0.00082836694
-0.00081451115
0.00088660297
-0.000847373559
0.000947781446
-0.000881926674
0.00101186415
-0.00091823044
0.00107885339
-0.000956347659
0.00114878205
-0.000996333574
0.00122168947
-0.00103822118
0.0012975866
-0.00108200579
0.00137641608
-0.00112763059
0.00145801591
-0.00117497775
0.00154209618
-0.0012238682
0.00162823796
-0.00127407365
0.00171591978
-0.0013253412
0.0018045696
-0.00137744915
0.0018936647
-0.00143026027
0.00198283196
-0.00148376393
0.00207195455
-0.00153808637
0.00216127752
-0.00159345687
0.00225143852
-0.00165006349
0.00234321863
-0.00170787901
0.00243732537
-0.00176692239
0.0025338594
-0.00182708267
0.00263224165
-0.00188923652
0.00273345943
-0.00195705285
0.002846182
-0.00203573559
0.00297966525
-0.00211710143
0.00313290407
-0.00218753056
0.00328990042
-0.00224031075
0.00343452247
-0.00228598853
0.00355213338
-0.00232951178
0.00363340573
-0.00238862722
0.00367646137
-0.00247104999
0.0037067219
-0.00257313427
0.00378128335
-0.00272665606
-0.00285494015
0.00389869673
1.70255337e-07
-4.72658319e-06
7.24449731e-07
-1.54681174e-05
1.71390316e-06
-2.78328893e-05
3.18097962e-06
-4.16939188e-05
5.15954382e-06
-5.68946791e-05
7.67505182e-06
-7.32516848e-05
1.07463659e-05
-9.05632632e-05
1.43881928e-05
-0.000108618921
1.86140391e-05
-0.00012720862
2.34394459e-05
-0.000146131917
2.88849555e-05
-0.000165206125
3.49784751e-05
-0.000184273164
4.17563846e-05
-0.0002032042
4.92633923e-05
-0.000221902244
5.75510342e-05
-0.000240302312
6.66751846e-05
-0.000258369298
7.66792959e-05
-0.000276084894
8.75948266e-05
-0.000293454947
9.94353421e-05
-0.000310499271
0.00011219247
-0.000327247027
0.000125834607
-0.000343733101
0.000140309449
-0.00035999623
0.000155551283
-0.000376080139
0.000171493626
-0.000392037546
0.000188066036
-0.000407915705
0.000205199532
-0.000423760809
0.000222786916
-0.000439576916
0.000240801486
-0.000455370786
0.000259423512
-0.000471311355
0.00027884923
-0.000487614996
0.000299257612
-0.000504321924
0.000320797763
-0.00052147194
0.000343694627
-0.000539285112
0.000368194502
-0.000557793777
0.000394642116
-0.000577092652
0.000423314383
-0.000597387391
0.000454546615
-0.000618775384
0.000488644299
-0.00064137303
0.000525655759
-0.00066522873
0.000565601614
-0.000690375857
0.000608420841
-0.000716845965
0.000654030558
-0.000744675696
0.000702347293
-0.000773913912
0.000753310931
-0.0008046203
0.000806899947
-0.000836869512
0.000863145745
-0.000870748627
0.000922131639
-0.000906350829
0.000983978204
-0.000943764318
0.00104881464
-0.000983057688
0.00111673973
-0.00102426329
0.00118777839
-0.00106736252
0.00126184256
-0.00111227534
0.00133870486
-0.00115885778
0.00141799411
-0.00120690916
0.00149921805
-0.00125619059
0.00158181544
-0.00130645387
0.00166523332
-0.00135747909
0.00174902129
-0.00140911595
0.00183287035
-0.00146128421
0.00191668959
-0.00151406419
0.00200065755
-0.00156771474
0.00208525238
-0.00162266128
0.0021712518
-0.00167943276
0.00225976225
-0.00173854552
0.00235210041
-0.00180018281
0.00244946294
-0.00186424294
0.00255248769
-0.00193005628
0.00265958759
-0.00199627502
0.00276636828
-0.00206376303
0.00287265615
-0.00214194823
0.00299151481
-0.00223588806
0.00313724463
-0.00233319406
0.00331372741
-0.00241674923
0.00351732769
-0.00248957585
0.00374676057
-0.00255897359
0.00398364798
-0.00262561649
0.00418821241
-0.00267581274
0.0043526423
-0.00273788551
0.00446636869
-0.00284080485
-0.00294431467
0.00455531885
1.64013317e-07
-4.89087593e-06
6.93123028e-07
-1.59976239e-05
1.63765401e-06
-2.87778773e-05
3.04687016e-06
-4.31036452e-05
4.9689688e-06
-5.88173344e-05
7.45101706e-06
-7.57343304e-05
1.05395955e-05
-9.36524741e-05
1.42809188e-05
-0.000112360907
1.87204974e-05
-0.000131648884
2.39020016e-05
-0.000151314122
2.98653398e-05
-0.000171170172
3.66438174e-05
-0.000191052347
4.42607503e-05
-0.000210821823
5.27258852e-05
-0.000230368042
6.20324587e-05
-0.000249609505
7.2156037e-05
-0.000268493437
8.30507111e-05
-0.000286980052
9.46539193e-05
-0.000305058544
0.000106891469
-0.000322737094
0.000119685326
-0.000340041022
0.000132963665
-0.000357011422
0.000146671926
-0.000373704295
0.000160782979
-0.000390190791
0.000175303887
-0.000406557829
0.000190281304
-0.000422892272
0.000205808725
-0.000439287153
0.000222039302
-0.000455806146
0.000239214453
-0.000472544302
0.000257611455
-0.000489706475
0.000277434546
-0.000507435941
0.000298901681
-0.000525786513
0.000322252653
-0.000544819901
0.000347647453
-0.000564676413
0.000375282948
-0.000585425238
0.000405364971
-0.000607170052
0.000437948125
-0.000629965307
0.000473017637
-0.000653839034
0.000510481495
-0.000678830411
0.000550246287
-0.000704986441
0.000592247943
-0.000732369849
0.00063647012
-0.000761059912
0.000682954141
-0.000791150936
0.000731799882
-0.000822750337
0.000783160895
-0.000855971468
0.000837224378
-0.000890922637
0.00089417946
-0.000927692835
0.000954177032
-0.000966337028
0.00101728738
-0.00100686278
0.00108346368
-0.00104922162
0.00115252011
-0.00109330685
0.00122413057
-0.00113895965
0.0012978529
-0.00118598386
0.00137317876
-0.00123416945
0.00144960689
-0.00128332271
0.00152673075
-0.00133329959
0.00160432995
-0.00138403786
0.00168244688
-0.00143558065
0.00176141382
-0.00148806749
0.00184171434
-0.00154156952
0.00192395731
-0.00159629174
0.00200880158
-0.00165254308
0.00209688834
-0.00171073081
0.00218871461
-0.00177123992
0.00228451451
-0.00183432339
0.00238445987
-0.00190010264
0.00248874168
-0.00196849452
0.00259800454
-0.00203928372
0.00271199817
-0.00211022774
0.00282575722
-0.0021774781
0.00292699739
-0.00224314284
0.00301296535
-0.00232181112
0.00309663866
-0.00241682777
0.00320207111
-0.00252215558
0.00334722779
-0.00263473934
0.00353943787
-0.00275126435
0.00380426582
-0.00289062332
0.00414051088
-0.00301236501
0.00448553972
-0.00308330807
0.00478256571
-0.00313816781
-0.00323136897
0.00506929877
1.90241691e-07
-5.08135715e-06
7.99761433e-07
-1.66074806e-05
1.88172695e-06
-2.9860228e-05
3.48707849e-06
-4.47094247e-05
5.66397846e-06
-6.09946988e-05
8.45668856e-06
-7.85275363e-05
1.19043842e-05
-9.71006915e-05
1.60394118e-05
-0.000116496476
2.08853728e-05
-0.000136495401
2.64551404e-05
-0.000156884451
3.27490866e-05
-0.000177464675
3.97539678e-05
-0.00019805777
4.74426998e-05
-0.000218511069
5.57753933e-05
-0.000238701206
6.47014989e-05
-0.000258536022
7.41630333e-05
-0.000277955307
8.41129623e-05
-0.00029693022
9.45159206e-05
-0.000315461627
0.000105356489
-0.000333577649
0.000116646284
-0.000351330645
0.000128428661
-0.000368793444
0.000140780459
-0.000386055533
0.00015380887
-0.000403218411
0.000167643204
-0.000420391117
0.000182439305
-0.000437687039
0.000198377045
-0.000455223239
0.000215689184
-0.000473116268
0.000234619062
-0.000491471772
0.000255296342
-0.000510380911
0.000277788381
-0.000529924659
0.000302180602
-0.000550174914
0.000328568784
-0.000571203759
0.000356969442
-0.000593072239
0.000387374888
-0.000615825331
0.00041972197
-0.000639511225
0.000453953493
-0.00066419033
0.000490059847
-0.000689938256
0.000528083329
-0.000716846092
0.000568124608
-0.000745019218
0.000610336873
-0.000774572883
0.000654912556
-0.000805625616
0.000702061871
-0.000838289502
0.000751981429
-0.000872658366
0.00080481839
-0.000908796098
0.00086063529
-0.0009467264
0.000919382738
-0.000986426318
0.000980885614
-0.00102782511
0.0010448477
-0.00107080923
0.00111087672
-0.00111523419
0.00117852985
-0.0011609427
0.00124737605
-0.00120778784
0.00131706952
-0.00125565863
0.00138742487
-0.0013045056
0.00145848424
-0.0013543625
0.00153056452
-0.00140536019
0.00160426993
-0.00145772357
0.00168045994
-0.00151175133
0.00176008367
-0.00156767261
0.00184387305
-0.00162534146
0.0019323393
-0.00168474147
0.00202560478
-0.00174579288
0.00212346458
-0.00180857526
0.00222550078
-0.00187326077
0.00233081115
-0.00193961762
0.00243811031
-0.00200738431
0.00254628382
-0.00207664847
0.0026553967
-0.00214837507
0.00276820963
-0.0022230184
0.00288738289
-0.00229663261
0.00300656421
-0.00236231211
0.0031089017
-0.00242414821
0.00319193208
-0.00249987261
0.00326422128
-0.00259448103
0.00332194947
-0.00269253569
0.00336829939
-0.00279772744
0.00344157087
-0.00296406506
0.00362447708
-0.00319550564
0.00392650032
-0.00338561627
0.00426955384
-0.00348150109
-0.00358020088
0.00461812673
2.03692418e-07
-5.28531854e-06
8.50885379e-07
-1.72550523e-05
1.99092948e-06
-3.10007057e-05
3.66765275e-06
-4.63866294e-05
5.91796773e-06
-6.32455361e-05
8.77078429e-06
-8.13809098e-05
1.22459079e-05
-0.0001005764
1.63533204e-05
-0.000120604495
2.10929999e-05
-0.000141235699
2.64555114e-05
-0.000162247584
3.24236719e-05
-0.000183433448
3.89752448e-05
-0.000204609934
4.6086854e-05
-0.000225623232
5.37387293e-05
-0.000246353582
6.19200894e-05
-0.000266717809
7.06342581e-05
-0.00028666981
7.99029349e-05
-0.000306199115
8.97691318e-05
-0.000325327903
0.000100298118
-0.000344106552
0.000111575874
-0.00036260813
0.000123705242
-0.000380922326
0.000136799984
-0.000399149551
0.000150978223
-0.00041739566
0.000166356331
-0.000435767949
0.000183043971
-0.000454373096
0.000201124634
-0.000473301986
0.000220662187
-0.000492651537
0.000241702533
-0.000512509428
0.000264274764
-0.00053294999
0.000288402555
-0.000554048793
0.00031410379
-0.000575871946
0.000341388614
-0.000598483803
0.000370276442
-0.000621954674
0.000400822875
-0.000646365733
0.000433127088
-0.000671808736
0.000467328918
-0.00069838476
0.000503599495
-0.000726200701
0.000542126569
-0.000755364273
0.000583093956
-0.000785976917
0.000626657565
-0.000818125976
0.000672919717
-0.000851876389
0.000721906421
-0.000887263927
0.000773551775
-0.000924290503
0.000827693153
-0.00096292328
0.000884080025
-0.00100309806
0.000942397315
-0.00104472733
0.00100230229
-0.00108771274
0.00106347226
-0.00113196074
0.0011256579
-0.00117740028
0.00118873572
-0.00122399992
0.00125275265
-0.00127178321
0.00131795625
-0.00132083983
0.00138480553
-0.0013713319
0.00145395905
-0.00142349264
0.00152623905
-0.00147761678
0.00160256038
-0.00153402157
0.00168382436
-0.00159299247
0.00177055665
-0.00165438301
0.00186272908
-0.00171749339
0.00195992025
-0.0017819134
0.00206106784
-0.00184692265
0.00216480723
-0.00191229809
0.0022702555
-0.00197869407
0.00237692462
-0.00204627319
0.00248412448
-0.00211457224
0.00259116354
-0.0021836774
0.0026974152
-0.00225461997
0.00280506926
-0.00233067075
0.00292224434
-0.00241381476
0.00305803215
-0.00249812045
0.00320772513
-0.0025738806
0.0033578569
-0.00265007257
0.00351104614
-0.00274778461
0.00366593723
-0.00284758555
0.00378025218
-0.00291223406
0.00381289631
-0.00299693
0.00378640946
-0.00316923167
0.00385263518
-0.00345203205
0.00401249127
-0.00364151301
-0.00376125949
0.0041933956
2.05742773e-07
-5.49124301e-06
8.54936285e-07
-1.7904496e-05
1.99121123e-06
-3.21372617e-05
3.65112404e-06
-4.80468493e-05
5.86351601e-06
-6.54582554e-05
8.64921581e-06
-8.41669514e-05
1.20210846e-05
-0.000103948618
1.59848307e-05
-0.000124568591
2.05401033e-05
-0.000145791312
2.56827344e-05
-0.000167390536
3.14075366e-05
-0.000189158538
3.77116097e-05
-0.000210914247
4.45978616e-05
-0.000232509659
5.20780895e-05
-0.000253833902
6.01754711e-05
-0.00027481518
6.89258417e-05
-0.000295420045
7.8377254e-05
-0.000315650244
8.85868357e-05
-0.000335537032
9.96238161e-05
-0.000355142883
0.000111561852
-0.000374545295
0.000124474542
-0.000393833898
0.000138430781
-0.000413104396
0.000153490113
-0.000432453293
0.000169698432
-0.000451974237
0.000187083688
-0.000471755954
0.000205715399
-0.000491930904
0.000225657488
-0.000512590398
0.000246976791
-0.000533825031
0.000269762398
-0.000555731381
0.000294084522
-0.000578366145
0.000320021158
-0.000601803205
0.000347669356
-0.000626125982
0.000377146167
-0.000651424779
0.00040857976
-0.000677791897
0.000442098726
-0.000705319506
0.000477818648
-0.000734095684
0.000515828319
-0.000764200529
0.000556176184
-0.000795701412
0.000598859732
-0.000828648813
0.000643819216
-0.000863072843
0.000690938397
-0.000898981942
0.000740052791
-0.000936363636
0.000790966676
-0.000975188603
0.000843477577
-0.00101541725
0.000897406474
-0.00105700884
0.000952630359
-0.0010999319
0.00100911307
-0.00114417491
0.00106692989
-0.00118975581
0.00112628207
-0.00123672956
0.00118749925
-0.00128519313
0.00125102843
-0.00133528755
0.00131741086
-0.00138719671
0.00138724688
-0.00144114202
0.00146115028
-0.00149737003
0.00153969251
-0.00155613332
0.00162331821
-0.00161762207
0.00171222913
-0.0016818793
0.0018059801
-0.00174811159
0.00190348468
-0.00181497765
0.00200341369
-0.00188182408
0.00210387091
-0.0019473636
0.00220314448
-0.00201155754
0.00230037831
-0.0020759163
0.0023962089
-0.00214209479
0.00249232997
-0.00221068733
0.00259019221
-0.00228153698
0.00269027981
-0.00235470919
0.00279124308
-0.00243164163
0.00289488204
-0.00251747155
0.00301303064
-0.00261630113
0.00315638037
-0.00271728605
0.00331762846
-0.00281140657
0.00349882939
-0.00292911047
0.00372903887
-0.00307794665
0.00400950206
-0.00319288176
0.00426547428
-0.00325308779
0.00439759139
-0.00330148199
0.00440383436
-0.0034584123
0.00442873617
-0.00366651997
-0.00382187727
0.00448928716
2.02051033e-07
-5.69349634e-06
8.30802314e-07
-1.85335239e-05
1.92210094e-06
-3.32288695e-05
3.5072864e-06
-4.9632371e-05
5.61217742e-06
-6.75635033e-05
8.25725543e-06
-8.68124003e-05
1.14580403e-05
-0.00010714978
1.52258211e-05
-0.000128336745
1.95696081e-05
-0.000150135459
2.44980557e-05
-0.000172319316
3.00214318e-05
-0.000194682204
3.61535075e-05
-0.000217046554
4.29132167e-05
-0.000239269519
5.03261245e-05
-0.000261246859
5.84256444e-05
-0.000282914623
6.72543209e-05
-0.000304248493
7.68656874e-05
-0.000325261203
8.73275051e-05
-0.000345998233
9.86952293e-05
-0.000366509751
0.000111026606
-0.000386875546
0.000124380601
-0.000407186465
0.000138817216
-0.00042753925
0.00015439755
-0.0004480315
0.000171183903
-0.000468758063
0.000189237404
-0.000489806495
0.000208629003
-0.00051131908
0.000229425859
-0.00053338333
0.000251696142
-0.000556090858
0.000275518217
-0.000579548427
0.000300961534
-0.000603803825
0.000328102969
-0.000628938351
0.000357013494
-0.00065502953
0.00038776827
-0.000682171843
0.000420426035
-0.000710441179
0.000455024163
-0.000739908337
0.000491575251
-0.000770636626
0.000530065388
-0.000802679629
0.000570455469
-0.000836079532
0.000612685944
-0.000870866364
0.000656685515
-0.000907058495
0.000702383583
-0.000944665062
0.000749725932
-0.000983689978
0.000798691389
-0.00102413697
0.00084930764
-0.00106601531
0.000901663143
-0.00110934506
0.000955913331
-0.00115416169
0.00101227936
-0.00120051948
0.00107104018
-0.00124849414
0.00113251852
-0.00129818449
0.001197062
-0.00134971234
0.00126501786
-0.00140321848
0.00133669826
-0.00145885163
0.00141232887
-0.00151674689
0.00149197546
-0.0015769908
0.00157545845
-0.00163959068
0.00166226741
-0.00170440578
0.00175145615
-0.00177104407
0.00184175567
-0.00183838939
0.0019312116
-0.00190441487
0.00201819523
-0.00196879268
0.00210079507
-0.00202995319
0.00217975057
-0.00209050834
0.00225469654
-0.00215086347
0.00232750168
-0.00221490848
0.00240052061
-0.00228372353
0.00247788774
-0.00235893251
0.00256242755
-0.00243929079
0.00265440374
-0.00252367604
0.00274865192
-0.00261179317
0.00284380055
-0.0027115395
0.00295126969
-0.00282485464
0.00306920615
-0.00292944392
0.00317482105
-0.00303482146
0.00328470677
-0.00318792045
0.00347709472
-0.00338533488
0.00375460554
-0.00353064009
0.00405669176
-0.00360359135
0.00424512442
-0.00364685519
0.00433461518
-0.00375600874
-0.00388466003
0.00439740735
2.05315903e-07
-5.89888642e-06
8.40633768e-07
-1.91689346e-05
1.9385348e-06
-3.43268658e-05
3.52853132e-06
-5.12224617e-05
5.63716461e-06
-6.96722246e-05
8.28812999e-06
-8.94634413e-05
1.15025678e-05
-0.000110364273
1.52995859e-05
-0.000132133788
1.9697454e-05
-0.000154533308
2.47145319e-05
-0.000177336318
3.03702945e-05
-0.000200337815
3.66863074e-05
-0.000223362322
4.36856201e-05
-0.000246268471
5.1394683e-05
-0.000268955422
5.98440036e-05
-0.000291363278
6.90686446e-05
-0.000313472276
7.91092101e-05
-0.000335300688
9.00137871e-05
-0.000356901477
0.000101831885
-0.000378326229
0.0001146194
-0.000399661123
0.000128438409
-0.00042100318
0.000143356106
-0.000442454262
0.000159440603
-0.000464112882
0.000176776586
-0.000486090461
0.000195456448
-0.000508482259
0.000215518014
-0.000531375994
0.000236993263
-0.000554853329
0.00025989843
-0.00057899014
0.000284214293
-0.000603857731
0.000310020043
-0.000629602305
0.000337405401
-0.000656315692
0.000366478466
-0.000684093795
0.000397270129
-0.000712953887
0.000429805186
-0.000742965762
0.000464100336
-0.000774192124
0.000500165925
-0.000806689934
0.000538009662
-0.000840510138
0.000577641828
-0.0008756975
0.000619081933
-0.000912291288
0.000662366326
-0.000950326714
0.000707555014
-0.000989836588
0.000754736471
-0.00103085329
0.000804028662
-0.00107341007
0.000855575815
-0.00111754246
0.000909541314
-0.0011632897
0.000966098165
-0.00121069688
0.00102541902
-0.00125981799
0.00108766555
-0.00131071771
0.00115297379
-0.00136346931
0.00122142944
-0.00141814418
0.0012930221
-0.00147478711
0.00136757104
-0.00153337639
0.0014446217
-0.00159377335
0.00152332631
-0.00165567122
0.00160235874
-0.00171859896
0.00168000733
-0.00178203035
0.00175425828
-0.00184527177
0.00182379406
-0.0019079033
0.001887458
-0.00196805911
0.00194591672
-0.00202723611
0.00199911706
-0.00208314378
0.00205169432
-0.00214308002
0.00210665016
-0.00220581858
0.00216725185
-0.00227551487
0.00223533755
-0.00235182122
0.00231244953
-0.00243606584
0.00240115907
-0.00252803887
0.00250441
-0.00262698984
0.00262218183
-0.00272966646
0.00274505507
-0.00283455346
0.00287670697
-0.00295667215
0.00302109193
-0.00307400269
0.00314603714
-0.00315991087
0.00320198086
-0.00324396438
0.00321464121
-0.00339802757
0.0032813763
-0.00359734862
0.00343128878
-0.00375342458
0.00363941956
-0.00385486182
0.00382435044
-0.0039408423
-0.00403601771
0.00397575298
2.20498732e-07
-6.11944349e-06
8.9077335e-07
-1.98392752e-05
2.03689109e-06
-3.5473044e-05
3.68430074e-06
-5.28699229e-05
5.85654545e-06
-7.18445066e-05
8.57558445e-06
-9.21824961e-05
1.18622285e-05
-0.000113650901
1.57369022e-05
-0.000136008403
2.02196124e-05
-0.000159015901
2.53300173e-05
-0.00018244653
3.10888696e-05
-0.000206096378
3.75174506e-05
-0.000229790493
4.46452552e-05
-0.000253395719
5.25060317e-05
-0.000276815468
6.1137207e-05
-0.000299993517
7.05781467e-05
-0.000322912041
8.08666487e-05
-0.00034558774
9.20338183e-05
-0.000368066889
0.000104129535
-0.000390419842
0.000117206249
-0.00041273535
0.000131321146
-0.00043511517
0.000146540259
-0.00045767001
0.000162946564
-0.000480515322
0.00018057621
-0.000503715707
0.000199468554
-0.000527369623
0.000219668239
-0.00055157008
0.000241226506
-0.000576405333
0.000264199872
-0.000601956536
0.000288644904
-0.000628295039
0.000314622308
-0.000655571192
0.000342180216
-0.000683864249
0.000371366444
-0.000713269801
0.000402214956
-0.000743791276
0.00043476734
-0.000775506099
0.000469073729
-0.000808485525
0.000505194066
-0.000842796329
0.000543200162
-0.00087850134
0.000583176991
-0.00091565849
0.00062522243
-0.000954319965
0.000669444001
-0.000994530621
0.000715952504
-0.00103632657
0.000764852815
-0.00107973426
0.000816233918
-0.00112477108
0.000870160549
-0.00117144829
0.000926668043
-0.00121977577
0.000985760461
-0.0012697673
0.00104740695
-0.00132144201
0.0011115293
-0.00137481714
0.00117797073
-0.00142988751
0.00124643979
-0.00148658975
0.00131643223
-0.001544756
0.00138714742
-0.00160406813
0.00145743157
-0.00166403462
0.00152579603
-0.00172401387
0.0015905431
-0.0017833263
0.00165021566
-0.00184168609
0.00170393342
-0.00189897688
0.00175256808
-0.00195653157
0.00179867433
-0.00201416613
0.00184597493
-0.00207454584
0.00190110027
-0.00213828591
0.00196819709
-0.00221019874
0.00205120906
-0.00228886064
0.00215022818
-0.00237457278
0.00226132064
-0.00246295491
0.00238222568
-0.0025570126
0.00251223535
-0.00265808377
0.0026521129
-0.00276689768
0.00280780802
-0.00288539124
0.00297962964
-0.00300640587
0.00314617458
-0.00312326036
0.00330156705
-0.00322944055
0.00345739348
-0.00331578455
0.00361964558
-0.00340624807
0.0036947579
-0.00347312926
0.00368632784
-0.00358887478
0.00366963273
-0.00373667067
0.00370891203
-0.00389409262
0.00379472316
-0.00402661737
-0.00413499951
0.00389369901
2.26969033e-07
-6.34634084e-06
9.16537983e-07
-2.05287265e-05
2.09257229e-06
-3.66489271e-05
3.7773891e-06
-5.45545531e-05
5.99221949e-06
-7.40591108e-05
8.75764698e-06
-9.49476508e-05
1.20942307e-05
-0.000116987155
1.60233373e-05
-0.000139937109
2.05684111e-05
-0.000163560488
2.57566694e-05
-0.000187634196
3.16166753e-05
-0.000211955664
3.81799456e-05
-0.000236352891
4.54818878e-05
-0.000260696607
5.35596979e-05
-0.000284892012
6.24512604e-05
-0.000308883566
7.21940838e-05
-0.000332653068
8.28244636e-05
-0.000356216001
9.43768271e-05
-0.000379616771
0.000106883756
-0.000402923882
0.000120377083
-0.000426225338
0.00013488428
-0.000449618529
0.000150438922
-0.000473220272
0.000167087509
-0.000497158937
0.000184875172
-0.000521497766
0.000203857612
-0.000546345779
0.000224093909
-0.000571799375
0.000245663827
-0.000597967489
0.000268658187
-0.000624942338
0.00029318361
-0.000652811072
0.000319276453
-0.000681653779
0.000346972706
-0.00071154935
0.000376291362
-0.000742576385
0.000407330759
-0.000774817664
0.00044019282
-0.000808354203
0.000474986082
-0.000843263888
0.000511824158
-0.000879618569
0.000550819955
-0.000917480394
0.000592077023
-0.000956897933
0.000635677782
-0.000997902272
0.00068167169
-0.00104050529
0.000730065219
-0.00108470015
0.000780817452
-0.00113046588
0.000833842486
-0.00117777492
0.000889017933
-0.001226602
0.000946194054
-0.0012769297
0.00100519574
-0.00132874635
0.00106580866
-0.0013820319
0.00112774627
-0.00143673127
0.00119060311
-0.00149272043
0.00125381446
-0.00154977659
0.00131665362
-0.00160757004
0.00137830585
-0.00166569452
0.00143804431
-0.00172374656
0.0014955207
-0.00178146351
0.00155107559
-0.00183885539
0.0016059749
-0.00189656203
0.00166266484
-0.00195564836
0.00172398686
-0.0020178421
0.00179419756