/*--------------------------------*- C++ -*----------------------------------*\
  =========                 |
  \\      /  F ield         | OpenFOAM: The Open Source CFD Toolbox
   \\    /   O peration     | Website:  https://openfoam.org
    \\  /    A nd           | Version:  8
     \\/     M anipulation  |
\*---------------------------------------------------------------------------*/
FoamFile
{
    version     2.0;
    format      ascii;
    class       volScalarField;
    location    "0.001";
    object      T;
}
// * * * * * * * * * * * * * * * * * * * * * * * * * * * * * * * * * * * * * //

dimensions      [0 0 0 1 0 0 0];

internalField   nonuniform List<scalar> 
42400
(
469.487535
462.415862
455.22072
447.940424
440.613325
433.277177
425.968545
418.723388
411.576326
404.559889
397.704145
391.036383
384.580865
378.358641
372.387447
366.681663
361.252359
356.107386
351.251542
346.68676
342.412345
338.425217
334.720161
331.290086
328.126273
325.218576
322.555642
320.125162
317.914106
315.908969
314.096019
312.46153
310.991989
309.674264
308.495742
307.444433
306.509035
305.678949
304.944269
304.295774
303.724918
303.223726
302.78476
302.401191
302.066725
301.775649
301.52281
301.303586
301.11384
300.949895
300.808494
300.686767
300.582203
300.492606
300.416063
300.350906
300.295676
300.249096
300.210043
300.177529
300.150684
300.128743
300.111024
300.096914
300.085712
300.076956
300.07033
300.065835
300.063057
300.063096
300.064424
300.064624
300.066253
300.06853
300.071085
300.07548
300.082067
300.086435
300.088666
300.092903
469.471578
462.367982
455.140642
447.828213
440.469372
433.102186
425.76349
418.48983
411.316114
404.275087
397.396944
390.709014
384.235532
377.997481
372.01252
366.29498
360.855912
355.703197
350.841691
346.273403
341.99769
338.01147
334.309451
330.884373
327.727279
324.827739
322.174076
319.753651
317.553146
315.558884
313.757112
312.134213
310.676862
309.372138
308.207591
307.171287
306.251831
305.438418
304.720841
304.089441
303.535196
303.049721
302.62527
302.254787
301.931915
301.65098
301.406949
301.195386
301.012391
300.854541
300.71883
300.602609
300.50353
300.419504
300.348659
300.28931
300.239945
300.199204
300.165873
300.138881
300.117291
300.1003
300.087213
300.077421
300.070209
300.065088
300.061711
300.060075
300.059942
300.061997
300.064438
300.066634
300.068397
300.069772
300.070732
300.072167
300.076207
300.08003
300.084903
300.091394
469.462179
462.339479
455.092456
447.759667
440.379653
432.990317
425.628517
418.330817
411.132143
404.065371
397.160967
390.446691
383.947359
377.684676
371.677108
365.939762
360.484168
355.318538
350.447819
345.873929
341.595943
337.610336
333.911263
330.490875
327.339654
324.446729
321.800172
319.387307
317.194981
315.209804
313.418356
311.807286
310.3634
309.073732
307.925585
306.906621
306.004954
305.20922
304.508644
303.893099
303.353199
302.880367
302.466886
302.105899
301.791366
301.51798
301.28108
301.076551
300.900733
300.750344
300.622414
300.514242
300.423363
300.347527
300.284695
300.233033
300.190908
300.156885
300.129718
300.108334
300.091818
300.079401
300.070426
300.064326
300.060416
300.058226
300.057381
300.057251
300.057677
300.059983
300.064183
300.06844
300.072196
300.074824
300.075284
300.074219
300.072769
300.071138
300.072522
300.075555
469.438986
462.269865
454.975938
447.596259
440.169876
432.735809
425.331989
417.995901
410.763328
403.667849
396.740397
390.008908
383.498106
377.229513
371.221858
365.492123
360.044099
354.885471
350.020645
345.451163
341.175997
337.191819
333.493263
330.073183
326.922884
324.032333
321.390357
318.984902
316.803219
314.832009
313.057577
311.465986
310.043229
308.775446
307.649108
306.651104
305.768863
304.990504
304.304961
303.702095
303.172787
302.708943
302.303443
301.950025
301.64315
301.377867
301.149693
300.954524
300.788573
300.648338
300.530585
300.432353
300.350955
300.283986
300.229324
300.18512
300.149782
300.121946
300.100436
300.084225
300.072409
300.064177
300.058799
300.055639
300.054004
300.053608
300.05388
300.054326
300.053859
300.053329
300.054431
300.057855
300.062349
300.06815
300.07244
300.074252
300.071987
300.067228
300.063386
300.062421
469.438335
462.267982
454.973274
447.5937
440.168852
432.738412
425.34073
418.012656
410.789032
403.702205
396.78155
390.052979
383.538375
377.25488
371.213967
365.420379
359.908418
354.68647
349.761038
345.135963
340.812377
336.788797
333.061245
329.62337
326.466587
323.580268
320.951998
318.567839
316.412706
314.470792
312.726087
311.16282
309.765703
308.520071
307.412029
306.428489
305.557231
304.78701
304.107619
303.509903
302.98569
302.527671
302.12925
301.784396
301.487527
301.233429
301.017217
300.834335
300.680567
300.55206
300.445341
300.357323
300.285296
300.226903
300.180111
300.143169
300.114558
300.092953
300.077155
300.06606
300.058641
300.05395
300.051135
300.049462
300.048529
300.048351
300.04837
300.048216
300.0468
300.04329
300.039965
300.037908
300.038161
300.039056
300.044938
300.048898
300.050931
300.053037
300.042394
300.045473
469.420189
462.212549
454.878187
447.455541
439.983089
432.498737
425.040195
417.644556
410.347429
403.182523
396.181294
389.372654
382.782746
376.434787
370.34892
364.54202
359.027206
353.814237
348.909564
344.316437
340.035017
336.062482
332.393118
329.018395
325.927094
323.105562
320.538121
318.207814
316.097266
314.189607
312.469084
310.921194
309.532473
308.290256
307.182548
306.19801
305.325974
304.556463
303.880183
303.288467
302.773209
302.326789
301.942023
301.61214
301.330799
301.092119
300.89071
300.721702
300.580747
300.463999
300.368081
300.290033
300.227265
300.177496
300.138714
300.10913
300.087149
300.071344
300.060398
300.053108
300.048378
300.045283
300.043144
300.041519
300.039987
300.038452
300.037334
300.037093
300.037471
300.036728
300.033269
300.030036
300.028339
300.024748
300.015595
300.006936
300.003391
300.004826
299.9988
299.99833
469.408371
462.177142
454.819208
447.373374
439.878446
432.372605
424.894084
417.480316
410.167233
402.988845
395.976855
389.160335
382.565447
376.215229
370.129437
364.324453
358.813257
353.605426
348.707186
344.121499
339.848187
335.884047
332.222936
328.855779
325.770584
322.952784
320.384265
318.045673
315.919769
313.992412
312.251359
310.68501
309.281821
308.030115
306.918203
305.934602
305.068197
304.308342
303.644897
303.068243
302.569305
302.139585
301.771205
301.456942
301.190247
300.965231
300.77663
300.619744
300.49038
300.384779
300.299568
300.231706
300.178454
300.137349
300.106196
300.083053
300.06624
300.054314
300.045995
300.040219
300.036049
300.032808
300.030173
300.027966
300.026005
300.024535
300.023515
300.023446
300.025131
300.028239
300.029369
300.028773
300.02772
300.025227
300.014495
299.988926
299.961014
299.951408
299.950562
299.938758
469.393995
462.133533
454.745307
447.267982
439.74032
432.200588
424.687522
417.23908
409.891928
402.680965
395.638856
388.795605
382.178179
375.810207
369.711769
363.899276
358.385443
353.179265
348.285776
343.706621
339.440187
335.481878
331.824029
328.455473
325.360468
322.537288
319.965372
317.628191
315.515661
313.605934
311.884386
310.338612
308.956312
307.725182
306.633087
305.668261
304.81942
304.075835
303.427393
302.864636
302.378779
301.961698
301.605902
301.304485
301.051082
300.83982
300.665287
300.522507
300.406923
300.314393
300.241177
300.183935
300.139717
300.105952
300.080439
300.061337
300.047169
300.036746
300.029017
300.023298
300.018933
300.015433
300.012903
300.011313
300.010071
300.010172
300.010042
300.009488
300.009355
300.010443
300.011345
300.011218
300.007654
300.005918
300.008606
299.991449
299.952206
299.920867
299.906479
299.891135
469.377822
462.085324
454.665451
447.157677
439.601564
432.03622
424.50111
417.034489
409.67508
402.458602
395.417587
388.581204
381.975021
375.620841
369.53672
363.737332
358.234987
353.041834
348.154468
343.576568
339.309863
335.354732
331.710808
328.377688
325.355816
322.563629
319.993899
317.6311
315.445505
313.465094
311.68852
310.103773
308.695196
307.44773
306.347081
305.380096
304.534573
303.799124
303.163071
302.616361
302.149513
301.753598
301.42024
301.141627
300.910542
300.72038
300.56516
300.439517
300.338693
300.258501
300.195289
300.145893
300.107594
300.078073
300.05539
300.037973
300.024672
300.014668
300.007024
300.001571
299.998468
299.996673
299.996891
299.997664
299.999407
299.999919
300.000239
299.999855
299.997491
299.99414
299.991671
299.985552
299.971156
299.953868
299.951014
299.953262
299.946293
299.910255
299.882348
299.870874
469.373936
462.074211
454.648276
447.136506
439.579385
432.017221
424.490915
417.040887
409.701569
402.50516
395.481967
388.659547
382.062152
375.709973
369.618474
363.797359
358.249202
352.967642
347.996353
343.337679
338.991646
334.955067
331.222018
327.783867
324.631811
321.758584
319.153934
316.804243
314.690586
312.800998
311.11015
309.605387
308.259258
307.061331
306.001557
305.069874
304.256174
303.550295
302.942095
302.42159
301.979122
301.605506
301.29216
301.03118
300.815381
300.638301
300.494174
300.377886
300.284924
300.211319
300.153593
300.108712
300.074048
300.047361
300.026808
300.010998
299.999082
299.990787
299.98493
299.985238
299.986823
299.992102
299.995716
299.998317
299.998934
299.998916
299.998513
299.997529
299.994947
299.989953
299.984389
299.977671
299.960469
299.929182
299.901797
299.890743
299.892825
299.891626
299.875593
299.867901
469.36447
462.044535
454.595691
447.056796
439.466787
431.864547
424.289353
416.77976
409.373169
402.105331
395.009706
388.116922
381.459027
375.05913
368.936518
363.106528
357.580517
352.365719
347.464474
342.87581
338.596585
334.623673
330.95831
327.578003
324.476318
321.645763
319.07892
316.77006
314.716869
312.830635
311.099837
309.498369
308.083901
306.840773
305.755173
304.813383
304.001542
303.305944
302.713401
302.211521
301.788881
301.435102
301.140853
300.897805
300.698561
300.536568
300.406039
300.301868
300.219565
300.155197
300.105348
300.067084
300.037948
300.015939
299.999534
299.987743
299.980119
299.977201
299.980255
299.984559
299.987077
299.990926
299.994699
299.995792
299.995283
299.993787
299.989708
299.983886
299.977218
299.968648
299.960823
299.954089
299.948714
299.928025
299.894556
299.867821
299.849853
299.846156
299.84698
299.84932
469.353122
462.011315
454.542035
446.985464
439.38184
431.771508
424.19517
416.692999
409.304574
402.069199
395.019261
388.188541
381.583567
375.225801
369.132818
363.318765
357.794443
352.567078
347.639831
343.011082
338.673473
334.611596
330.799826
327.29995
324.096937
321.176367
318.522787
316.12114
313.957844
312.024162
310.30912
308.799471
307.47597
306.320429
305.315533
304.445089
303.694207
303.049341
302.498244
302.029863
301.634223
301.302313
301.025983
300.797862
300.611282
300.460221
300.339256
300.243523
300.168696
300.110979
300.067104
300.034335
300.010455
299.993726
299.982805
299.976737
299.974676
299.975412
299.978724
299.981993
299.983393
299.983787
299.982664
299.980443
299.974803
299.966544
299.95589
299.942667
299.928106
299.910803
299.890176
299.87322
299.865967
299.872211
299.874822
299.859905
299.842375
299.830433
299.822089
299.815105
469.356251
462.020402
454.556785
447.005299
439.405843
431.797615
424.218353
416.703455
409.284958
401.990444
394.859245
387.920054
381.200542
374.726018
368.518947
362.59873
356.981504
351.679534
346.70078
342.047953
337.728514
333.733586
330.051735
326.66751
323.5678
320.74702
318.178773
315.851272
313.752137
311.868028
310.185012
308.688971
307.366145
306.20309
305.186678
304.304106
303.542915
302.89105
302.336945
301.869613
301.478729
301.154688
300.88864
300.672489
300.498877
300.361161
300.253384
300.170267
300.107199
300.060233
300.026075
300.002044
299.985989
299.976156
299.970985
299.968922
299.968755
299.969197
299.968533
299.967067
299.963997
299.958757
299.951641
299.942963
299.933396
299.922632
299.910599
299.897397
299.882482
299.8712
299.866213
299.860427
299.851102
299.841613
299.838102
299.840999
299.837718
299.827392
299.816649
299.808819
469.335432
461.957594
454.450696
446.854375
439.20823
431.552214
423.926272
416.369455
408.919417
401.611866
394.479933
387.553733
380.859966
374.421776
368.259074
362.389838
356.833593
351.597324
346.692763
342.136189
337.867594
333.885979
330.185227
326.754272
323.574064
320.611821
317.925706
315.504088
313.335192
311.40506
309.698087
308.197669
306.886689
305.747933
304.764472
303.91999
303.199069
302.587373
302.07176
301.640293
301.282189
300.98772
300.748102
300.555385
300.402372
300.28258
300.190214
300.120178
300.068064
300.030138
300.003283
299.984904
299.972821
299.965163
299.960293
299.956804
299.953737
299.950403
299.946586
299.941769
299.936101
299.930421
299.924287
299.917702
299.91068
299.902735
299.894297
299.885562
299.876955
299.870159
299.865026
299.859671
299.851315
299.837838
299.825304
299.816074
299.807695
299.797244
299.783039
299.773986
469.339401
461.969629
454.471542
446.885354
439.251499
431.61011
424.000523
416.460784
409.027175
401.733753
394.611866
387.689649
380.991417
374.536871
368.339885
362.40638
356.73007
351.34822
346.27744
341.52401
337.092042
332.982258
329.192633
325.71878
322.554204
319.689632
317.109418
314.796126
312.731275
310.89607
309.271894
307.840669
306.585132
305.489036
304.537259
303.715816
303.011798
302.413257
301.909055
301.488726
301.142375
300.860608
300.63454
300.45583
300.316765
300.210339
300.130324
300.071302
300.028651
299.998487
299.977583
299.963274
299.953395
299.94626
299.940663
299.935846
299.931367
299.927187
299.92347
299.92047
299.917436
299.914259
299.909293
299.902518
299.895998
299.889732
299.882806
299.875253
299.867364
299.858161
299.848955
299.840958
299.833092
299.822133
299.804959
299.783393
299.761893
299.745856
299.734209
299.725183
469.316759
461.901029
454.354923
446.717754
439.028723
431.32769
423.654243
416.047046
408.543348
401.178526
393.985678
386.995269
380.234862
373.728912
367.498625
361.561791
355.932468
350.619839
345.628807
340.962025
336.624166
332.602761
328.889253
325.475213
322.35073
319.504418
316.9239
314.596082
312.507335
310.643638
308.990714
307.534167
306.259599
305.152707
304.19935
303.385604
302.697796
302.122556
301.646881
301.258235
300.944672
300.694979
300.498817
300.346843
300.230781
300.143448
300.078724
300.031471
299.997435
299.973145
299.955833
299.94336
299.934169
299.927222
299.921877
299.917749
299.91455
299.911934
299.909485
299.906509
299.902499
299.896814
299.892141
299.889846
299.885461
299.87915
299.87031
299.860727
299.848043
299.834936
299.822391
299.81083
299.800527
299.790776
299.77712
299.760042
299.747017
299.738104
299.733381
299.726241
469.320382
461.912038
454.374135
446.746684
439.06991
431.383765
423.727454
416.138986
408.654757
401.309165
394.13426
387.159428
380.411121
373.912599
367.683696
361.740548
356.0952
350.754921
345.720845
340.985095
336.524313
332.376917
328.550461
325.042084
321.843993
318.945292
316.33292
313.992315
311.907741
310.06263
308.439919
307.022373
305.792847
304.734487
303.830872
303.066102
302.424876
301.892564
301.455294
301.100053
300.814793
300.588518
300.411351
300.274546
300.170471
300.092546
300.035174
299.993647
299.964071
299.943304
299.928909
299.919073
299.912513
299.908321
299.905796
299.90429
299.903108
299.901518
299.899171
299.896145
299.894446
299.893423
299.891631
299.888517
299.884096
299.875947
299.864553
299.850848
299.837258
299.820832
299.800994
299.781508
299.765903
299.756691
299.743858
299.737002
299.735389
299.735473
299.736251
299.740529
469.294204
461.832627
454.23896
446.552105
438.810928
431.055161
423.324186
415.656565
408.089571
400.658745
393.397485
386.336676
379.504374
372.925554
366.621919
360.611792
354.910079
349.528315
344.474755
339.754459
335.369102
331.315281
327.586828
324.181402
321.077651
318.261184
315.719201
313.43827
311.404089
309.601691
308.0157
306.63054
305.430561
304.400122
303.523652
302.785729
302.171193
301.665299
301.2539
300.923639
300.66212
300.458045
300.301288
300.182925
300.095218
300.031563
299.986415
299.955191
299.934197
299.920516
299.911926
299.906793
299.903922
299.902402
299.90147
299.900514
299.899178
299.89741
299.895584
299.894776
299.892946
299.889029
299.882344
299.872229
299.861185
299.842115
299.821609
299.798443
299.772202
299.750696
299.732168
299.718475
299.711512
299.711992
299.720192
299.729079
299.737573
299.743553
299.757571
299.782196
469.296703
461.840182
454.252292
446.572665
438.841185
431.097533
423.380744
415.728792
408.178204
400.763704
393.517876
386.470867
379.650116
373.080114
366.782203
360.77441
355.071312
349.683914
344.619511
339.881425
335.468438
331.373434
327.580182
324.055496
320.836774
317.925739
315.312804
312.983893
310.922677
309.111659
307.532809
306.167763
304.997973
304.004882
303.170118
302.475714
301.904347
301.439574
301.06605
300.769693
300.53779
300.359039
300.22353
300.122688
300.049195
299.996891
299.960648
299.936287
299.920466
299.910562
299.904573
299.90104
299.898988
299.897811
299.89693
299.896032
299.89439
299.891436
299.88659
299.880673
299.870628
299.85613
299.837901
299.817443
299.791007
299.767693
299.742922
299.722819
299.708013
299.698726
299.698824
299.700435
299.70129
299.706229
299.720328
299.737482
299.757361
299.780884
299.815474
299.853069
469.264403
461.742056
454.084971
446.331289
438.519818
430.690001
422.881151
415.132002
407.480265
399.962217
392.61228
385.462638
378.542856
371.879547
365.496064
359.412266
353.644346
348.204748
343.102186
338.341779
333.925297
329.851514
326.116548
322.713821
319.631536
316.855424
314.375927
312.167667
310.212734
308.495123
306.99844
305.705642
304.599212
303.661483
302.874927
302.22242
301.687479
301.254481
300.908827
300.637072
300.426987
300.267594
300.14916
300.063174
300.002345
299.960574
299.932872
299.915229
299.90447
299.898225
299.894857
299.892841
299.891235
299.889399
299.886625
299.883833
299.87612
299.864432
299.848337
299.826566
299.8053
299.785167
299.766724
299.750862
299.737507
299.726409
299.716921
299.710874
299.703555
299.699827
299.700656
299.705491
299.711937
299.720253
299.741548
299.777792
299.819516
299.866465
299.897539
299.913511
469.775085
463.285666
456.689656
450.026386
443.334795
436.652728
430.016301
423.45934
417.012921
410.705024
404.560284
398.599865
392.84143
387.299193
381.984062
376.903827
372.063408
367.465121
363.10898
358.99299
355.113371
351.464828
348.040803
344.833714
341.835183
339.036231
336.427459
333.999206
331.741695
329.645145
327.699879
325.896407
324.225498
322.678237
321.246065
319.920821
318.694757
317.560559
316.511353
315.5407
314.642561
313.811256
313.041502
312.328409
311.667457
311.05449
310.485704
309.957592
309.466933
309.010907
308.5874
308.193174
307.825669
307.482662
307.162154
306.86233
306.581534
306.318256
306.071114
305.838847
305.6203
305.41442
305.220242
305.036885
304.863539
304.699469
304.543998
304.396508
304.256432
304.123252
303.996485
303.875589
303.752002
303.62321
303.490073
303.353388
303.213879
303.072688
302.926571
302.805026
469.800659
463.362854
456.819634
450.210163
443.573125
436.946021
430.364535
423.861987
417.468892
411.212627
405.117221
399.203241
393.487792
387.984589
382.704108
377.65379
372.838283
368.259708
363.917938
359.810876
355.934732
352.284293
348.85317
345.634038
342.618839
339.798977
337.165481
334.709158
332.420712
330.290861
328.310421
326.470386
324.761987
323.17674
321.706485
320.343407
319.080063
317.909387
316.824698
315.819698
314.888469
314.02546
313.22548
312.483686
311.795569
311.156941
310.563922
310.01293
309.50069
309.024285
308.581416
308.168569
307.783248
307.423236
307.086523
306.771273
306.475803
306.198569
305.938158
305.693274
305.462733
305.245449
305.04043
304.846763
304.663613
304.490212
304.325854
304.169893
304.021735
303.880831
303.746663
303.618339
303.485966
303.349884
303.210881
303.069688
302.926996
302.78386
302.637309
302.51246
469.766453
463.259697
456.645815
449.964182
443.25388
436.552999
429.897985
423.323063
416.859751
410.536478
404.378314
398.406799
392.639879
387.091944
381.773943
376.693576
371.855532
367.261768
362.911808
358.803058
354.931113
351.290065
347.872782
344.671177
341.676446
338.879281
336.270057
333.838987
331.576263
329.472162
327.517138
325.701891
324.017421
322.455073
321.006558
319.663977
318.419831
317.267022
316.198856
315.209036
314.291652
313.441175
312.65244
311.920635
311.241287
310.610244
310.023663
309.47799
308.969952
308.496534
308.05497
307.642703
307.257385
306.896863
306.559169
306.242507
305.945237
305.665862
305.403019
305.155464
304.922063
304.701782
304.493678
304.296882
304.110593
303.934071
303.766637
303.607662
303.456566
303.312812
303.175871
303.043507
302.908659
302.772135
302.634644
302.496819
302.359282
302.222972
302.085844
301.964154
469.743689
463.190934
456.529831
449.799784
443.039969
436.288644
429.582495
422.956057
416.441237
410.066935
403.858804
397.839146
392.025779
386.433226
381.072613
375.951797
371.075594
366.446068
362.06284
357.923409
354.023464
350.357193
346.917563
343.696578
340.685513
337.87512
335.255799
332.817757
330.551132
328.446099
326.492963
324.682228
323.004657
321.451315
320.013611
318.683324
317.452622
316.314076
315.260672
314.285812
313.383311
312.547397
311.772697
311.054229
310.387387
309.767924
309.191935
308.65584
308.156361
307.690508
307.255551
306.849008
306.468621
306.112339
305.7783
305.464811
305.17034
304.893491
304.632998
304.387706
304.156567
303.938619
303.732983
303.538842
303.355431
303.182041
303.018011
302.862724
302.715608
302.576129
302.44376
302.316426
302.189057
302.062332
301.936823
301.813019
301.691391
301.572661
301.456017
301.348487
469.748606
463.205316
456.553324
449.831517
443.078453
436.331683
429.62713
422.998553
416.47711
410.091022
403.865355
397.821915
391.978289
386.349088
380.94579
375.776866
370.847984
366.162248
361.720453
357.521346
353.56188
349.837454
346.342146
343.068929
340.009867
337.156302
334.499022
332.028415
329.734607
327.607596
325.637364
323.81398
322.127688
320.568991
319.128714
317.798056
316.568637
315.432527
314.38227
313.410899
312.511938
311.679397
310.907751
310.19193
309.527292
308.909602
308.335005
307.800002
307.301419
306.836379
306.402281
305.996767
305.617702
305.263152
304.931362
304.620734
304.329813
304.057268
303.801879
303.562523
303.338167
303.12785
302.930681
302.745817
302.572456
302.409841
302.257262
302.114051
301.979579
301.853262
301.734542
301.622581
301.512855
301.405793
301.301747
301.201008
301.103848
301.010677
300.921564
300.837857
469.71685
463.109217
456.390769
449.600225
442.776134
435.956217
429.176756
422.472042
415.873917
409.411401
403.110416
396.993608
391.080256
385.386266
379.924237
374.703588
369.73073
365.009275
360.540277
356.322478
352.352576
348.62549
345.134626
341.872127
338.829112
335.995897
333.362206
330.917366
328.650489
326.550633
324.606944
322.808777
321.145803
319.608086
318.186156
316.871046
315.654331
314.528135
313.485141
312.51858
311.622369
310.790934
310.019165
309.302391
308.636363
308.01722
307.441453
306.905875
306.407585
305.943939
305.512517
305.111105
304.737667
304.390328
304.067357
303.767147
303.488203
303.229127
302.988611
302.765427
302.55842
302.366503
302.188649
302.02388
301.871255
301.729888
301.59894
301.477628
301.365225
301.261055
301.164496
301.074957
300.990235
300.90894
300.831274
300.757386
300.687422
300.621573
300.560195
300.503235
469.688008
463.022215
456.244468
449.393835
442.509326
435.629238
428.790515
422.028186
415.374864
408.860335
402.511245
396.350871
390.399
384.671886
379.1823
373.939641
368.950116
364.216964
359.740712
355.519433
351.549029
347.823516
344.335474
341.076545
338.037271
335.207381
332.576047
330.132121
327.864345
325.761527
323.812693
322.00721
320.334883
318.786024
317.351504
316.02278
314.791901
313.651499
312.594778
311.615493
310.707913
309.866785
309.087303
308.365075
307.696097
307.07672
306.503574
305.973541
305.483726
305.031434
304.61411
304.229385
303.875008
303.548878
303.249014
302.973553
302.720735
302.488895
302.276466
302.081972
301.904026
301.741324
301.592643
301.456835
301.332815
301.219564
301.11614
301.021676
300.935379
300.856533
300.784486
300.718643
300.658141
300.600792
300.546751
300.496121
300.448968
300.405384
300.365683
300.330116
469.663237
462.947589
456.119159
449.217383
442.281716
435.350949
428.462577
421.652195
414.952983
408.395256
402.006114
395.809178
389.824438
384.068182
378.55303
373.288047
368.278907
363.528585
359.03763
354.80398
350.823304
347.089323
343.594032
340.32806
337.28106
334.442063
331.799767
329.342773
327.059785
324.939769
322.972079
321.146548
319.45355
317.884042
316.429579
315.082315
313.834967
312.680726
311.613301
310.626868
309.716016
308.875698
308.101191
307.388092
306.732326
306.130162
305.577939
305.072241
304.609773
304.187391
303.802081
303.451076
303.131605
302.841132
302.577302
302.337898
302.120844
301.924199
301.746158
301.585052
301.439342
301.307604
301.18853
301.080919
300.983663
300.895739
300.816218
300.744268
300.679144
300.620186
300.566807
300.518471
300.474398
300.43293
300.394248
300.358469
300.325588
300.295651
300.268953
300.246022
469.648407
462.903427
456.046019
449.116368
442.154668
435.200403
428.291658
421.464475
414.752272
408.185352
401.790499
395.590672
389.604869
383.848083
378.331388
373.063217
368.048634
363.28964
358.785622
354.533928
350.5306
346.771505
343.24588
339.943245
336.853498
333.966525
331.272202
328.760507
326.421636
324.24609
322.22471
320.348708
318.609709
316.999734
315.511173
314.136796
312.869809
311.703629
310.631952
309.648731
308.748156
307.924622
307.172707
306.487195
305.863134
305.29608
304.781527
304.315297
303.893417
303.512126
303.167775
302.857197
302.577181
302.324849
302.097586
301.892994
301.708879
301.54324
301.394255
301.260278
301.13982
301.03153
300.93419
300.846695
300.768047
300.69733
300.633727
300.576514
300.525053
300.478779
300.43719
300.399812
300.365579
300.333773
300.304558
300.278027
300.253999
300.232414
300.213565
300.198138
469.672293
462.975211
456.166367
449.285369
442.371625
435.46365
428.598407
421.810748
415.132953
408.594415
402.22147
396.034598
390.051902
384.287829
378.753368
373.456262
368.401247
363.590294
359.022819
354.695821
350.603821
346.738415
343.096992
339.675224
336.467062
333.465604
330.663445
328.052825
325.625734
323.374048
321.289589
319.364087
317.58926
315.956843
314.458614
313.086419
311.832285
310.688356
309.646939
308.700533
307.841864
307.063906
306.359913
305.723486
305.148648
304.630058
304.16259
303.741431
303.362208
303.021017
302.714095
302.438187
302.190242
301.967509
301.767512
301.588018
301.427003
301.28264
301.153274
301.037412
300.93371
300.840954
300.758048
300.684001
300.617911
300.558948
300.506374
300.459531
300.417838
300.380769
300.347848
300.318558
300.291721
300.267246
300.245241
300.225747
300.208291
300.19257
300.17885
300.168275
469.682643
463.005422
456.215046
449.349667
442.447093
435.544104
428.675849
421.875307
415.172852
408.595908
402.168684
395.910426
389.839719
383.972508
378.322024
372.898923
367.71143
362.765494
358.064933
353.611592
349.405477
345.444898
341.726547
338.245652
334.996159
331.970914
329.161838
326.56011
324.156322
321.940674
319.903142
318.033539
316.321642
314.757283
313.330435
312.031284
310.850285
309.778228
308.806277
307.926016
307.129476
306.409166
305.75809
305.169776
304.638351
304.15868
303.726119
303.336303
302.985331
302.669703
302.386182
302.131754
301.903723
301.699601
301.517104
301.354148
301.208817
301.079388
300.964278
300.862049
300.771399
300.691141
300.620194
300.557567
300.502351
300.453707
300.410891
300.373239
300.340157
300.311113
300.285599
300.262821
300.242053
300.223413
300.207001
300.192845
300.180221
300.168329
300.157213
300.148931
469.632547
462.853624
455.957803
448.982692
441.965817
434.944019
427.952892
421.026295
414.195928
407.490982
400.937873
394.561405
388.38349
382.422982
376.695608
371.21395
365.987488
361.0227
356.32318
351.889702
347.7205
343.811569
340.157014
336.74937
333.579909
330.638959
327.916167
325.400749
323.081657
320.947739
318.987866
317.191041
315.54648
314.043679
312.67247
311.423063
310.286087
309.252626
308.314252
307.463041
306.691601
305.99307
305.361125
304.789964
304.27428
303.809313
303.390803
303.014868
302.677878
302.376474
302.107513
301.868013
301.655166
301.46641
301.299334
301.151728
301.021515
300.906893
300.806139
300.717727
300.640283
300.572556
300.513409
300.4618
300.416781
300.377498
300.343204
300.313244
300.287046
300.264093
300.243842
300.22533
300.208566
300.193676
300.180893
300.170324
300.161132
300.151903
300.141837
300.13395
469.585938
462.713899
455.724595
448.657138
441.550686
434.443776
427.373674
420.376716
413.486338
406.73307
400.14526
393.748148
387.563341
381.608709
375.898401
370.443014
365.249952
360.324063
355.668834
351.279116
347.150356
343.276995
339.652262
336.268359
333.116685
330.188041
327.472804
324.961033
322.64258
320.507178
318.544511
316.744286
315.096302
313.590518
312.217128
310.966626
309.829875
308.798157
307.86322
307.0173
306.25314
305.563978
304.943537
304.385993
303.885941
303.438357
303.038576
302.68237
302.365808
302.085223
301.837181
301.618464
301.426002
301.257063
301.109089
300.979729
300.866749
300.768287
300.682479
300.607789
300.542804
300.486285
300.437126
300.394335
300.357034
300.324459
300.295957
300.270965
300.248997
300.229566
300.211893
300.195945
300.181659
300.169094
300.158721
300.150923
300.144908
300.138874
300.130446
300.123358
469.583614
462.707351
455.714891
448.646085
441.540769
434.438114
427.375307
420.388445
413.510573
406.771789
400.198922
393.815322
387.640746
381.691323
375.979556
370.514315
365.300729
360.339813
355.627493
351.171672
346.972803
343.028307
339.333866
335.883829
332.671403
329.688767
326.9272
324.377238
322.028815
319.871423
317.894264
316.086405
314.436927
312.93507
311.570345
310.332642
309.212298
308.20015
307.287553
306.466391
305.729057
305.068435
304.477866
303.951126
303.482403
303.06628
302.697706
302.371986
302.084758
301.831974
301.609977
301.415381