/*--------------------------------*- C++ -*----------------------------------*\
  =========                 |
  \\      /  F ield         | OpenFOAM: The Open Source CFD Toolbox
   \\    /   O peration     | Website:  https://openfoam.org
    \\  /    A nd           | Version:  8
     \\/     M anipulation  |
\*---------------------------------------------------------------------------*/
FoamFile
{
    version     2.0;
    format      ascii;
    class       volScalarField;
    location    "0.054";
    object      p;
}
// * * * * * * * * * * * * * * * * * * * * * * * * * * * * * * * * * * * * * //

dimensions      [1 -1 -2 0 0 0 0];

internalField   nonuniform List<scalar> 
42400
(
101521.898
101521.883
101521.867
101521.852
101521.837
101521.823
101521.809
101521.795
101521.781
101521.768
101521.755
101521.743
101521.731
101521.719
101521.708
101521.697
101521.686
101521.675
101521.664
101521.654
101521.643
101521.632
101521.62
101521.608
101521.596
101521.583
101521.569
101521.554
101521.538
101521.52
101521.501
101521.48
101521.458
101521.434
101521.407
101521.377
101521.345
101521.312
101521.287
101521.274
101521.26
101521.219
101521.147
101521.07
101520.998
101520.942
101520.893
101520.843
101520.792
101520.739
101520.689
101520.636
101520.576
101520.536
101520.521
101520.517
101520.51
101520.476
101520.442
101520.441
101520.472
101520.52
101520.567
101520.626
101520.711
101520.834
101521.036
101521.337
101521.685
101522.404
101523.197
101522.867
101523.656
101526.62
101527.737
101527.261
101527.712
101531.285
101536.807
101542.759
101522.446
101522.434
101522.421
101522.409
101522.397
101522.385
101522.373
101522.361
101522.35
101522.338
101522.327
101522.317
101522.306
101522.296
101522.286
101522.276
101522.266
101522.256
101522.246
101522.236
101522.226
101522.216
101522.205
101522.193
101522.182
101522.169
101522.155
101522.141
101522.125
101522.108
101522.09
101522.07
101522.049
101522.026
101522.001
101521.973
101521.954
101521.943
101521.922
101521.874
101521.811
101521.76
101521.721
101521.681
101521.64
101521.597
101521.553
101521.508
101521.459
101521.405
101521.374
101521.375
101521.365
101521.304
101521.244
101521.228
101521.238
101521.254
101521.269
101521.291
101521.329
101521.386
101521.47
101521.591
101521.742
101521.916
101522.177
101522.661
101523.214
101524.106
101525.645
101526.095
101526.528
101528.806
101530.381
101531.874
101536.249
101540.958
101543.621
101546.756
101522.976
101522.967
101522.957
101522.947
101522.937
101522.928
101522.918
101522.909
101522.9
101522.891
101522.883
101522.874
101522.866
101522.858
101522.85
101522.843
101522.836
101522.829
101522.822
101522.815
101522.807
101522.8
101522.793
101522.785
101522.777
101522.769
101522.76
101522.75
101522.74
101522.728
101522.715
101522.701
101522.689
101522.681
101522.675
101522.671
101522.65
101522.609
101522.565
101522.531
101522.506
101522.481
101522.454
101522.425
101522.393
101522.354
101522.331
101522.323
101522.33
101522.307
101522.252
101522.222
101522.219
101522.222
101522.22
101522.222
101522.236
101522.263
101522.312
101522.391
101522.496
101522.63
101522.801
101523.031
101523.321
101523.651
101524.002
101524.672
101525.52
101526.682
101528.21
101529.158
101529.621
101533.003
101537.73
101540.121
101541.412
101543.352
101547.265
101550.415
101523.523
101523.516
101523.508
101523.5
101523.492
101523.485
101523.478
101523.471
101523.464
101523.458
101523.452
101523.446
101523.441
101523.436
101523.432
101523.428
101523.425
101523.422
101523.42
101523.418
101523.416
101523.415
101523.414
101523.413
101523.412
101523.411
101523.411
101523.409
101523.409
101523.409
101523.412
101523.416
101523.415
101523.405
101523.391
101523.375
101523.365
101523.36
101523.354
101523.347
101523.338
101523.326
101523.307
101523.303
101523.325
101523.322
101523.284
101523.26
101523.255
101523.264
101523.266
101523.266
101523.269
101523.28
101523.305
101523.349
101523.411
101523.492
101523.598
101523.741
101523.944
101524.218
101524.575
101525.026
101525.525
101526.086
101526.534
101527.228
101527.834
101528.975
101531.996
101536.584
101539.087
101539.084
101540.13
101542.684
101544.697
101546.83
101549.899
101552.829
101524.085
101524.079
101524.072
101524.065
101524.058
101524.052
101524.046
101524.041
101524.037
101524.033
101524.03
101524.027
101524.026
101524.025
101524.025
101524.026
101524.028
101524.031
101524.034
101524.039
101524.045
101524.051
101524.059
101524.066
101524.073
101524.082
101524.093
101524.105
101524.117
101524.128
101524.137
101524.145
101524.155
101524.168
101524.182
101524.195
101524.206
101524.217
101524.226
101524.228
101524.243
101524.282
101524.296
101524.28
101524.281
101524.298
101524.313
101524.323
101524.333
101524.346
101524.367
101524.396
101524.435
101524.484
101524.547
101524.63
101524.745
101524.9
101525.115
101525.4
101525.789
101526.273
101526.89
101527.647
101528.542
101529.471
101530.242
101531.292
101534.414
101537.178
101537.639
101537.598
101539.883
101542.538
101544.152
101546.028
101548.289
101550.729
101553.232
101555.309
101524.643
101524.636
101524.629
101524.622
101524.617
101524.612
101524.607
101524.604
101524.601
101524.6
101524.6
101524.601
101524.603
101524.607
101524.612
101524.618
101524.626
101524.636
101524.647
101524.658
101524.67
101524.684
101524.7
101524.719
101524.742
101524.765
101524.789
101524.813
101524.839
101524.867
101524.895
101524.924
101524.952
101524.981
101525.01
101525.038
101525.061
101525.095
101525.15
101525.183
101525.189
101525.213
101525.25
101525.281
101525.31
101525.339
101525.371
101525.406
101525.445
101525.489
101525.541
101525.605
101525.686
101525.788
101525.917
101526.082
101526.298
101526.577
101526.939
101527.37
101527.939
101528.574
101529.393
101530.141
101531.099
101533.102
101536.055
101538.063
101538.384
101539.076
101540.538
101542.117
101543.821
101545.605
101547.454
101549.316
101551.259
101553.267
101555.358
101557.326
101525.154
101525.147
101525.139
101525.133
101525.128
101525.124
101525.121
101525.119
101525.119
101525.121
101525.124
101525.129
101525.136
101525.144
101525.155
101525.168
101525.182
101525.197
101525.215
101525.238
101525.264
101525.292
101525.322
101525.354
101525.387
101525.422
101525.459
101525.498
101525.538
101525.579
101525.623
101525.668
101525.712
101525.753
101525.804
101525.874
101525.925
101525.953
101526
101526.058
101526.11
101526.16
101526.21
101526.261
101526.314
101526.37
101526.43
101526.498
101526.576
101526.667
101526.775
101526.903
101527.057
101527.247
101527.485
101527.785
101528.153
101528.591
101529.118
101529.688
101530.391
101531.021
101532.061
101534.675
101537.043
101537.701
101537.927
101539.055
101540.617
101542.041
101543.645
101545.977
101547.738
101549.239
101550.918
101552.788
101554.78
101556.566
101558.698
101560.624
101525.564
101525.557
101525.549
101525.544
101525.54
101525.537
101525.536
101525.537
101525.54
101525.545
101525.553
101525.563
101525.575
101525.589
101525.605
101525.625
101525.649
101525.677
101525.706
101525.738
101525.772
101525.81
101525.85
101525.892
101525.938
101525.986
101526.037
101526.091
101526.147
101526.204
101526.259
101526.323
101526.406
101526.472
101526.52
101526.586
101526.661
101526.732
101526.801
101526.871
101526.942
101527.016
101527.092
101527.173
101527.26
101527.356
101527.462
101527.583
101527.721
101527.88
101528.066
101528.287
101528.557
101528.89
101529.29
101529.772
101530.34
101531.012
101531.76
101532.552
101533.715
101535.978
101537.697
101538.049
101538.42
101539.311
101540.865
101542.69
101544.708
101546.535
101547.796
101548.685
101549.947
101551.591
101553.159
101554.915
101556.929
101558.843
101561.04
101562.942
101525.812
101525.806
101525.8
101525.795
101525.793
101525.793
101525.796
101525.801
101525.807
101525.817
101525.829
101525.844
101525.863
101525.886
101525.912
101525.94
101525.972
101526.007
101526.046
101526.088
101526.134
101526.184
101526.236
101526.293
101526.352
101526.415
101526.48
101526.545
101526.618
101526.708
101526.785
101526.849
101526.929
101527.019
101527.104
101527.19
101527.278
101527.367
101527.46
101527.556
101527.656
101527.762
101527.875
101527.999
101528.135
101528.286
101528.456
101528.649
101528.868
101529.123
101529.424
101529.783
101530.204
101530.698
101531.247
101531.874
101532.553
101533.323
101534.697
101536.617
101538.04
101538.449
101538.884
101539.973
101541.394
101542.782
101544.586
101546.026
101546.851
101547.881
101549.201
101550.664
101552.412
101554.162
101555.848
101557.666
101559.484
101561.045
101563.715
101566.642
101525.829
101525.825
101525.821
101525.819
101525.821
101525.824
101525.831
101525.842
101525.855
101525.872
101525.892
101525.915
101525.942
101525.972
101526.006
101526.045
101526.087
101526.134
101526.184
101526.239
101526.297
101526.36
101526.427
101526.495
101526.567
101526.646
101526.74
101526.825
101526.901
101526.991
101527.09
101527.188
101527.286
101527.388
101527.493
101527.601
101527.712
101527.829
101527.951
101528.081
101528.22
101528.37
101528.534
101528.716
101528.918
101529.144
101529.399
101529.687
101530.018
101530.404
101530.852
101531.371
101531.956
101532.63
101533.308
101534.045
101535.469
101537.387
101538.198
101538.523
101539.195
101540.294
101541.875
101543.367
101544.846
101546.141
101547.291
101548.424
101549.713
101551.192
101552.705
101554.286
101555.939
101557.67
101559.333
101561.236
101563.457
101565.52
101567.267
101568.97
101525.56
101525.559
101525.559
101525.562
101525.568
101525.578
101525.591
101525.607
101525.627
101525.651
101525.679
101525.711
101525.748
101525.789
101525.834
101525.883
101525.938
101525.997
101526.06
101526.128
101526.198
101526.276
101526.366
101526.456
101526.539
101526.628
101526.727
101526.832
101526.938
101527.046
101527.158
101527.274
101527.394
101527.519
101527.649
101527.785
101527.928
101528.081
101528.245
101528.422
101528.615
101528.828
101529.064
101529.326
101529.621
101529.95
101530.322
101530.746
101531.229
101531.776
101532.383
101533.071
101533.825
101534.818
101536.072
101537.563
101538.437
101538.745
101539.468
101540.962
101542.727
101544.138
101545.101
101546.1
101547.144
101548.158
101549.354
101550.775
101552.383
101553.95
101555.51
101557.019
101558.596
101560.165
101561.525
101563.745
101566.644
101568.755
101570.416
101571.677
101524.932
101524.935
101524.941
101524.95
101524.962
101524.979
101524.999
101525.024
101525.053
101525.086
101525.124
101525.167
101525.215
101525.268
101525.326
101525.388
101525.456
101525.528
101525.606
101525.696
101525.784
101525.871
101525.968
101526.073
101526.181
101526.292
101526.407
101526.527
101526.651
101526.78
101526.913
101527.052
101527.198
101527.351
101527.513
101527.686
101527.872
101528.073
101528.292
101528.534
101528.801
101529.098
101529.429
101529.798
101530.211
101530.672
101531.19
101531.774
101532.417
101533.113
101533.852
101534.647
101535.88
101537.238
101538.289
101538.871
101539.775
101541.302
101542.746
101543.875
101544.67
101545.558
101546.622
101547.768
101549.117
101550.579
101552.09
101553.599
101555.074
101556.714
101558.437
101560.118
101561.852
101563.658
101565.766
101567.686
101568.909
101570.532
101573.086
101575.495
101523.881
101523.891
101523.904
101523.92
101523.941
101523.966
101523.996
101524.031
101524.071
101524.116
101524.166
101524.221
101524.282
101524.348
101524.418
101524.496
101524.583
101524.671
101524.761
101524.859
101524.965
101525.075
101525.189
101525.308
101525.432
101525.561
101525.694
101525.834
101525.979
101526.13
101526.289
101526.457
101526.635
101526.825
101527.03
101527.252
101527.494
101527.76
101528.055
101528.382
101528.747
101529.154
101529.609
101530.116
101530.684
101531.32
101532.016
101532.804
101533.698
101534.612
101535.625
101537.077
101538.141
101538.779
101539.571
101540.709
101542.134
101543.305
101544.304
101545.196
101546.295
101547.683
101549.186
101550.643
101552.124
101553.609
101555.118
101556.725
101558.36
101559.952
101561.689
101563.669
101565.696
101567.935
101569.767
101571.153
101573.104
101575.21
101577.03
101578.928
101522.333
101522.35
101522.373
101522.399
101522.43
101522.466
101522.507
101522.554
101522.606
101522.664
101522.727
101522.795
101522.871
101522.955
101523.042
101523.131
101523.23
101523.335
101523.445
101523.56
101523.681
101523.807
101523.939
101524.076
101524.219
101524.368
101524.524
101524.687
101524.859
101525.04
101525.234
101525.441
101525.664
101525.906
101526.17
101526.461
101526.782
101527.137
101527.53
101527.966
101528.449
101528.981
101529.565
101530.202
101530.897
101531.653
101532.415
101533.213
101534.393
101536.053
101537.547
101538.183
101538.804
101539.871
101541.307
101542.77
101543.68
101544.563
101545.656
101546.944
101548.486
101550.045
101551.492
101552.963
101554.444
101555.989
101557.535
101559.116
101560.758
101562.292
101563.803
101565.644
101567.746
101569.916
101572.198
101574.036
101575.707
101577.671
101579.572
101581.095
101520.232
101520.259
101520.293
101520.332
101520.375
101520.423
101520.478
101520.537
101520.603
101520.677
101520.756
101520.84
101520.928
101521.025
101521.128
101521.237
101521.352
101521.472
101521.599
101521.731
101521.87
101522.015
101522.166
101522.324
101522.49
101522.665
101522.849
101523.045
101523.254
101523.479
101523.722
101523.987
101524.277
101524.597
101524.95
101525.341
101525.776
101526.259
101526.795
101527.387
101528.04
101528.757
101529.541
101530.392
101531.318
101532.334
101533.394
101534.559
101535.474
101536.152
101537.062
101538.296
101539.728
101541.362
101542.636
101543.564
101544.836
101546.527
101547.997
101549.346
101550.685
101552.124
101553.634
101555.185
101556.779
101558.338
101559.925
101561.508
101563.428
101565.659
101567.989
101569.673
101571.084
101572.722
101574.476
101576.177
101578.05
101580.331
101582.114
101583.741
101517.526
101517.565
101517.613
101517.665
101517.722
101517.785
101517.855
101517.93
101518.011
101518.098
101518.192
101518.293
101518.4
101518.512
101518.632
101518.757
101518.889
101519.028
101519.173
101519.324
101519.484
101519.651
101519.827
101520.013
101520.21
101520.419
101520.644
101520.887
101521.149
101521.436
101521.75
101522.095
101522.476
101522.897
101523.363
101523.877
101524.444
101525.066
101525.746
101526.485
101527.281
101528.137
101529.043
101530.023
101531.027
101532.048
101533.341
101534.858
101536.115
101537.453
101538.925
101540.307
101541.843
101543.137
101544.156
101545.361
101546.529
101547.542
101548.679
101550.133
101551.572
101553.094
101554.969
101557.028
101559.091
101561.222
101563.538
101565.75
101567.282
101568.722
101569.925
101571.531
101573.686
101575.334
101577.063
101578.829
101580.618
101582.625
101584.866
101587.176
101514.199
101514.252
101514.316
101514.384
101514.457
101514.535
101514.62
101514.711
101514.808
101514.912
101515.022
101515.139
101515.262
101515.392
101515.528
101515.671
101515.822
101515.98
101516.147
101516.322
101516.507
101516.703
101516.912
101517.136
101517.377
101517.637
101517.92
101518.229
101518.568
101518.942
101519.354
101519.808
101520.309
101520.861
101521.466
101522.127
101522.846
101523.622
101524.455
101525.342
101526.263
101527.239
101528.245
101529.653
101531.56
101533.51
101534.781
101535.684
101537.071
101538.457
101539.429
101540.607
101541.789
101542.969
101544.437
101546.028
101547.685
101549.358
101551.022
101552.809
101555.035
101557.478
101559.157
101560.499
101561.834
101563.115
101564.43
101565.918
101568.122
101570.567
101572.42
101573.478
101575.162
101577.855
101579.65
101581.548
101583.06
101584.424
101585.961
101587.516
101510.249
101510.318
101510.4
101510.484
101510.574
101510.669
101510.77
101510.878
101510.992
101511.113
101511.24
101511.375
101511.516
101511.665
101511.822
101511.987
101512.162
101512.347
101512.544
101512.754
101512.979
101513.221
101513.484
101513.77
101514.083
101514.428
101514.807
101515.227
101515.692
101516.207
101516.776
101517.403
101518.093
101518.848
101519.669
101520.557
101521.513
101522.533
101523.614
101524.74
101525.876
101527.323
101529.272
101530.853
101532.031
101533.07
101534.318
101536.044
101537.583
101538.752
101539.896
101541.088
101542.426
101544.118
101545.901
101547.701
101549.555
101551.441
101553.272
101555.089
101557.24
101558.864
101560.21
101561.787
101563.532
101565.512
101567.562
101569.498
101571.402
101573.346
101575.186
101577.264
101579.27
101580.725
101582.686
101584.474
101585.997
101588.265
101590.264
101591.546
101505.747
101505.832
101505.932
101506.033
101506.139
101506.251
101506.369
101506.493
101506.624
101506.762
101506.906
101507.059
101507.22
101507.391
101507.571
101507.764
101507.969
101508.19
101508.428
101508.686
101508.968
101509.277
101509.618
101509.994
101510.412
101510.876
101511.391
101511.965
101512.601
101513.305
101514.081
101514.934
101515.866
101516.878
101517.972
101519.146
101520.4
101521.729
101523.135
101524.599
101526.191
101527.906
101529.149
101530.191
101531.4
101532.727
101533.949
101535.017
101536.11
101537.628
101539.684
101541.688
101543.547
101545.34
101547.181
101549.03
101550.933
101552.885
101554.84
101556.563
101557.889
101559.505
101561.71
101563.787
101565.832
101567.743
101569.601
101571.485
101573.471
101575.47
101577.433
101579.351
101581.568
101583.73
101585.907
101587.975
101590.09
101592.067
101593.43
101594.122
101500.753
101500.854
101500.972
101501.09
101501.211
101501.338
101501.47
101501.609
101501.754
101501.907
101502.068
101502.238
101502.418
101502.61
101502.816
101503.038
101503.277
101503.539
101503.825
101504.14
101504.487
101504.873
101505.302
101505.779
101506.311
101506.901
101507.557
101508.281
101509.079
101509.953
101510.906
101511.937
101513.048
101514.236
101515.499
101516.833
101518.232
101519.688
101521.225
101522.845
101524.543
101525.973
101527.348
101528.904
101530.339
101531.918
101533.685
101535.473
101537.27
101539.095
101540.844
101542.55
101544.246
101546.118
101548.384
101550.674
101552.853
101555.017
101557.211
101559.189
101560.9
101562.445
101563.985
101565.728
101567.621
101569.718
101571.697
101574.019
101576.754
101579.375
101581.192
101582.325
101583.773
101585.628
101587.327
101589.077
101591.129
101593.083
101594.832
101596.611
101491.541
101491.543
101491.544
101491.544
101491.542
101491.539
101491.534
101491.528
101491.521
101491.511
101491.501
101491.488
101491.474
101491.458
101491.439
101491.419
101491.397
101491.373
101491.346
101491.317
101491.286
101491.252
101491.215
101491.176
101491.134
101491.088
101491.039
101490.987
101490.932
101490.873
101490.809
101490.742
101490.671
101490.595
101490.514
101490.43
101490.34
101490.244
101490.142
101490.036
101489.923
101489.804
101489.678
101489.546
101489.406
101489.259
101489.103
101488.939
101488.767
101488.584
101488.391
101488.185
101487.965
101487.728
101487.473
101487.195
101486.892
101486.557
101486.183
101485.764
101485.29
101484.752
101484.141
101483.449
101482.668
101481.79
101480.803
101479.696
101478.472
101477.16
101475.708
101473.849
101471.987
101469.802
101467.361
101465.106
101462.538
101459.497
101456.223
101453.733
101492.96
101492.961
101492.962
101492.962
101492.96
101492.958
101492.954
101492.949
101492.942
101492.934
101492.925
101492.915
101492.903
101492.89
101492.875
101492.858
101492.84
101492.82
101492.798
101492.774
101492.748
101492.72
101492.69
101492.657
101492.622
101492.585
101492.545
101492.502
101492.457
101492.408
101492.356
101492.302
101492.243
101492.181
101492.116
101492.046
101491.971
101491.891
101491.809
101491.722
101491.63
101491.533
101491.43
101491.322
101491.208
101491.088
101490.961
101490.827
101490.686
101490.537
101490.38
101490.213
101490.036
101489.845
101489.639
101489.416
101489.172
101488.902
101488.603
101488.269
101487.891
101487.464
101486.979
101486.429
101485.806
101485.104
101484.316
101483.44
101482.47
101481.393
101480.168
101478.807
101477.296
101475.648
101473.84
101471.918
101469.782
101467.333
101464.637
101462.615
101494.582
101494.583
101494.584
101494.583
101494.582
101494.58
101494.577
101494.573
101494.568
101494.562
101494.555
101494.547
101494.538
101494.528
101494.517
101494.504
101494.491
101494.476
101494.459
101494.441
101494.422
101494.401
101494.378
101494.354
101494.328
101494.3
101494.27
101494.238
101494.203
101494.167
101494.128
101494.087
101494.044
101493.997
101493.948
101493.896
101493.84
101493.782
101493.72
101493.656
101493.587
101493.515
101493.44
101493.36
101493.277
101493.189
101493.097
101492.999
101492.897
101492.79
101492.677
101492.557
101492.431
101492.298
101492.155
101492.001
101491.834
101491.65
101491.445
101491.214
101490.952
101490.653
101490.307
101489.907
101489.444
101488.907
101488.287
101487.575
101486.761
101485.84
101484.824
101483.742
101482.591
101481.334
101479.971
101478.531
101476.998
101475.368
101473.758
101472.659
101496.372
101496.372
101496.373
101496.372
101496.371
101496.37
101496.368
101496.365
101496.362
101496.358
101496.354
101496.349
101496.343
101496.336
101496.329
101496.321
101496.312
101496.302
101496.291
101496.28
101496.267
101496.253
101496.239
101496.223
101496.206
101496.187
101496.168
101496.147
101496.125
101496.101
101496.076
101496.05
101496.022
101495.992
101495.961
101495.926
101495.889
101495.851
101495.811
101495.77
101495.726
101495.68
101495.632
101495.581
101495.528
101495.473
101495.415
101495.354
101495.29
101495.224
101495.154
101495.08
101495.003
101494.922
101494.838
101494.751
101494.66
101494.56
101494.449
101494.324
101494.181
101494.015
101493.817
101493.58
101493.293
101492.946
101492.529
101492.034
101491.463
101490.821
101490.116
101489.353
101488.548
101487.733
101486.889
101485.977
101485.018
101483.766
101482.44
101481.859
101498.281
101498.281
101498.281
101498.281
101498.281
101498.28
101498.279
101498.278
101498.276
101498.274
101498.272
101498.27
101498.268
101498.265
101498.261
101498.258
101498.254
101498.249
101498.244
101498.239
101498.233
101498.227
101498.22
101498.213
101498.205
101498.197
101498.187
101498.178
101498.167
101498.156
101498.145
101498.132
101498.119
101498.105
101498.091
101498.075
101498.058
101498.041
101498.023
101498.005
101497.985
101497.965
101497.944
101497.923
101497.9
101497.877
101497.854
101497.83
101497.806
101497.782
101497.756
101497.731
101497.705
101497.677
101497.647
101497.621
101497.596
101497.566
101497.534
101497.503
101497.47
101497.427
101497.369
101497.289
101497.177
101497.02
101496.808
101496.533
101496.191
101495.781
101495.3
101494.757
101494.184
101493.598
101492.992
101492.393
101491.773
101491.158
101490.323
101489.382
101500.271
101500.271
101500.271
101500.271
101500.271
101500.271
101500.271
101500.271
101500.271
101500.272
101500.272
101500.272
101500.273
101500.273
101500.274
101500.274
101500.275
101500.275
101500.276
101500.277
101500.277
101500.278
101500.278
101500.279
101500.279
101500.28
101500.281
101500.281
101500.282
101500.282
101500.283
101500.285
101500.287
101500.288
101500.289
101500.29
101500.292
101500.293
101500.295
101500.297
101500.3
101500.303
101500.307
101500.311
101500.316
101500.323
101500.33
101500.339
101500.35
101500.362
101500.376
101500.393
101500.412
101500.434
101500.458
101500.482
101500.509
101500.539
101500.569
101500.608
101500.653
101500.699
101500.748
101500.788
101500.813
101500.811
101500.772
101500.681
101500.521
101500.286
101499.982
101499.63
101499.273
101498.948
101498.653
101498.346
101497.997
101497.54
101496.99
101496.602
101502.298
101502.298
101502.298
101502.298
101502.298
101502.299
101502.3
101502.301
101502.303
101502.305
101502.307
101502.31
101502.313
101502.317
101502.321
101502.325
101502.33
101502.335
101502.341
101502.346
101502.353
101502.359
101502.367
101502.374
101502.383
101502.391
101502.401
101502.411
101502.423
101502.435
101502.447
101502.458
101502.47
101502.484
101502.499
101502.515
101502.531
101502.549
101502.568
101502.588
101502.609
101502.632
101502.657
101502.683
101502.712
101502.742
101502.775
101502.811
101502.849
101502.891
101502.936
101502.986
101503.039
101503.097
101503.161
101503.229
101503.303
101503.385
101503.473
101503.562
101503.652
101503.757
101503.881
101504.003
101504.122
101504.236
101504.334
101504.405
101504.442
101504.444
101504.4
101504.328
101504.254
101504.206
101504.178
101504.14
101504.093
101504.002
101503.846
101503.686
101504.329
101504.328
101504.328
101504.328
101504.328
101504.33
101504.331
101504.334
101504.337
101504.34
101504.344
101504.349
101504.354
101504.36
101504.367
101504.375
101504.383
101504.392
101504.401
101504.411
101504.422
101504.434
101504.447
101504.462
101504.478
101504.494
101504.51
101504.527
101504.545
101504.563
101504.584
101504.605
101504.628
101504.652
101504.678
101504.705
101504.734
101504.764
101504.796
101504.83
101504.866
101504.904
101504.945
101504.988
101505.034
101505.084
101505.136
101505.193
101505.253
101505.318
101505.387
101505.461
101505.541
101505.627
101505.72
101505.82
101505.928
101506.046
101506.175
101506.316
101506.468
101506.627
101506.806
101507.005
101507.208
101507.417
101507.629
101507.843
101508.059
101508.254
101508.423
101508.579
101508.731
101508.864
101508.978
101509.106
101509.226
101509.302
101509.364
101509.496
101506.328
101506.326
101506.326
101506.325
101506.326
101506.327
101506.329
101506.332
101506.336
101506.341
101506.346
101506.353
101506.36
101506.368
101506.377
101506.387
101506.397
101506.409
101506.422
101506.435
101506.45
101506.466
101506.483
101506.5
101506.518
101506.538
101506.559
101506.582
101506.606
101506.632
101506.659
101506.687
101506.717
101506.749
101506.782
101506.817
101506.854
101506.893
101506.935
101506.979
101507.025
101507.074
101507.126
101507.182
101507.24
101507.303
101507.369
101507.44
101507.515
101507.596
101507.682
101507.775
101507.876
101507.985
101508.104
101508.234
101508.374
101508.523
101508.683
101508.858
101509.049
101509.26
101509.488
101509.741
101510.01
101510.288
101510.584
101510.9
101511.224
101511.554
101511.895
101512.246
101512.589
101512.902
101513.194
101513.483
101513.773
101514.07
101514.363
101514.712
101508.271
101508.269
101508.268
101508.267
101508.267
101508.268
101508.27
101508.273
101508.276
101508.281
101508.286
101508.293
101508.3
101508.309
101508.319
101508.33
101508.342
101508.355
101508.37
101508.385
101508.402
101508.42
101508.439
101508.46
101508.481
101508.505
101508.529
101508.555
101508.583
101508.612
101508.642
101508.674
101508.708
101508.744
101508.782
101508.822
101508.864
101508.909
101508.955
101509.005
101509.057
101509.112
101509.17
101509.231
101509.296
101509.366
101509.44
101509.519
101509.604
101509.697
101509.798
101509.905
101510.015
101510.132
101510.258
101510.394
101510.552
101510.728
101510.914
101511.113
101511.329
101511.563
101511.816
101512.087
101512.382
101512.708
101513.067
101513.458
101513.879
101514.334
101514.82
101515.327
101515.82
101516.299
101516.791
101517.272
101517.74
101518.274
101518.903
101519.431
101510.132
101510.129
101510.126
101510.124
101510.124
101510.124
101510.125
101510.127
101510.13
101510.134
101510.14
101510.146
101510.154
101510.163
101510.173
101510.184
101510.196
101510.21
101510.225
101510.241
101510.258
101510.277
101510.297
101510.318
101510.341
101510.365
101510.391
101510.418
101510.446
101510.477
101510.508
101510.542
101510.577
101510.614
101510.653
101510.694
101510.738
101510.783
101510.83
101510.881
101510.933
101510.989
101511.048
101511.111
101511.179
101511.253
101511.332
101511.414
101511.497
101511.583
101511.677
101511.787
101511.912
101512.045
101512.184
101512.333
101512.496
101512.67
101512.85
101513.048
101513.264
101513.5
101513.758
101514.041
101514.354
101514.701
101515.086
101515.515
101515.996
101516.526
101517.096
101517.698
101518.328
101518.994
101519.675
101520.342
101521.075
101521.919
101522.823
101523.427
101511.897
101511.892
101511.888
101511.885
101511.882
101511.881
101511.881
101511.882
101511.884
101511.887
101511.891
101511.897
101511.903
101511.911
101511.92
101511.93
101511.942
101511.954
101511.968
101511.984
101512
101512.018
101512.038
101512.058
101512.08
101512.104
101512.128
101512.154
101512.182
101512.211
101512.241
101512.273
101512.307
101512.342
101512.378
101512.417
101512.459
101512.501
101512.546
101512.594
101512.645
101512.7
101512.759
101512.817
101512.877
101512.939
101513.004
101513.083
101513.176
101513.272
101513.377
101513.484
101513.592
101513.711
101513.841
101513.983
101514.134
101514.297
101514.475
101514.668
101514.88
101515.112
101515.366
101515.646
101515.956
101516.3
101516.684
101517.113
101517.593
101518.127
101518.717
101519.371
101520.103
101520.899
101521.733
101522.617
101523.591
101524.678
101525.758
101526.477
101513.553
101513.546
101513.54
101513.534
101513.53
101513.527
101513.525
101513.523
101513.523
101513.525
101513.527
101513.53
101513.535
101513.541
101513.548
101513.556
101513.566
101513.577
101513.589
101513.602
101513.617
101513.633
101513.65
101513.668
101513.688
101513.709
101513.73
101513.754
101513.778
101513.804
101513.831
101513.859
101513.889
101513.919
101513.952
101513.985
101514.023
101514.065
101514.106
101514.145
101514.183
101514.224
101514.266
101514.317
101514.384
101514.455
101514.523
101514.59
101514.659
101514.736
101514.819
101514.911
101515.01
101515.118
101515.236
101515.364
101515.503
101515.654
101515.818
101515.998
101516.193
101516.407
101516.642
101516.9
101517.186
101517.503
101517.858
101518.255
101518.702
101519.2
101519.752
101520.36
101521.04
101521.803
101522.691
101523.813
101525.112
101526.33
101527.49
101528.352
101515.085
101515.077
101515.067
101515.059
101515.052
101515.046
101515.041
101515.037
101515.035
101515.033
101515.033
101515.033
101515.035
101515.038
101515.043
101515.048
101515.055
101515.063
101515.072
101515.082
101515.094
101515.106
101515.12
101515.135
101515.15
101515.167
101515.185
101515.205
101515.225
101515.247
101515.27
101515.295
101515.321
101515.348
101515.374
101515.399
101515.424
101515.449
101515.477
101515.511
101515.55
101515.59
101515.631
101515.67
101515.708
101515.751
101515.799
101515.853
101515.911
101515.974
101516.043
101516.119
101516.201