/*--------------------------------*- C++ -*----------------------------------*\
  =========                 |
  \\      /  F ield         | OpenFOAM: The Open Source CFD Toolbox
   \\    /   O peration     | Website:  https://openfoam.org
    \\  /    A nd           | Version:  8
     \\/     M anipulation  |
\*---------------------------------------------------------------------------*/
FoamFile
{
    version     2.0;
    format      ascii;
    class       surfaceScalarField;
    location    "0.054";
    object      phi;
}
// * * * * * * * * * * * * * * * * * * * * * * * * * * * * * * * * * * * * * //

dimensions      [1 0 -1 0 0 0 0];

internalField   nonuniform List<scalar> 
84340
(
-7.31726058e-08
2.97904721e-07
-2.24004881e-07
-2.97418454e-07
9.46647186e-07
-7.21225381e-07
-6.80300381e-07
1.66088003e-06
-1.27654554e-06
-1.22829407e-06
2.43104852e-06
-1.88136293e-06
-1.94760762e-06
3.25063447e-06
-2.52941678e-06
-2.84440499e-06
4.11554634e-06
-3.21664702e-06
-3.92494268e-06
5.02358491e-06
-3.94075128e-06
-5.19562689e-06
5.97396992e-06
-4.70079187e-06
-6.66302204e-06
6.96694703e-06
-5.49685077e-06
-8.33382366e-06
8.00344706e-06
-6.32972386e-06
-1.02148038e-05
9.08480788e-06
-7.20066963e-06
-1.23127349e-05
1.0212555e-05
-8.11121116e-06
-1.46342967e-05
1.1388243e-05
-9.06299374e-06
-1.71859703e-05
1.26133504e-05
-1.00576927e-05
-1.99739118e-05
1.3889211e-05
-1.10969656e-05
-2.30038246e-05
1.52169901e-05
-1.21824286e-05
-2.62808025e-05
1.65976676e-05
-1.33156696e-05
-2.9809172e-05
1.80320427e-05
-1.44982532e-05
-3.35923108e-05
1.95207443e-05
-1.57317555e-05
-3.76324527e-05
2.1064237e-05
-1.70177826e-05
-4.19304761e-05
2.2662826e-05
-1.83579935e-05
-4.64856693e-05
2.43166537e-05
-1.9754118e-05
-5.12954709e-05
2.60256796e-05
-2.12079637e-05
-5.63551898e-05
2.77896564e-05
-2.27214095e-05
-6.16576819e-05
2.96080726e-05
-2.42963952e-05
-6.71929933e-05
3.14800883e-05
-2.59348872e-05
-7.2947967e-05
3.34044348e-05
-2.76388181e-05
-7.8905783e-05
3.53792949e-05
-2.94100295e-05
-8.50454473e-05
3.74021443e-05
-3.12501694e-05
-9.13411847e-05
3.94695545e-05
-3.31605859e-05
-9.77617472e-05
4.1576969e-05
-3.51421939e-05
-0.000104269602
4.37184059e-05
-3.71952911e-05
-0.000110820162
4.58863024e-05
-3.93193687e-05
-0.000117361744
4.80720569e-05
-4.15129093e-05
-0.000123836426
5.02666042e-05
-4.37731052e-05
-0.000130183589
5.2462934e-05
-4.60956145e-05
-0.000136320248
5.46333676e-05
-4.84750872e-05
-0.000142132112
5.67461329e-05
-5.09112558e-05
-0.000147514488
5.88069326e-05
-5.34000109e-05
-0.000152378778
6.07869017e-05
-5.58962155e-05
-0.000156570826
6.2619872e-05
-5.84001419e-05
-0.000159810348
6.41947322e-05
-6.09263513e-05
-0.000161821646
6.54679043e-05
-6.34254426e-05
-0.000162335821
6.63657721e-05
-6.58177342e-05
-0.000161125748
6.68238122e-05
-6.79974864e-05
-0.000157840083
6.67151384e-05
-6.99619249e-05
-0.0001520702
6.59037577e-05
-7.1632408e-05
-0.000143409365
6.4243802e-05
-7.28606874e-05
-0.00013140982
6.15885562e-05
-7.3541173e-05
-0.00011554873
5.77661432e-05
-7.35771613e-05
-9.52069803e-05
5.24941653e-05
-7.27826134e-05
-6.98366649e-05
4.56608172e-05
-7.09744496e-05
-3.9172878e-05
3.73563693e-05
-6.79600001e-05
-2.65304716e-06
2.69052731e-05
-6.33607124e-05
4.08454512e-05
1.37133441e-05
-5.71435582e-05
9.24203736e-05
-2.58794099e-06
-4.89158751e-05
0.000153215232
-2.1990605e-05
-3.87287429e-05
0.000224665966
-4.54474354e-05
-2.59210687e-05
0.000308245047
-7.38040982e-05
-9.68616291e-06
0.000405556155
-0.000107574943
1.03590164e-05
0.000518165742
-0.000147200386
3.46922084e-05
0.000648428992
-0.00019346421
6.33096392e-05
0.000797478484
-0.000247393546
9.84611588e-05
0.000967301037
-0.000309842531
0.00014014638
0.00115950585
-0.000381146007
0.000189076259
0.0013754191
-0.000462224935
0.000246451314
0.0016192015
-0.000558257909
0.000314609379
0.0018949433
-0.000669300479
0.000393683506
0.00219870763
-0.000789900379
0.000486251077
0.00254994212
-0.000957773078
0.000606644134
0.00296904378
-0.00111371119
0.000694707104
0.00336675188
-0.0011637546
0.000766135465
0.00370460372
-0.0013925736
0.00105479995
0.00420763023
-0.00179252517
0.00128956851
0.00492333469
-0.00188188214
0.00116623706
0.0055271072
-0.00189199273
0.00128826648
0.0058794681
-0.00221443272
0.00186210344
0.00620647624
-0.00261478691
0.00228779736
0.00669029592
-0.00284750158
0.0023636663
-0.00287225137
0.00225943466
0.00730308202
-5.75055945e-08
3.56433953e-07
-2.352514e-07
1.12584459e-06
-5.39778837e-07
1.96707918e-06
-9.76489029e-07
2.86963454e-06
-1.55025379e-06
3.82646841e-06
-2.2658619e-06
4.83341392e-06
-3.12806424e-06
5.8882406e-06
-4.14162568e-06
6.99018728e-06
-5.3113219e-06
8.13951418e-06
-6.64189793e-06
9.33712433e-06
-8.13799558e-06
1.05842546e-05
-9.80405771e-06
1.18822334e-05
-1.16442112e-05
1.32323009e-05
-1.36621293e-05
1.46354838e-05
-1.58608855e-05
1.60925175e-05
-1.8242773e-05
1.76037887e-05
-2.08091197e-05
1.91693134e-05
-2.35600754e-05
2.07887148e-05
-2.64943742e-05
2.24612076e-05
-2.96090758e-05
2.41855842e-05
-3.28992795e-05
2.59601909e-05
-3.63577992e-05
2.77828874e-05
-3.99748187e-05
2.96510049e-05
-4.37374968e-05
3.15612737e-05
-4.76295371e-05
3.35097291e-05
-5.16307183e-05
3.54916095e-05
-5.57163676e-05
3.75011966e-05
-5.98567736e-05
3.95316382e-05
-6.4016574e-05
4.15747599e-05
-6.81542537e-05
4.36209869e-05
-7.22223801e-05
4.56598393e-05
-7.61673877e-05
4.76792014e-05
-7.99230231e-05
4.96588701e-05
-8.34088104e-05
5.15760362e-05
-8.65383859e-05
5.3415521e-05
-8.92168252e-05
5.51618041e-05
-9.13565237e-05
5.67949121e-05
-9.28327214e-05
5.82456467e-05
-9.34399867e-05
5.94390175e-05
-9.29284622e-05
6.03018743e-05
-9.10459785e-05
6.07657358e-05
-8.75709559e-05
6.07501394e-05
-8.22295541e-05
6.01589584e-05
-7.46968131e-05
5.88676415e-05
-6.45948437e-05
5.67586863e-05
-5.15412739e-05
5.37007564e-05
-3.50818072e-05
4.94859473e-05
-1.48499256e-05
4.40561815e-05
9.63413734e-06
3.71515213e-05
3.85616339e-05
2.88887664e-05
7.28842338e-05
1.82241687e-05
0.000113431682
5.16795675e-06
0.000161195075
-1.03492233e-05
0.000217312889
-2.91500129e-05
0.000283166636
-5.20733388e-05
0.000359941576
-7.92913886e-05
0.000449316255
-0.000111289176
0.000552769463
-0.000148819466
0.000671747587
-0.000192695749
0.000807945492
-0.000243680083
0.000963404999
-0.000302561269
0.0011400864
-0.000370040782
0.00133980901
-0.000447005069
0.00156430495
-0.000534227466
0.00181466699
-0.000631405259
0.00209013632
-0.000737598741
0.00239308671
-0.000861120207
0.00273454348
-0.00101067513
0.00310720642
-0.00116248743
0.00349542395
-0.00134591959
0.00395461903
-0.00157284035
0.0044909678
-0.00170004192
0.00493021797
-0.00183176859
0.00528452311
-0.00214678019
0.00581967135
-0.00241699099
0.00643806195
-0.00251035428
0.00684233768
-0.00261868976
0.00700893967
-0.0027813753
0.00711085867
-0.00294941817
-0.00309648667
0.00733507632
-4.35901907e-08
4.01133161e-07
-1.7963219e-07
1.26346162e-06
-4.13429609e-07
2.20269129e-06
-7.48970418e-07
3.20721151e-06
-1.18963097e-06
4.26937393e-06
-1.73834156e-06
5.38457358e-06
-2.39795293e-06
6.55050773e-06
-3.17119833e-06
7.76630314e-06
-4.06064825e-06
9.03206116e-06
-5.06865546e-06
1.03484699e-05
-6.1972648e-06
1.17164606e-05
-7.44809503e-06
1.31369372e-05
-8.82219918e-06
1.46105757e-05
-1.03199025e-05
1.61376765e-05
-1.19406187e-05
1.77180647e-05
-1.36826489e-05
1.9351016e-05
-1.55429483e-05
2.1035202e-05
-1.75168776e-05
2.27686526e-05
-1.95979184e-05
2.45487053e-05
-2.17773616e-05
2.63719636e-05
-2.40439645e-05
2.82342417e-05
-2.6383569e-05
3.01304863e-05
-2.87786851e-05
3.20546985e-05
-3.12079892e-05
3.39997773e-05
-3.36457465e-05
3.59573491e-05
-3.60612038e-05
3.79176365e-05
-3.84180533e-05
3.98693693e-05
-4.06739187e-05
4.1799623e-05
-4.27800221e-05
4.36938399e-05
-4.4677354e-05
4.55322328e-05
-4.63010767e-05
4.72983945e-05
-4.75803772e-05
4.89742142e-05
-4.84433184e-05
5.05385867e-05
-4.87994305e-05
5.19501119e-05
-4.8525483e-05
5.31607108e-05
-4.74601744e-05
5.41169119e-05
-4.53886002e-05
5.4745069e-05
-4.20978067e-05
5.49779922e-05
-3.73662671e-05
5.47322671e-05
-3.09456506e-05
5.39078334e-05
-2.25745503e-05
5.2422943e-05
-1.1950452e-05
5.01561783e-05
1.26253528e-06
4.69780266e-05
1.74581082e-05
4.27061349e-05
3.69789205e-05
3.72740011e-05
5.99369311e-05
3.07811746e-05
8.70277429e-05
2.24361014e-05
0.000118949708
1.21770361e-05
0.000156501063
-3.55326386e-07
0.000200592766
-1.51551177e-05
0.000252256858
-3.33884736e-05
0.0003126473
-5.51676885e-05
0.000383254071
-8.08976779e-05
0.000465299085
-0.000111132901
0.000559843377
-0.000146551616
0.000668411844
-0.000187789455
0.000792741712
-0.000235543929
0.00093455762
-0.000290555591
0.00109564543
-0.000353699595
0.00127768693
-0.000425632651
0.00148251597
-0.000507298534
0.00171194183
-0.000599377245
0.00196768234
-0.000702662811
0.0022512036
-0.000817671541
0.00256359304
-0.000943722841
0.00290267883
-0.00107661661
0.00326177471
-0.0012201522
0.00364927064
-0.00139810992
0.0040715731
-0.00158473209
0.0045003292
-0.00177462009
0.00492008658
-0.00199254519
0.00541307267
-0.0021929805
0.00590189016
-0.00232054476
0.00621560258
-0.00246045671
0.00642595558
-0.00262731271
0.0066685765
-0.00275294042
0.00691648756
-0.00286657864
0.00710876276
-0.00297363973
0.00722886731
-0.00306951748
-0.0031865783
0.00731895358
-3.5135425e-08
4.37340087e-07
-1.44734058e-07
1.37457531e-06
-3.32467638e-07
2.39216512e-06
-6.00580112e-07
3.47727286e-06
-9.5070411e-07
4.62164496e-06
-1.38392781e-06
5.8201392e-06
-1.90082109e-06
7.06994101e-06
-2.50161417e-06
8.36984278e-06
-3.18635682e-06
9.71976925e-06
-3.9546585e-06
1.1119971e-05
-4.80557177e-06
1.25708244e-05
-5.73745519e-06
1.40725413e-05
-6.74780195e-06
1.56249337e-05
-7.83305478e-06
1.7227253e-05
-8.98839463e-06
1.88780639e-05
-1.02074986e-05
2.05751396e-05
-1.14822838e-05
2.23153929e-05
-1.28026108e-05
2.4094799e-05
-1.4155969e-05
2.59083253e-05
-1.55270916e-05
2.77498211e-05
-1.68974832e-05
2.96118733e-05
-1.82449013e-05
3.14856838e-05
-1.95428559e-05
3.33610049e-05
-2.07602123e-05
3.52260946e-05
-2.18599412e-05
3.70666879e-05
-2.2800147e-05
3.88681549e-05
-2.35339777e-05
4.06142644e-05
-2.400906e-05
4.22864992e-05
-2.41697992e-05
4.38671353e-05
-2.39389487e-05
4.53148218e-05
-2.32233366e-05
4.65971475e-05
-2.19089189e-05
4.76751075e-05
-1.98532483e-05
4.84992595e-05
-1.6898403e-05
4.90127095e-05
-1.28698022e-05
4.91506746e-05
-7.56513468e-06
4.88321137e-05
-7.59493602e-07
4.7960688e-05
7.7760505e-06
4.64650972e-05
1.82995387e-05
4.42328821e-05
3.10905206e-05
4.11424948e-05
4.65107832e-05
3.70299068e-05
6.48997378e-05
3.17961933e-05
8.63991508e-05
2.550943e-05
0.000111687043
1.7450437e-05
0.00014136656
7.62807964e-06
0.00017618592
-4.00212436e-06
0.000216973345
-1.83126836e-05
0.000264710124
-3.55186922e-05
0.000320425505
-5.60270448e-05
0.00038553185
-8.02150124e-05
0.00046082826
-0.000108635528
0.000547539878
-0.000141826789
0.000647057151
-0.000180359051
0.000760877044
-0.000224893127
0.00089052226
-0.000276133752
0.0010375224
-0.000334723205
0.00120346882
-0.000401420491
0.00138990262
-0.000476915425
0.00159830695
-0.000562028625
0.00183019618
-0.000657449579
0.00208710468
-0.000764139696
0.00236996453
-0.000882173901
0.0026796759
-0.00101231497
0.00301543993
-0.0011533792
0.0033762705
-0.00130449979
0.00376032297
-0.00146061702
0.00415612174
-0.00161590055
0.00455447448
-0.00179641303
0.00496248908
-0.00199270102
0.00535577105
-0.00216786023
0.00568246416
-0.00231919906
0.0059513144
-0.00246178782
0.00619988198
-0.00256906608
0.00641919149
-0.00267972944
0.00657530968
-0.00278339355
0.00670870115
-0.00288629414
0.00683075349
-0.0029886109
0.00694702783
-0.00308990175
0.007056756
-0.00317924029
-0.00327584192
0.00714601612
-3.25207043e-08
4.71057362e-07
-1.32959225e-07
1.47670364e-06
-3.03180633e-07
2.56432557e-06
-5.43483416e-07
3.71974416e-06
-8.53324554e-07
4.93387079e-06
-1.23165812e-06
6.20106899e-06
-1.67675962e-06
7.51785287e-06
-2.1862022e-06
8.88231716e-06
-2.75700354e-06
1.02938345e-05
-3.38556209e-06
1.17520396e-05
-4.06740046e-06
1.3256435e-05
-4.79699125e-06
1.48061842e-05
-5.56755794e-06
1.63998514e-05
-6.37084534e-06
1.80352106e-05
-7.19686345e-06
1.9709093e-05
-8.0336097e-06
2.14172603e-05
-8.86673132e-06
2.31542764e-05
-9.67912158e-06
2.49133639e-05
-1.04504994e-05
2.66863158e-05
-1.11571044e-05
2.84635045e-05
-1.17709011e-05
3.02332487e-05
-1.22600519e-05
3.19829481e-05
-1.25887833e-05
3.36983928e-05
-1.27170121e-05
3.5363555e-05
-1.25932779e-05
3.69528173e-05
-1.21575817e-05
3.84429798e-05
-1.13390813e-05
3.98069721e-05
-1.00527729e-05
4.10121533e-05
-8.19348988e-06
4.20206212e-05
-5.65358565e-06
4.2788523e-05
-2.30400371e-06
4.32620433e-05
2.00923103e-06
4.33773247e-05
7.46628591e-06
4.30587231e-05
1.42615733e-05
4.22350364e-05
2.26075012e-05
4.08235049e-05
3.27380323e-05
3.87215505e-05
4.49053528e-05
3.58146089e-05
5.94380946e-05
3.19549219e-05
7.66619405e-05
2.70330528e-05
9.67424772e-05
2.10875474e-05
0.000120314202
1.34849275e-05
0.000147932838
4.20547514e-06
0.000180259558
-6.78737782e-06
0.000218043049
-2.03009123e-05
0.000262181525
-3.64761958e-05
0.000313879001
-5.56632039e-05
0.000373878219
-7.82732315e-05
0.000443184112
-0.000104783459
0.000522898218
-0.000135697445
0.000614287711
-0.000171557911
0.000718663053
-0.000212961278
0.000837390651
-0.000260501905
0.000971898636
-0.000314811948
0.00112360161
-0.000376538267
0.00129385987
-0.000446331199
0.00148396996
-0.000524768938
0.00169508923
-0.000612474727
0.00192819405
-0.000709958309
0.00218389698
-0.00081767373
0.00246227242
-0.000935770636
0.00276336216
-0.00106517834
0.0030854819
-0.00120424492
0.00342706766
-0.00135385425
0.00378286597
-0.00150913235
0.00415010337
-0.0016716934
0.00452376316
-0.00183423326
0.0048965944
-0.0019886912
0.00523024812
-0.00213003084
0.00550442421
-0.00226684205
0.00572117006
-0.00238455842
0.00590339522
-0.00250137627
0.00605652456
-0.00261488327
0.00619542263
-0.00270793106
0.00632086525
-0.00280513275
0.00643721197
-0.00289970644
0.00654146035
-0.00299051617
0.00663215598
-0.00307928698
0.00671520955
-0.00317294173
0.00680825935
-0.0032722848
-0.00337160117
0.00690401503
-3.47347145e-08
5.0687127e-07
-1.39530375e-07
1.58301965e-06
-3.14123774e-07
2.74066105e-06
-5.56600197e-07
3.96416799e-06
-8.64032097e-07
5.24344422e-06
-1.23264474e-06
6.57201408e-06
-1.65801846e-06
7.94575499e-06
-2.13485838e-06
9.36189047e-06
-2.65654938e-06
1.08184748e-05
-3.21559834e-06
1.2314268e-05
-3.80318668e-06
1.38474495e-05
-4.4089498e-06
1.54156383e-05
-5.02071717e-06
1.70155942e-05
-5.62421714e-06
1.86429911e-05
-6.20272861e-06
2.02922122e-05
-6.73673524e-06
2.19562242e-05
-7.20363793e-06
2.36265123e-05
-7.57727246e-06
2.5292736e-05
-7.82790373e-06
2.6943102e-05
-7.92018586e-06
2.85623836e-05
-7.81265077e-06
3.01327915e-05
-7.45725141e-06
3.16351356e-05
-6.79747051e-06
3.30467414e-05
-5.76674818e-06
3.43415352e-05
-4.29400888e-06
3.54893863e-05
-2.29360528e-06
3.6452525e-05
3.3628468e-07
3.71877067e-05
3.71564914e-06
3.76441697e-05
7.98655178e-06
3.77619039e-05
1.32988667e-05
3.74892079e-05
1.98231095e-05
3.67516645e-05
2.77511182e-05
3.5464096e-05
3.72945126e-05
3.35310696e-05
4.87007726e-05
3.08455325e-05
6.22691726e-05
2.72729088e-05
7.83131831e-05
2.26964937e-05
9.70210491e-05
1.71269359e-05
0.000118972813
1.00242967e-05
0.00014467831
1.34962206e-06
0.000174724766
-8.93528614e-06
0.000209784285
-2.15492602e-05
0.000250640257
-3.66235627e-05
0.000298357463
-5.44759752e-05
0.00035358346
-7.54965168e-05
0.000417252131
-0.000100112601
0.000490408807
-0.000128785585
0.000574181654
-0.000162009596
0.00066976202
-0.000200325002
0.00077839743
-0.000244291836
0.000901368577
-0.000294485882
0.00103995324
-0.000351500669
0.00119541854
-0.000415919684
0.00136894615
-0.000488289554
0.00156151735
-0.000569056482
0.00177388799
-0.000658648279
0.0020064711
-0.000757300971
0.00225916679
-0.000865122412
0.00253145411
-0.000982200237
0.0028219775
-0.00110815421
0.00312822475
-0.00124197681
0.00344735978
-0.00138427395
0.00377395936
-0.00153080601
0.00410646591
-0.00168632324
0.00443633008
-0.00183896032
0.00474676093
-0.00198209026
0.00502274468
-0.0021101849
0.00526082038
-0.00222673543
0.00545404708
-0.0023232203
0.00560299826
-0.00241575331
0.00572990534
-0.00251142707
0.00583496366
-0.00260639533
0.00592944901
-0.00270933281
0.00602830875
-0.00280676037
0.00612044228
-0.00289723422
0.00620520768
-0.00298444618
0.00629124693
-0.0030765341
0.00638595548
-0.00317397683
0.00648582732
-0.00327280037
0.00658294111
-0.00336939466
-0.0034714276
0.00668276548
-3.87846091e-08
5.46855911e-07
-1.53302279e-07
1.69922662e-06
-3.4079674e-07
2.93008967e-06
-5.96705899e-07
4.2222368e-06
-9.15238756e-07
5.56434842e-06
-1.28947816e-06
6.94883067e-06
-1.71136853e-06
8.37043115e-06
-2.17173337e-06
9.82525895e-06
-2.65980258e-06
1.13097757e-05
-3.16307274e-06
1.28210095e-05
-3.66717091e-06
1.43552739e-05
-4.15547981e-06
1.59079449e-05
-4.60880535e-06
1.74732063e-05
-5.00503004e-06
1.90438124e-05
-5.3186706e-06
2.06107807e-05
-5.52023444e-06
2.21630567e-05
-5.57556619e-06
2.36874748e-05
-5.44471967e-06
2.51679248e-05
-5.08163313e-06
2.6586469e-05
-4.43524269e-06
2.79228792e-05
-3.44661008e-06
2.91515094e-05
-2.04608451e-06
3.02424512e-05
-1.51673591e-07
3.11607166e-05
2.33323835e-06
3.18655909e-05
5.51499058e-06
3.23172e-05
9.51394537e-06
3.24637716e-05
1.44666509e-05
3.224588e-05
2.05273693e-05
3.15950482e-05
2.78688309e-05
3.04327975e-05
3.67004013e-05
2.86707944e-05
4.725713e-05
2.62089416e-05
5.9811608e-05
2.29245093e-05
7.46605864e-05
1.86979527e-05
9.20005572e-05
1.35224827e-05
0.000112350856
6.94037098e-06
0.000136171028
-1.10507744e-06
0.000163981029
-1.06631458e-05
0.0001963803
-2.23535932e-05
0.000234058359
-3.63056846e-05
0.000277955535
-5.2808254e-05
0.000328660001
-7.22279877e-05
0.000387015699
-9.49518909e-05
0.000453967639
-0.000121398823
0.00053052823
-0.000152026121
0.000617773287
-0.000187324717
0.000716829018
-0.000227806463
0.000828857936
-0.000274001839
0.000955015993
-0.000326444514
0.00109642009
-0.000385655564
0.00125410147
-0.000452124987
0.00142893595
-0.000526290718
0.00162154721
-0.000608483962
0.0018322594
-0.000698954202
0.00206103263
-0.000797784249
0.00230729215
-0.000904865032
0.00256993905
-0.00101990744
0.0028469077
-0.00114205285
0.00313534401
-0.0012706
0.00343149088
-0.0014042661
0.00373082227
-0.00154127394
0.0040275118
-0.00168092995
0.00431535044
-0.00181861304
0.00457462795
-0.00194557312
0.00479825606
-0.00206256024
0.00498216557
-0.00216596303
0.00513203863
-0.00226002224
0.00525776255
-0.00235242831
0.00537296854
-0.00243839049
0.00547853278
-0.00252127696
0.00557640711
-0.00260926572
0.00566253062
-0.00269249347
0.00573314184
-0.00277991592
0.00579766024
-0.00287124786
0.00586719412
-0.00296673855
0.00594081306
-0.00305804551
0.00601637788
-0.00315208087
0.00610728778
-0.0032648716
0.00621890465
-0.00338440641
0.00633202602
-0.00348251079
-0.00357658766
0.00643718528
-4.1940005e-08
5.89830585e-07
-1.62522182e-07
1.82126359e-06
-3.55796174e-07
3.12502838e-06
-6.13844587e-07
4.48214447e-06
-9.27230913e-07
5.87977828e-06
-1.28502001e-06
7.30884411e-06
-1.6746882e-06
8.76250778e-06
-2.08196482e-06
1.02351387e-05
-2.490786e-06
1.17214067e-05
-2.88229474e-06
1.32155472e-05
-3.23489606e-06
1.47111397e-05
-3.52385676e-06
1.62004222e-05
-3.72075432e-06
1.76738852e-05
-3.79282379e-06
1.91199538e-05
-3.70209637e-06
2.05244412e-05
-3.40568903e-06
2.18713611e-05
-2.85435529e-06
2.31411979e-05
-1.99149147e-06
2.43105013e-05
-7.5078062e-07
2.53516086e-05
9.43502536e-07
2.6234873e-05
3.17756175e-06
2.69241809e-05
6.04894214e-06
2.73782895e-05
9.66803557e-06
2.75493597e-05
1.41592484e-05
2.73826616e-05
1.96700608e-05
2.68152492e-05
2.63683514e-05
2.57749544e-05
3.44445235e-05
2.41798267e-05
4.41132859e-05
2.19370885e-05
5.56222225e-05
1.89353742e-05
6.92485258e-05
1.50567804e-05
8.51906978e-05
1.02799001e-05
0.000103908164
4.22087042e-06
0.000125810632
-3.18999578e-06
0.000151363862
-1.20151955e-05
0.000181101807
-2.27808978e-05
0.000215629007
-3.56145307e-05
0.000255765714
-5.07809846e-05
0.000302049126
-6.86169478e-05
0.000355238592
-8.94738463e-05
0.000416186437
-0.000113733461
0.000485795648
-0.000141813132
0.000565029264
-0.000174159934
0.000654896922
-0.000211239459
0.000756430699
-0.000253531432
0.00087065683
-0.000301520945
0.000998562621
-0.000355680867
0.00114104756
-0.000416453939
0.0012988681
-0.00048423067
0.00147257017
-0.00055932154
0.00166240944
-0.000641926116
0.00186827749
-0.000732119814
0.00208966291
-0.00082983163
0.0023254823
-0.000934737843
0.00257411296
-0.00104638092
0.00283314523
-0.001163865
0.00309961916
-0.00128635037
0.00336933828
-0.00141174214
0.00363769367
-0.00153892632
0.00390004754
-0.00166659178
0.00414767086
-0.00178887072
0.00436681724
-0.00190005218
0.00455225786
-0.00200402981
0.00469947365
-0.00209276177
0.00481867192
-0.00218172285
0.00492529444
-0.00227255238
0.00502338683
-0.00235808987
0.00511152669
-0.00244054377
0.00519338234
-0.00252021866
0.0052694321
-0.00259730103
0.00533739258
-0.00267719731
0.00540745508
-0.00276251825
0.00547645976
-0.00284888689
0.00554685385
-0.00294161749
0.00562150593
-0.00304136619
0.00569863777
-0.00313515307
0.00577230769
-0.00322573085
0.00585408637
-0.00334663716
0.0059611386
-0.00349144802
0.00608917292
-0.0036105389
-0.0037035096
0.00621609644
-4.06939882e-08
6.31681626e-07
-1.53981646e-07
1.93617745e-06
-3.29959801e-07
3.30286637e-06
-5.56537937e-07
4.71079759e-06
-8.19733171e-07
6.14525064e-06
-1.10356897e-06
7.59515373e-06
-1.38985307e-06
9.05146386e-06
-1.65789921e-06
1.05060622e-05
-1.88416122e-06
1.19507617e-05
-2.04158965e-06
1.33762987e-05
-2.09913757e-06
1.47722562e-05
-2.0214074e-06
1.61265185e-05
-1.7678119e-06
1.7424386e-05
-1.29193273e-06
1.86484635e-05
-5.405348e-07
1.97777472e-05
5.47492572e-07
2.07883685e-05
2.04201249e-06
2.16520667e-05
4.02230628e-06
2.23359695e-05
6.57815882e-06
2.28019136e-05
9.81336773e-06
2.30062472e-05
1.38462917e-05
2.2898292e-05
1.88115262e-05
2.24205672e-05
2.48616729e-05
2.1507231e-05
3.21693144e-05
2.00835747e-05
4.09312404e-05
1.8062448e-05
5.13719624e-05
1.53439547e-05
6.37471965e-05
1.18149671e-05
7.82531234e-05
7.44224928e-06
9.52933279e-05
1.90686845e-06
0.000115232191
-4.8697634e-06
0.000138485376
-1.29600844e-05
0.000165526676
-2.28062674e-05
0.000196884871
-3.45331e-05
0.000233275288
-4.83895318e-05
0.000275187456
-6.46759413e-05
0.000323301023
-8.37098615e-05
0.000378376723
-0.000105837273
0.000441215781
-0.000131435316
0.000512671377
-0.000160907427
0.000593636695
-0.000194675446
0.000685023208
-0.000233175017
0.000787736506
-0.000276847275
0.000902648393
-0.000326124068
0.00103055757
-0.000381411978
0.0011721394
-0.000443072809
0.00132789037
-0.00051140052
0.00149806309
-0.000586593858
0.00168259461
-0.00066872762
0.00188099852
-0.000757689753
0.00209234185
-0.000853234348
0.00231515425
-0.000954898914
0.00254745999
-0.00106210568
0.00278659461
-0.00117384233
0.00302926576
-0.00128902321
0.00327130199
-0.00140587342
0.00350881427
-0.00152383543
0.00373781996
-0.00164072176
0.0039490002
-0.00175008219
0.00413364663
-0.00185121646
0.00428807511
-0.00194327745
0.00441356733
-0.00202551609
0.00451437902
-0.0021048123
0.0046068755
-0.00218523608
0.00468928463
-0.00226410847
0.00476153935
-0.00234478057
0.00482858478
-0.00242511401
0.00489088561
-0.00250282186
0.00495448384
-0.00258378279
0.00502120597
-0.0026639927
0.00508742563
-0.00274339162
0.00515308042
-0.00282814688
0.00522607468
-0.00292185526
0.00531041099
-0.00302592941
0.0054042708
-0.00313520275
0.00550682401
-0.00323768571
0.00560771148
-0.00332660019
0.00569546864
-0.00343437977
0.00578506109
-0.00358102899
0.00589655006
-0.00372202034
-0.00383450835
0.00602755244
-3.3758595e-08
6.66407706e-07
-1.21883453e-07
2.02566156e-06
-2.4952007e-07
3.43205767e-06
-3.99249834e-07
4.86226318e-06
-5.51236893e-07
6.29914527e-06
-6.82952643e-07
7.72894729e-06
-7.68790348e-07
9.13955331e-06
-7.79622649e-07
1.05193267e-05
-6.8220118e-07
1.18559637e-05
-4.38837096e-07
1.31357649e-05
-6.429318e-09
1.4342901e-05
6.6430254e-07
1.54590756e-05
1.62947543e-06
1.64627567e-05
2.95310727e-06
1.73286489e-05
4.70773551e-06
1.80272278e-05
6.97657881e-06
1.85239446e-05
9.85428841e-06
1.8779112e-05
1.34486438e-05
1.87467297e-05
1.78822114e-05
1.83738446e-05
2.32941852e-05
1.76001793e-05
2.98419548e-05
1.63568615e-05
3.7707213e-05
1.45621052e-05
4.70900088e-05
1.21317126e-05
5.81737524e-05
9.00764011e-06
7.12301918e-05
5.01439254e-06
8.65743229e-05
8.71919841e-09
0.000104531428
-6.13272105e-06
0.000125470902
-1.34871094e-05
0.000149811009
-2.24223684e-05
0.000178013071
-3.30602158e-05
0.000210697054
-4.56316772e-05
0.000248308144
-6.04041392e-05
0.000291451989
-7.76628585e-05
0.000340796682
-9.77192136e-05
0.000397048502
-0.000120911766
0.000460958588
-0.000147602918
0.000533312418
-0.000178173055
0.000614912334
-0.000213016162
0.00070655768
-0.000252532678
0.000809020857
-0.000297117476
0.000923014189
-0.000347146159
0.00104914854
-0.000402958363
0.00118788637
-0.0004648376
0.00133948821
-0.000532988436
0.001503953
-0.000607511177
0.00168095529
-0.000688375086
0.00186977069
-0.000775380087
0.00206921205
-0.000868139623
0.00227758012
-0.000966029756
0.00249261073
-0.0010682381
0.00271148203
-0.00117374454
0.00293097445
-0.00128157334
0.00314738344
-0.00139022755
0.00335740617
-0.0014990225
0.00355574126
-0.00160418571
0.00373508717
-0.00170316124
0.00388967074
-0.00179528662
0.00401802029
-0.00187840919
0.00412280715
-0.00195598142
0.00421157175
-0.00203202014
0.00429285723
-0.00210677901
0.00436791936
-0.00217985452
0.00443529958
-0.00225259627
0.00449665345
-0.00232544225
0.00455256425
-0.00240066967
0.0046047591
-0.00247728596
0.00465792244
-0.00255595997
0.00471165395
-0.00263748853
0.00477121104
-0.00272352832
0.00483733417
-0.00280949461
0.00490413076
-0.00289492235
0.00497721775
-0.00299491854
0.00506022837
-0.00310891751
0.00515463913
-0.00322959195
0.00526549605
-0.00334852306
0.00539210775
-0.00345319453
0.00550799607
-0.00355025407
0.00559273151
-0.00366575251
0.00566850654
-0.00379778544
-0.00393365722
0.00576766178
-2.03431881e-08
6.87839214e-07
-6.31395052e-08
2.06998549e-06
-1.07112177e-07
3.47777624e-06
-1.27915646e-07
4.88501357e-06
-9.80766e-08
6.27144232e-06
1.34331227e-08
7.61975927e-06
2.41747166e-07
8.91374835e-06
6.26747583e-07
1.01370281e-05
1.21362559e-06
1.12719901e-05
2.05362184e-06
1.22988874e-05
3.20481841e-06
1.31950514e-05
4.73329628e-06
1.39341877e-05
6.71408932e-06
1.44858104e-05
9.2327863e-06
1.48140717e-05
1.23864491e-05
1.48779803e-05
1.62853543e-05
1.46297702e-05
2.10544321e-05
1.40150987e-05
2.68349801e-05
1.29716017e-05
3.37874039e-05
1.14272164e-05
4.2091512e-05
9.30227357e-06
5.19192784e-05
6.53574035e-06
6.35282299e-05
2.96022172e-06
7.71786746e-05
-1.51125119e-06
9.31593083e-05
-6.96499287e-06
0.000111799519
-1.36172229e-05
0.000133462765
-2.16453356e-05
0.000158552213
-3.12123541e-05
0.000187602061
-4.25264754e-05
0.000221014494
-5.58236108e-05
0.000259324751
-7.13585285e-05
0.000303115825
-8.94100069e-05
0.000353005975
-0.000110280681
0.000409652386
-0.000134294755
0.000473742254
-0.000161793646
0.000545978954
-0.00019313211
0.000627065655
-0.000228672309
0.000717685133
-0.000268774261
0.000818472626
-0.000313784391
0.000929981728
-0.000364021526
0.00105264538
-0.000419759858
0.0011867307
-0.000481209219
0.00133228858
-0.000548492965
0.00148909945
-0.000621624207
0.00165661908
-0.00070048269
0.0018339277
-0.000784793172
0.00201968296
-0.000874102814
0.0022120937
-0.000967763709
0.00240890175
-0.00106492161
0.0026073773
-0.00116448029
0.00280431968
-0.00126515636
0.0029962384
-0.00136563974
0.00317956366
-0.0014648758
0.00335144618
-0.00156208868
0.00350501322
-0.00165256932
0.00363738684
-0.00173654089
0.00374713248
-0.00181288631
0.00383474411
-0.00188287316
0.00391225354
-0.00195589782
0.00398296637
-0.00202667777
0.0040474048
-0.00209644158
0.00410473305
-0.00216408741
0.00415806075
-0.00223315726
0.00421008631
-0.00230459856
0.00426102789
-0.00237636399
0.0043116217
-0.00245124483
0.00436429339
-0.00252993763
0.0044192835
-0.00261092866
0.00447571702
-0.00269390046
0.00453834261
-0.00278613262
0.00461244738
-0.00288357773
0.00469183
-0.00297428347
0.00476745157
-0.00307051857
0.00484326034
-0.00318470535
0.00492216674
-0.00330847788
0.00500438947
-0.00343072783
0.00509921342
-0.0035480044
0.00520988242
-0.0036609098
0.00531142403
-0.00376728095
0.00539428877
-0.00388063884
-0.00400948022
0.00547012153
1.34590066e-12
6.88729e-07
2.45333779e-08
2.046705e-06
1.02832954e-07
3.40090833e-06
2.67925881e-07
4.72151986e-06
5.56838745e-07
5.98428835e-06
1.01116886e-06
7.1673459e-06
1.67773625e-06
8.24925903e-06
2.60940552e-06
9.20760575e-06
3.86597262e-06
1.00178495e-05
5.51513232e-06
1.06523467e-05
7.63343305e-06
1.10795745e-05
1.03079564e-05
1.12627084e-05
1.3637159e-05
1.11598924e-05
1.77324681e-05
1.07223068e-05
2.2719692e-05
9.89457762e-06
2.87409571e-05
8.61262219e-06
3.59568971e-05
6.8035972e-06
4.45265258e-05
4.40675949e-06
5.46720228e-05
1.28684805e-06
6.66215549e-05
-2.6417703e-06
8.06301539e-05
-7.46694221e-06
9.69825987e-05
-1.33858469e-05
0.000115999343
-2.05211478e-05
0.000138077405
-2.90357009e-05
0.000163588624
-3.91205506e-05
0.000192934963
-5.0983212e-05
0.000226582154
-6.48504796e-05
0.000265035815
-8.09704288e-05
0.000308834586
-9.96119916e-05
0.000358550929
-0.000121063756
0.000414783573
-0.000145630803
0.000478146822
-0.00017363134
0.000549257335
-0.000205391923
0.000628717679
-0.000241239869
0.000717094394
-0.000281493924
0.000814890497
-0.000326452714
0.000922513355
-0.000376380635
0.00104023756
-0.000431491314
0.00116816273
-0.000491928632
0.00130616799
-0.000557746273
0.0014538643
-0.000628885936
0.00161054803
-0.000705156352
0.00177515913
-0.000786214137
0.00194625087
-0.000871552258
0.00212197565
-0.000960495394
0.00230012156
-0.00105222663
0.00247813848
-0.00114575934
0.00265332165
-0.00124008419
0.00282255689
-0.00133369561
0.00298264304
-0.00142522273
0.00313097554
-0.00151395286
0.00326380311
-0.00159768514
0.00337780182
-0.00167607076
0.00347278013
-0.00174753322
0.00355295827
-0.00181670193
0.00362375522
-0.00188366417