/*--------------------------------*- C++ -*----------------------------------*\
  =========                 |
  \\      /  F ield         | OpenFOAM: The Open Source CFD Toolbox
   \\    /   O peration     | Website:  https://openfoam.org
    \\  /    A nd           | Version:  8
     \\/     M anipulation  |
\*---------------------------------------------------------------------------*/
FoamFile
{
    version     2.0;
    format      ascii;
    class       volVectorField;
    location    "0.054";
    object      U;
}
// * * * * * * * * * * * * * * * * * * * * * * * * * * * * * * * * * * * * * //

dimensions      [0 1 -1 0 0 0 0];

internalField   nonuniform List<vector> 
42400
(
(-0.0161027568 0.0153927831 -1.12270983e-26)
(-0.050325377 0.0469539843 3.65309492e-26)
(-0.0865819084 0.0790447492 3.93607924e-26)
(-0.124163137 0.110912153 0)
(-0.162540541 0.142061926 0)
(-0.201374735 0.172157692 1.13207676e-27)
(-0.240457927 0.200982753 0)
(-0.279670979 0.228408423 -1.26928973e-27)
(-0.318953557 0.254365582 0)
(-0.358281462 0.278822238 -1.42071971e-27)
(-0.397649491 0.301767343 -1.50216687e-27)
(-0.437059367 0.323199884 1.5876671e-27)
(-0.476512004 0.343122233 -4.03380717e-26)
(-0.516003147 0.361536766 -4.04883306e-26)
(-0.555521438 0.378444846 1.87026025e-27)
(-0.595048058 0.393847338 0)
(-0.634557285 0.407745993 0)
(-0.674017473 0.420145222 0)
(-0.71339212 0.431053921 0)
(-0.752640812 0.440487142 0)
(-0.791719922 0.448467485 0)
(-0.830582973 0.455026134 5.41535269e-27)
(-0.869180655 0.460203539 -4.76741707e-26)
(-0.907460464 0.464049727 -1.08643001e-25)
(-0.945365947 0.466624259 -6.20737446e-26)
(-0.982835557 0.467995874 6.64484587e-27)
(-1.0198011 0.468241843 6.98882794e-27)
(-1.05618578 0.467447096 -1.46976216e-26)
(-1.09190178 0.465703194 0)
(-1.1268475 0.463107264 0)
(-1.16090419 0.459760982 1.12894467e-25)
(-1.19393175 0.455769446 1.25966286e-25)
(-1.22576396 0.451240133 -1.88354533e-26)
(-1.25620766 0.446282776 -1.57382938e-25)
(-1.28504268 0.441005157 -1.55777801e-25)
(-1.31201792 0.43549685 0)
(-1.33689102 0.429752123 0)
(-1.35951665 0.424190496 0)
(-1.37933636 0.419890998 0)
(-1.39580218 0.415019122 -1.04943361e-25)
(-1.40763979 0.410491314 -1.99604574e-25)
(-1.41572597 0.404513421 -4.03661023e-25)
(-1.41692578 0.401818113 -1.15635325e-24)
(-1.41155533 0.399536827 5.97074141e-26)
(-1.39741808 0.398945248 4.76544785e-25)
(-1.37270834 0.398251791 5.19452508e-25)
(-1.33577599 0.397405453 -7.06990108e-26)
(-1.28441259 0.397299479 -3.8298446e-25)
(-1.21702816 0.398121445 -8.20743315e-26)
(-1.13175107 0.400222356 -4.90029802e-25)
(-1.02583296 0.403672742 -4.86014362e-33)
(-0.896564141 0.408510857 9.21654434e-25)
(-0.742824571 0.41404514 7.58460091e-25)
(-0.557609372 0.420917112 -2.19737534e-25)
(-0.348097542 0.427756279 0)
(-0.100025916 0.438805297 0)
(0.179839969 0.455256912 0)
(0.506730358 0.474248482 2.74207673e-25)
(0.891112297 0.491463532 2.95596341e-25)
(1.33740513 0.508594814 0)
(1.84462445 0.528856503 8.5488491e-25)
(2.42178832 0.553804345 7.36844244e-25)
(3.07631571 0.582107743 -1.2513025e-24)
(3.81008885 0.612823338 -1.77759527e-24)
(4.62447593 0.646015282 0)
(5.52225809 0.677487793 0)
(6.52136226 0.699073402 -5.94817321e-24)
(7.61598316 0.728685378 -6.66070762e-24)
(8.80589761 0.741843238 9.26864727e-25)
(10.2724269 0.622916741 0)
(11.4686671 0.90705711 0)
(12.3012851 1.61361394 1.31742079e-24)
(14.5204649 0.734757193 1.02308237e-24)
(16.7035427 -0.458429257 0)
(16.880207 1.49050446 1.76185692e-24)
(17.5582524 3.1813011 -1.59779743e-25)
(20.0068338 1.61715198 1.56037843e-23)
(22.1811554 -0.249858799 -3.27855564e-24)
(22.9063983 -0.479006076 -3.26483302e-23)
(22.7549375 1.12929124 -5.29428773e-23)
(-0.0208500059 0.0184623579 0)
(-0.0643127396 0.056061735 2.93826199e-26)
(-0.109585081 0.0941692958 3.24582875e-26)
(-0.155850221 0.132003541 0)
(-0.202539115 0.169066149 0)
(-0.249285938 0.205025381 3.40470314e-26)
(-0.295869109 0.239672134 3.35394289e-26)
(-0.342162251 0.272884777 -1.18654272e-27)
(-0.388100306 0.304599325 0)
(-0.43365421 0.334786478 -1.33257046e-27)
(-0.478812098 0.36343529 -1.41157372e-27)
(-0.52356626 0.390542317 -3.53549292e-26)
(-0.567904903 0.416105147 -7.30021619e-26)
(-0.611807587 0.440119261 -3.61331082e-26)
(-0.655243274 0.462577255 3.84416827e-26)
(-0.698170046 0.483469596 3.35820967e-26)
(-0.740535786 0.502786261 0)
(-0.782279291 0.520518778 -4.22008811e-27)
(-0.823331441 0.536662343 0)
(-0.863616202 0.551217802 0)
(-0.903051305 0.564193361 0)
(-0.941548513 0.575605975 -4.25315047e-26)
(-0.979013446 0.585482356 -9.68369695e-26)
(-1.01534492 0.593859617 -5.53229889e-26)
(-1.05043381 0.60078554 0)
(-1.08416137 0.606318491 1.31193354e-26)
(-1.11639711 0.610526988 6.91119954e-27)
(-1.14699591 0.613488954 -1.46087929e-26)
(-1.17579466 0.615290715 -8.88490441e-26)
(-1.20260883 0.616025362 -9.87797089e-26)
(-1.22723107 0.61578934 1.73868636e-26)
(-1.24942739 0.614675366 1.8380951e-26)
(-1.26891452 0.612779913 -1.7316394e-25)
(-1.28540119 0.610250554 -1.50264878e-25)
(-1.2986433 0.607273631 1.91419202e-25)
(-1.30865041 0.604057362 1.79830121e-25)
(-1.31408076 0.601341003 0)
(-1.31488988 0.597548236 -2.59970926e-26)
(-1.31037422 0.5933192 0)
(-1.30017763 0.589686974 -5.58416246e-26)
(-1.2819037 0.586929753 -4.81833111e-25)
(-1.25340964 0.584663337 -3.51316273e-25)
(-1.2147809 0.581092854 -6.68128738e-26)
(-1.16369033 0.577739847 7.27076158e-26)
(-1.09882882 0.574930175 -1.57996254e-25)
(-1.01859934 0.572897782 8.34435823e-26)
(-0.920688389 0.57154168 -8.89604958e-26)
(-0.802845172 0.570755181 -3.39549859e-25)
(-0.663032594 0.57039731 -5.92509184e-25)
(-0.499799653 0.569836366 0)
(-0.308335514 0.569708874 1.16558249e-25)
(-0.0880518987 0.573013432 -2.40798769e-25)
(0.155853983 0.582586136 -7.03435447e-26)
(0.439153304 0.593992364 -9.03153879e-25)
(0.779594237 0.604319467 -3.05193674e-25)
(1.1709614 0.614112831 -5.15644595e-25)
(1.61679138 0.62732087 -1.58218952e-25)
(2.12606026 0.645038382 3.64378512e-25)
(2.70473234 0.666676974 3.98926566e-25)
(3.35600779 0.691997938 5.46732533e-25)
(4.08380486 0.721627031 9.7744431e-25)
(4.89132366 0.756750805 -4.99549784e-25)
(5.78143453 0.797506199 5.29354349e-25)
(6.75602773 0.845274447 0)
(7.80617567 0.907810843 -2.15153965e-24)
(8.92400869 0.979044885 -7.97826914e-24)
(10.1514211 1.01212717 -4.95646395e-24)
(11.4849133 1.02697651 0)
(12.8108985 1.12045087 4.4472281e-26)
(14.4347926 0.979634204 1.00458474e-24)
(16.0534835 0.801869994 8.25983814e-24)
(16.7548351 1.68685537 5.55204944e-24)
(18.0085233 2.24599266 -1.02215941e-23)
(20.2403577 0.812141785 -1.13510889e-23)
(21.5690382 0.298407538 4.93801939e-26)
(22.1139893 1.56495644 1.75031195e-23)
(22.6376706 2.20227343 2.69110724e-23)
(23.0344942 1.78636648 -3.0506983e-24)
(23.1083726 1.15318263 -2.79713533e-23)
(23.0997204 0.957632804 -1.50650759e-23)
(-0.0248612476 0.0203577447 3.48483717e-27)
(-0.0761923244 0.061729824 -4.15064447e-28)
(-0.129179507 0.103640901 4.36517967e-28)
(-0.182905815 0.145293586 -4.67024337e-28)
(-0.236728894 0.186173231 0)
(-0.290264459 0.22595847 -2.61973305e-26)
(-0.343270129 0.264449204 -1.03296925e-33)
(-0.395607036 0.301530586 2.70402794e-26)
(-0.447200255 0.337143388 2.73159047e-26)
(-0.498010329 0.37126075 5.5036158e-26)
(-0.54801274 0.403871694 2.62583833e-26)
(-0.597183867 0.434970325 -1.48057178e-27)
(-0.645492195 0.464549533 -1.56973724e-27)
(-0.692893517 0.492598047 2.79528053e-26)
(-0.739328917 0.519099834 2.80854608e-26)
(-0.784724529 0.544035027 -5.62291508e-27)
(-0.828992297 0.567381706 -2.46188839e-26)
(-0.872031159 0.589118107 -5.81391323e-26)
(-0.913728272 0.609224895 -2.97579569e-26)
(-0.953960013 0.627687315 -4.75905697e-27)
(-0.992592603 0.644497095 5.05092556e-27)
(-1.02948229 0.659654025 5.36242237e-27)
(-1.06447503 0.673167225 0)
(-1.09740563 0.685056101 -1.20781879e-26)
(-1.12809606 0.69535119 4.15542125e-26)
(-1.15635368 0.704094927 -2.78620211e-29)
(-1.18196862 0.711341307 -5.00190921e-26)
(-1.20471017 0.717154641 -5.53810255e-26)
(-1.22432207 0.721608375 -6.15702926e-26)
(-1.24052614 0.724794563 5.21559329e-26)
(-1.25306738 0.726831492 1.87071985e-26)
(-1.26170924 0.727828671 -1.18246311e-25)
(-1.26575232 0.728047095 -1.04097936e-25)
(-1.26502563 0.727017108 0)
(-1.25895176 0.725377494 0)
(-1.24690777 0.723565246 2.52621875e-26)
(-1.22927007 0.720881915 0)
(-1.20270339 0.718801579 -5.64558121e-26)
(-1.16648197 0.715752692 -2.77604968e-25)
(-1.11789244 0.712327606 -1.30600254e-25)
(-1.05753895 0.707906153 1.19554415e-25)
(-0.983375088 0.703680424 0)
(-0.893828683 0.699659941 0)
(-0.786632125 0.695715981 -2.52727924e-25)
(-0.659792302 0.691807974 -3.98573163e-25)
(-0.512378539 0.687504141 -1.02757361e-25)
(-0.340729913 0.683487569 0)
(-0.146855444 0.680971815 0)
(0.0778634742 0.683521303 -8.34572526e-26)
(0.322510617 0.68987554 -3.72455363e-25)
(0.620230484 0.695211446 1.40486031e-25)
(0.963906108 0.699645086 0)
(1.3580267 0.706417011 -2.79955637e-25)
(1.80822477 0.717204291 2.40452703e-26)
(2.32026718 0.73208588 -2.89330536e-25)
(2.89760366 0.750919566 -8.64330393e-25)
(3.54489439 0.774237821 -7.62471319e-25)
(4.26672767 0.8024408 5.50958717e-32)
(5.066673 0.836138886 -7.29769943e-32)
(5.94812927 0.876274557 -3.79951828e-24)
(6.91348128 0.923957664 -2.47973632e-24)
(7.96056766 0.981090953 2.98788511e-24)
(9.08493073 1.04937737 4.01179453e-24)
(10.2822861 1.12863155 0)
(11.5327403 1.22444388 5.26257784e-24)
(12.7997357 1.358156 8.55087556e-24)
(14.1168854 1.45231213 5.93665682e-24)
(15.5878746 1.42417965 0)
(16.9440499 1.48445298 -4.57670712e-26)
(18.2760089 1.63324221 1.20447792e-23)
(19.8271717 1.36023322 9.90010053e-24)
(20.9743889 1.33581959 0)
(21.7302595 2.02613382 0)
(22.5044024 2.19704344 1.30899666e-24)
(23.0799288 1.62044888 -1.25431828e-24)
(23.1490635 1.56898493 5.77256106e-24)
(23.1641125 1.74013153 1.38296138e-23)
(23.136789 1.86027621 0)
(23.0811165 1.83024165 -1.80430985e-24)
(23.0800206 1.56065597 2.26835698e-23)
(-0.0282528174 0.0213517606 -2.6795822e-28)
(-0.0862974033 0.0647001288 -4.19964846e-28)
(-0.145909342 0.108596009 1.00765691e-26)
(-0.20605585 0.152229644 -1.10701688e-26)
(-0.266045993 0.195089424 -1.0275139e-26)
(-0.325425796 0.236846998 0)
(-0.38394742 0.27731581 -2.04902353e-26)
(-0.441455599 0.316393514 -1.91229959e-26)
(-0.497859108 0.354027714 -2.00501844e-26)
(-0.553102954 0.390195399 -1.96332711e-26)
(-0.60714432 0.424887416 -2.19032203e-26)
(-0.65993737 0.458097727 -3.64250864e-34)
(-0.711423958 0.489817205 -1.5982956e-27)
(-0.761528582 0.520030848 -2.17197163e-33)
(-0.810156297 0.548717346 1.80068582e-27)
(-0.857192474 0.575850119 -1.82741252e-26)
(-0.902503612 0.601399202 1.73521679e-26)
(-0.945938574 0.625333522 4.31319617e-27)
(-0.987329879 0.647623278 -1.09620272e-26)
(-1.0264947 0.66824225 -4.88466443e-27)
(-1.06323524 0.687170074 1.04103441e-26)
(-1.09733874 0.704394585 7.87550302e-27)
(-1.12857706 0.71991355 7.13125613e-27)
(-1.15670522 0.733735188 -6.30040359e-27)
(-1.18145073 0.745875581 0)
(-1.20251673 0.756357808 -7.16783965e-27)
(-1.21959507 0.765211004 0)
(-1.23237209 0.772468876 -1.71632821e-26)
(-1.24050442 0.778252742 -8.40838866e-27)
(-1.24355285 0.782459132 -1.45441117e-26)
(-1.24113639 0.785402983 -1.31049717e-26)
(-1.23284455 0.787404714 1.7271903e-26)
(-1.2185672 0.788458845 -4.52841003e-26)
(-1.1966806 0.788986704 -2.42557803e-26)
(-1.16586903 0.78847553 9.9345998e-26)
(-1.1247954 0.786657403 1.17481598e-25)
(-1.07114976 0.783848392 0)
(-1.00534893 0.780030035 -7.37988734e-26)
(-0.925595063 0.775864301 -5.52082575e-26)
(-0.830396912 0.771440002 -7.50466801e-26)
(-0.717774107 0.76675734 -8.08297019e-26)
(-0.585617016 0.76181525 0)
(-0.432727641 0.756191849 0)
(-0.255825078 0.750633075 0)
(-0.0547291813 0.749037387 -1.03033324e-25)
(0.162532074 0.752129069 -2.85923281e-25)
(0.424131093 0.75544819 -2.92391767e-25)
(0.726830243 0.757415793 0)
(1.07622355 0.760114309 0)
(1.47521165 0.765881315 2.92535159e-26)
(1.92981049 0.77570919 1.41730641e-25)
(2.44330079 0.789632672 -1.05151429e-26)
(3.01989913 0.808197932 3.98208308e-26)
(3.66420636 0.83177081 3.85814431e-25)
(4.38060212 0.860908569 9.24453223e-26)
(5.1727297 0.896947676 -9.47730553e-25)
(6.04356313 0.940790998 -1.39541171e-24)
(6.99415616 0.9928916 -2.33494764e-24)
(8.023867 1.05309811 0)
(9.12759165 1.12216116 -5.3266551e-25)
(10.3021904 1.20009813 -3.82188956e-24)
(11.5380311 1.28632951 -8.46073036e-24)
(12.8272201 1.38012069 5.25752012e-25)
(14.1528585 1.48554837 5.38866609e-25)
(15.4826028 1.59825741 -6.4075338e-24)
(16.7675506 1.76614706 4.64097384e-24)
(17.9575241 1.95209086 4.98535141e-24)
(19.278658 2.00480706 -1.10340893e-24)
(20.5245473 1.91349768 -3.52082406e-24)
(21.6906528 1.98148355 -1.31972495e-23)
(22.4595189 2.0115777 1.05606751e-25)
(23.0760402 1.93518646 -1.95144424e-23)
(23.1832409 1.93733473 -6.718244e-24)
(23.2211722 2.11604438 0)
(23.1851494 2.21033915 -7.73802959e-24)
(23.1262517 2.08145213 -4.27920993e-23)
(23.1247889 2.01497296 1.91429888e-24)
(23.1303349 1.94474625 1.20263357e-23)
(23.0916657 2.03103683 1.63319252e-23)
(23.0725965 1.94743167 2.0079741e-23)
(-0.0314009025 0.0218530117 2.29058877e-27)
(-0.09566311 0.0661111035 0)
(-0.161393032 0.110831387 0)
(-0.227443776 0.155201483 2.64224279e-30)
(-0.293057108 0.198721074 0)
(-0.357760836 0.241077985 0)
(-0.421239791 0.282083056 0)
(-0.48331863 0.321642444 2.36049353e-27)
(-0.543913048 0.359722983 0)
(-0.602943085 0.396313286 -1.32760575e-27)
(-0.660341603 0.431409231 -1.26474115e-26)
(-0.716033902 0.465008419 -1.86753694e-33)
(-0.769927603 0.497104378 3.82837857e-27)
(-0.821907474 0.527683772 0)
(-0.871833282 0.556726062 1.79104095e-27)
(-0.919539536 0.584204703 -3.81127513e-27)
(-0.964836226 0.610089203 0)
(-1.00750994 0.634347762 1.04639599e-26)
(-1.04732523 0.656950136 -4.60585539e-27)
(-1.08402555 0.677869591 -4.20898102e-26)
(-1.11732489 0.69708168 -1.77819403e-26)
(-1.14690729 0.714565309 -5.59458344e-27)
(-1.17243744 0.730303988 0)
(-1.19359583 0.744236265 -2.32886366e-26)
(-1.20991823 0.756426757 -2.73048294e-26)
(-1.22111448 0.766923285 -4.28554829e-26)
(-1.22682348 0.775879526 -4.5143815e-26)
(-1.22663193 0.783457518 4.98454414e-26)
(-1.22024706 0.789847496 5.44460294e-26)
(-1.20620249 0.794831239 0)
(-1.18366172 0.798316981 -4.36923003e-26)
(-1.15152558 0.800250353 -4.59091617e-26)
(-1.10827066 0.800668424 -2.38528199e-26)
(-1.05317266 0.799860699 -1.00010584e-25)
(-0.985399197 0.798208627 -7.56758391e-26)
(-0.903453738 0.795899002 6.01569146e-26)
(-0.805775998 0.793012183 -3.21958962e-26)
(-0.69042539 0.789624273 -5.81364692e-26)
(-0.555334588 0.785828747 -2.70352399e-26)
(-0.399093503 0.781308007 1.05099618e-26)
(-0.218549347 0.776610541 2.87012094e-25)
(-0.0122978758 0.775184816 9.60327703e-26)
(0.211447493 0.777269642 0)
(0.480687227 0.779020417 1.0553806e-25)
(0.789939892 0.780222472 -5.99036683e-26)
(1.14420538 0.783833551 1.18344395e-25)
(1.5473532 0.791200947 -2.49370764e-32)
(2.00359403 0.802573765 -2.08645004e-25)
(2.51713262 0.818258436 0)
(3.09228482 0.838842236 1.5750892e-25)
(3.73369899 0.865049102 1.29596537e-25)
(4.44533596 0.898028847 -2.97334541e-25)
(5.23024188 0.938971925 7.66164144e-25)
(6.09049075 0.988617102 3.02835358e-25)
(7.02645098 1.04740837 -6.72727306e-25)
(8.03646265 1.11553339 -9.19148264e-25)
(9.11721071 1.19270895 -4.24618634e-24)
(10.2616389 1.27975639 -3.62305217e-24)
(11.4632531 1.37591976 -3.77639247e-24)
(12.7105098 1.47728497 -5.02421608e-24)
(13.9981397 1.58301402 0)
(15.2975772 1.69070512 4.77934631e-25)
(16.6014903 1.80066664 -5.75861934e-24)
(17.8667857 1.91687387 -7.24554284e-24)
(19.0729064 2.03130738 -3.59260773e-26)
(20.1927001 2.15970704 0)
(21.1363561 2.32155395 9.27070567e-24)
(22.0528251 2.42112218 1.1605368e-23)
(22.8196723 2.39276875 1.32072112e-24)
(23.1130721 2.35168743 -1.26396483e-24)
(23.2295443 2.32619262 -7.53108857e-27)
(23.2414919 2.31535833 -1.27837198e-24)
(23.1714771 2.39250127 -1.16615518e-23)
(23.1641023 2.28814144 -1.31798328e-23)
(23.1694922 2.25811191 -1.1831212e-24)
(23.147968 2.26207978 0)
(23.1362812 2.25090707 -1.06872466e-23)
(23.1320382 2.19693548 -1.33220215e-23)
(23.1381696 2.13364778 0)
(23.1179137 2.11154201 -1.51468564e-23)
(-0.0346513773 0.0221453262 -5.21325759e-27)
(-0.105236211 0.0667830766 -8.85037881e-27)
(-0.177095925 0.111682471 -8.18935447e-27)
(-0.24897081 0.15603892 4.40709021e-28)
(-0.320035676 0.199370065 7.26217601e-27)
(-0.389773566 0.241385908 9.90249189e-28)
(-0.457864673 0.281919283 -6.87013693e-27)
(-0.524089826 0.320884904 -3.54731085e-27)
(-0.588324834 0.358255743 -1.17707796e-27)
(-0.650482054 0.394034192 -2.49539402e-27)
(-0.710460021 0.428229456 -1.45952182e-27)
(-0.768146601 0.460847992 -6.2092981e-27)
(-0.823405652 0.491891617 -8.47552921e-27)
(-0.8760712 0.521355252 -1.48709094e-26)
(-0.925945119 0.549226738 -1.69417465e-27)
(-0.972796916 0.57548824 2.07245958e-26)
(-1.01636398 0.600118651 0)
(-1.05634476 0.623095014 0)
(-1.09240057 0.644391581 4.21433633e-26)
(-1.12420424 0.663930126 8.51128079e-26)
(-1.151289 0.681780749 5.0665025e-26)
(-1.17334015 0.697928686 6.03839673e-26)
(-1.18998388 0.712449921 -1.76482728e-33)
(-1.20078573 0.725538529 -8.47673671e-26)
(-1.20495168 0.736895394 1.08690065e-25)
(-1.20172748 0.746585715 2.16250636e-25)
(-1.19030408 0.754609406 1.21968428e-25)
(-1.16972566 0.760928051 8.22564097e-27)
(-1.13875225 0.765556015 -8.89041853e-27)
(-1.09708708 0.768974248 1.91351205e-26)
(-1.04350083 0.771282879 0)
(-0.97666969 0.772558465 1.34757733e-25)
(-0.895155 0.772891669 2.39453092e-26)
(-0.797347566 0.772399084 -1.68816752e-25)
(-0.681293102 0.771229756 0)
(-0.544960349 0.76954835 -1.22488184e-25)
(-0.386769598 0.767160991 -2.094818e-25)
(-0.203778372 0.764564921 0)
(0.00592327142 0.764849557 0)
(0.234621723 0.76812186 -1.64226683e-25)
(0.508694175 0.771275707 -9.72128045e-26)
(0.822323054 0.774196494 -1.81098445e-25)
(1.17975776 0.77981054 0)
(1.58510611 0.789247844 3.29234214e-25)
(2.04200708 0.802775491 5.50167161e-25)
(2.55468161 0.821051179 3.59753516e-25)
(3.12772354 0.84488868 -1.29338996e-25)
(3.76538815 0.875196706 -7.42599693e-28)
(4.47114733 0.912951937 0)
(5.24759734 0.959131955 -2.47019393e-25)
(6.09635401 1.01444552 3.40687346e-25)
(7.01756688 1.07952193 6.27085643e-25)
(8.00971827 1.15491439 3.89413911e-25)
(9.06921391 1.24104702 -5.88124849e-25)
(10.1901333 1.33768668 -3.00302141e-24)
(11.3627118 1.44573718 5.49319889e-32)
(12.5768392 1.56338942 1.74804448e-24)
(13.8205646 1.68702902 0)
(15.0795087 1.81669919 0)
(16.3287079 1.94442321 4.14940588e-25)
(17.5677644 2.0712098 4.13144519e-25)
(18.7422218 2.18266328 0)
(19.8750653 2.29303098 6.90802186e-24)
(20.885333 2.38271444 5.95424366e-24)
(21.8254661 2.46808404 -8.59974154e-24)
(22.5425465 2.5214353 -2.95602092e-23)
(23.040844 2.57309654 -1.28909418e-23)
(23.1425548 2.67344096 -6.7097261e-24)
(23.1326569 2.72089201 -3.40462969e-24)
(23.1252064 2.71351454 -1.34723632e-24)
(23.1648438 2.63103129 9.47083324e-24)
(23.2036629 2.49296545 1.04450848e-23)
(23.2039534 2.45167022 -9.75596295e-24)
(23.1738874 2.440256 -1.04157416e-23)
(23.1620899 2.43339437 -1.1286114e-23)
(23.1533925 2.39856509 -1.02802136e-23)
(23.1460175 2.39106333 -1.11197165e-23)
(23.1464424 2.38002133 1.5649961e-31)
(23.1662421 2.37647777 2.04296465e-23)
(23.161681 2.32086962 2.09149352e-23)
(-0.0382504429 0.0223764504 2.77829621e-27)
(-0.115662172 0.0671568883 -3.33294022e-28)
(-0.193977432 0.111892114 9.0139112e-27)
(-0.271828937 0.155799256 5.85550241e-34)
(-0.348326174 0.198423878 -6.2296407e-27)
(-0.422909561 0.239501042 -4.062844e-27)
(-0.495224791 0.278888794 -6.8592343e-27)
(-0.565042934 0.316519443 -7.24208714e-28)
(-0.632172154 0.352380124 6.0725118e-28)
(-0.696509097 0.386484285 3.15290133e-27)
(-0.757906598 0.418858391 5.85112705e-27)
(-0.816201183 0.449522416 1.00352506e-26)
(-0.87119754 0.478491586 1.21481623e-26)
(-0.922661611 0.505775357 1.44768193e-26)
(-0.97031315 0.531377926 -1.47098735e-27)
(-1.01382884 0.55530016 -1.57436812e-27)
(-1.05287504 0.577495202 5.16767322e-26)
(-1.08701435 0.598028595 6.15854787e-26)
(-1.11586669 0.616936667 3.90054018e-27)
(-1.13889336 0.634189066 4.12274217e-27)
(-1.1555274 0.649718774 1.14550754e-25)
(-1.16507468 0.66357159 1.26583246e-25)
(-1.16676925 0.675722999 0)
(-1.15973533 0.68613526 -5.56121186e-27)
(-1.14343302 0.69513454 0)
(-1.11689152 0.702729912 0)
(-1.07903651 0.708987012 -6.93461965e-27)
(-1.02868017 0.713985817 -1.80155598e-25)
(-0.964522329 0.717814211 -2.16837275e-25)
(-0.885116238 0.720609848 2.40998604e-25)
(-0.788810008 0.72255532 2.38405299e-25)
(-0.673688531 0.723841788 -2.04644091e-26)
(-0.537748509 0.724677085 2.23639199e-26)
(-0.379300797 0.724964543 0)
(-0.195596409 0.725143304 -2.52659573e-26)
(0.015677984 0.727825894 0)
(0.247627968 0.733019472 0)
(0.524172318 0.738423441 -3.19729165e-26)
(0.839734776 0.744069612 0)
(1.19790972 0.752771485 0)
(1.60313038 0.765495251 3.59535249e-25)
(2.05883725 0.782527569 2.74877745e-25)
(2.56906431 0.80461724 0)
(3.13803719 0.832569955 0)
(3.76956374 0.867286601 0)
(4.46677875 0.909741399 -1.15598554e-25)
(5.23207339 0.960870541 -1.25165812e-25)
(6.06696229 1.02149416 7.24803874e-25)
(6.9716022 1.09239277 6.9090701e-25)
(7.94450121 1.17421157 8.16613312e-25)
(8.98223348 1.26734587 9.72265584e-25)
(10.0791688 1.37190268 1.3362387e-24)
(11.2272398 1.48728092 1.59582633e-24)
(12.4150666 1.61379485 0)
(13.6299096 1.7494756 0)
(14.8576321 1.89224311 -1.62782672e-24)
(16.0794535 2.03983232 -4.01345416e-24)
(17.2774335 2.18657639 -2.41743042e-24)
(18.431001 2.33216882 -2.53372009e-24)
(19.5097144 2.46590225 -1.90791152e-24)
(20.5258201 2.59324005 5.71849513e-24)
(21.4029533 2.67854052 1.22920445e-23)
(22.244741 2.74301468 5.13085915e-25)
(22.8289508 2.77108078 -1.46844764e-23)
(23.0968786 2.8121876 4.27104962e-25)
(23.1523436 2.83360078 -1.14447595e-24)
(23.1646886 2.86045299 3.24975376e-24)
(23.142459 2.84855992 -1.1005613e-31)
(23.1039896 2.86076547 -9.10994703e-24)
(23.0848485 2.81164552 -1.38854355e-24)
(23.0619781 2.84803294 7.71350186e-24)
(23.0870254 2.76702385 9.19009904e-24)
(23.1319609 2.66501845 0)
(23.1502897 2.59652321 1.05172466e-24)
(23.1503092 2.56687041 0)
(23.1536317 2.51402467 8.34765545e-24)
(23.2029786 2.45505312 2.21344465e-23)
(23.2452179 2.43171731 1.12878487e-23)
(23.269376 2.51539805 9.88264594e-24)
(23.2456675 2.4796025 2.69595418e-23)
(-0.0422456383 0.0225320826 2.84227268e-27)
(-0.127009808 0.0672202346 8.89905515e-27)
(-0.212051034 0.111485159 2.42558609e-28)
(-0.295898232 0.154580382 -6.41198811e-27)
(-0.377596085 0.196088482 -4.52681738e-27)
(-0.45653972 0.235775759 -2.1760848e-27)
(-0.532337413 0.273527437 6.14013796e-28)
(-0.604722364 0.309301624 -1.7553103e-27)
(-0.673473245 0.343102831 -4.77892849e-27)
(-0.738407024 0.374959763 -8.29923743e-27)
(-0.799329453 0.404912163 0)
(-0.856003977 0.433002805 1.72036464e-27)
(-0.908153686 0.459267901 -9.18017308e-28)
(-0.95546768 0.483707193 0)
(-0.997532937 0.506424082 0)
(-1.03394805 0.527361655 0)
(-1.06417106 0.546620072 0)
(-1.08762746 0.564129816 1.33820692e-27)
(-1.10362766 0.579893725 0)
(-1.11154945 0.594090593 -6.22762698e-26)
(-1.11062044 0.60672165 -6.99186861e-26)
(-1.09995417 0.617832478 1.66685687e-25)
(-1.07855905 0.627500928 1.79489936e-25)
(-1.04537775 0.63579224 -2.01513995e-25)
(-0.999224372 0.642815593 -2.11035584e-25)
(-0.938779169 0.648713715 -2.34708708e-25)
(-0.862577461 0.653650298 -2.596643e-25)
(-0.768991206 0.6578102 -2.61829722e-25)
(-0.656161563 0.661400433 -5.81976109e-25)
(-0.522111163 0.664660305 -2.95632042e-25)
(-0.365058189 0.667569343 0)
(-0.182410803 0.670510818 1.65589509e-26)
(0.0284743986 0.675664743 1.76118677e-26)
(0.261347209 0.683063341 0)
(0.537690744 0.6911269 -2.17999158e-26)
(0.8523998 0.699979144 0)
(1.20870032 0.712181227 0)
(1.61099186 0.728555363 4.29756108e-25)
(2.06254701 0.749380864 2.94262646e-26)
(2.56716272 0.775437107 -4.88546225e-25)
(3.12875323 0.807551544 4.77807202e-25)
(3.75082033 0.846618388 5.43205917e-25)
(4.43631011 0.893628874 -4.06911199e-26)
(5.18751249 0.949559911 0)
(6.0058461 1.0152791 7.90653167e-25)
(6.89145859 1.09158381 6.70682771e-25)
(7.84294034 1.1791293 0)
(8.85705316 1.27834403 0)
(9.92849381 1.38932447 -1.02023964e-24)
(11.0497506 1.51174915 -1.19120039e-24)
(12.2109347 1.6445958 1.56578167e-24)
(13.3993493 1.78719326 1.92938276e-24)
(14.6004096 1.93731506 -1.77968292e-24)
(15.7990223 2.09220053 4.61699555e-32)
(16.9757811 2.24805354 2.36252433e-24)
(18.1122784 2.40286508 1.26344573e-26)
(19.1827553 2.55329593 0)
(20.1714701 2.6952273 3.62177908e-25)
(21.0617311 2.81802827 -2.58921896e-24)
(21.8400655 2.9197627 4.90843958e-25)
(22.48059 2.98700817 5.83459227e-24)
(22.952735 3.03972815 0)
(23.0553183 3.0756501 4.37103647e-25)
(23.1051835 3.07418898 0)
(23.1326801 3.04113327 3.88940181e-25)
(23.1356324 3.02730227 -2.68043589e-25)
(23.1277585 2.99615635 -6.32577951e-25)
(23.0753378 2.9899273 -1.0291765e-23)
(23.0511836 2.98550578 -1.0492457e-23)
(23.0579856 2.94281133 -6.71149481e-25)
(23.0636801 2.88718377 -8.14483074e-24)
(23.0635247 2.86279397 -1.06217185e-23)
(23.0776627 2.84434388 -7.53490359e-24)
(23.1323426 2.78061577 -9.28392137e-24)
(23.1470465 2.75369484 -1.04839217e-23)
(23.1506051 2.72849672 -1.4968296e-23)
(23.2667095 2.62289021 9.80396232e-24)
(23.4441484 2.51817184 1.20246963e-23)
(23.4855677 2.59783249 -1.56706875e-24)
(23.4253321 2.67222559 1.90557853e-24)
(-0.0464217125 0.0224662291 2.56939003e-27)
(-0.13857868 0.0665825717 -7.73717259e-27)
(-0.230070118 0.1098769 7.50832492e-29)
(-0.31932792 0.151655333 8.02818041e-35)
(-0.405333173 0.191545143 -1.49116496e-27)
(-0.487430867 0.229349129 9.75648182e-29)
(-0.565182507 0.264983887 4.63112187e-27)
(-0.638270727 0.298440603 -1.78107834e-34)
(-0.70644388 0.329738309 -2.32671828e-26)
(-0.76940958 0.358934289 -1.58824822e-26)
(-0.826883377 0.386100305 -3.15068126e-28)
(-0.878553108 0.411272649 -2.6733774e-26)
(-0.924017177 0.434521874 -3.39974699e-26)
(-0.9627984 0.455936571 -4.04434268e-26)
(-0.994362085 0.475475046 -4.683941e-26)
(-1.01810146 0.493293896 5.35665581e-26)
(-1.033339 0.509420959 6.14353166e-26)
(-1.03929121 0.523922037 7.06548492e-28)
(-1.03507652 0.536874981 0)
(-1.01974394 0.548343621 -8.86097653e-26)
(-0.992181283 0.558460799 -9.76831777e-26)
(-0.951239265 0.567339461 2.05152446e-27)
(-0.895605446 0.575135829 1.18609639e-25)
(-0.823837302 0.582018656 1.27016483e-25)
(-0.73431887 0.588177509 5.78025876e-27)
(-0.625259766 0.593848713 0)
(-0.494719617 0.599298338 -3.54203709e-27)
(-0.340866571 0.604581786 2.11288649e-28)
(-0.161259503 0.610052832 -4.15874936e-25)
(0.0469516593 0.617513307 -4.36214973e-25)
(0.278289603 0.627041198 3.771654e-25)
(0.551649495 0.637684361 4.18220843e-25)
(0.862491808 0.649609136 2.5389634e-26)
(1.21419512 0.665001425 -5.30727972e-25)
(1.61070915 0.684630236 1.11303854e-32)
(2.05516741 0.708844857 5.40369659e-25)
(2.55114423 0.738453079 -5.50239937e-25)
(3.10228917 0.774316899 -5.98686803e-25)
(3.71187007 0.817344432 4.5588598e-26)
(4.38266672 0.868512465 -2.47185495e-26)
(5.11686401 0.928776542 -2.80862432e-26)
(5.91583494 0.99900142 -7.77826197e-25)
(6.77979849 1.07997994 -1.73207013e-24)
(7.70755699 1.17237081 -9.36351546e-25)
(8.69622901 1.276625 -9.59130495e-25)
(9.74100035 1.39290509 -1.17144444e-24)
(10.8349195 1.52100945 0)
(11.9687517 1.66028321 1.61575241e-24)
(13.1308299 1.80948167 1.85166658e-24)
(14.3071005 1.96699365 2.06888155e-24)
(15.481542 2.13033594 4.31286934e-24)
(16.6381059 2.29610895 4.51681038e-24)
(17.7571208 2.46050504 4.88099017e-24)
(18.8207311 2.62105741 5.17704613e-24)
(19.8056655 2.77030883 2.73961745e-24)
(20.7029215 2.90744054 -4.71855032e-25)
(21.486003 3.02551575 0)
(22.1546211 3.12532484 -3.52612216e-24)
(22.6874811 3.1969991 -4.73501635e-24)
(22.9975998 3.24345372 0)
(23.064168 3.29367041 -3.19265848e-24)
(23.0614117 3.28738905 -2.306114e-24)
(23.0581054 3.27343598 0)
(23.0526022 3.2645096 -2.5131289e-25)
(23.0654029 3.20181377 0)
(23.0677717 3.15582955 -1.08146847e-23)
(23.0599219 3.14049272 -8.8114575e-25)
(23.0553935 3.07352307 8.75825801e-24)
(23.0420546 3.0645207 -9.67677573e-25)
(23.0280925 3.07647227 -5.75137577e-25)
(23.0485931 3.03598821 -8.43044069e-24)
(23.070666 3.01314373 -8.93909842e-24)
(23.1422462 2.98672796 -8.10327629e-25)
(23.2255061 2.97200282 -8.39598568e-25)
(23.2601247 3.00033556 -5.2841263e-26)
(23.2480057 3.0739877 -9.57099879e-25)
(23.38796 3.02212199 1.12098425e-23)
(23.6583992 2.85120732 2.49047399e-23)
(23.8380498 2.84689798 1.42959879e-23)
(23.7721406 2.89312191 -1.41097662e-24)
(-0.0503423586 0.0219741292 0)
(-0.149053759 0.0646856675 -1.35578915e-28)
(-0.245819076 0.106208081 1.39158556e-28)
(-0.338977965 0.145916494 4.02917601e-29)
(-0.427446045 0.183490012 1.48889226e-28)
(-0.51050822 0.218772912 1.53048366e-28)
(-0.587658508 0.25172445 -1.16835524e-26)
(-0.658512021 0.282352165 0)
(-0.722703948 0.310721824 3.10322684e-28)
(-0.779863479 0.336905403 -2.74547533e-26)
(-0.829578883 0.360969045 -3.27844319e-26)
(-0.871378127 0.383034105 3.94889192e-26)
(-0.904718848 0.403179902 3.15882702e-28)
(-0.928966939 0.421499629 -1.0892547e-25)
(-0.943393333 0.438089691 -1.26284058e-25)
(-0.947166795 0.453059217 -7.18729627e-26)
(-0.939360644 0.466499577 -2.54280628e-28)
(-0.918922758 0.478557233 -9.13905613e-26)
(-0.884687197 0.489363927 -1.01964205e-25)
(-0.835384839 0.499082867 8.24034871e-29)
(-0.769599667 0.507906203 -1.0878595e-28)
(-0.685753192 0.516057228 -3.93974721e-29)
(-0.58212995 0.523797637 -1.46692792e-25)
(-0.457001821 0.531289908 -3.14123998e-25)
(-0.308382452 0.538718446 -1.74024607e-25)
(-0.133889027 0.546543477 5.25954249e-28)
(0.0693373724 0.556169055 -2.17623908e-25)
(0.296691661 0.567711001 -1.28864098e-27)
(0.564476163 0.580731846 1.58784546e-27)
(0.868832095 0.59543864 -2.5285e-25)
(1.21321845 0.613676708 0)
(1.60121081 0.636180838 -5.46080634e-25)
(2.03581561 0.663383228 6.23653107e-27)
(2.52038297 0.696108562 6.03198647e-25)
(3.0582933 0.735225111 6.37828719e-25)
(3.65260725 0.781639813 6.7556476e-25)
(4.30596913 0.836307675 1.11475042e-26)
(5.02048921 0.90016525 0)
(5.79754457 0.974072877 2.86855517e-26)
(6.63748272 1.05881974 -8.9739471e-25)