/*--------------------------------*- C++ -*----------------------------------*\
  =========                 |
  \\      /  F ield         | OpenFOAM: The Open Source CFD Toolbox
   \\    /   O peration     | Website:  https://openfoam.org
    \\  /    A nd           | Version:  8
     \\/     M anipulation  |
\*---------------------------------------------------------------------------*/
FoamFile
{
    version     2.0;
    format      ascii;
    class       volVectorField;
    location    "0.059";
    object      U;
}
// * * * * * * * * * * * * * * * * * * * * * * * * * * * * * * * * * * * * * //

dimensions      [0 1 -1 0 0 0 0];

internalField   nonuniform List<vector> 
42400
(
(-0.0187968594 0.0179708959 -1.09686003e-26)
(-0.0568427102 0.0531747303 3.54790663e-26)
(-0.095653211 0.0876991456 3.63414427e-26)
(-0.134846501 0.121118819 0)
(-0.174183178 0.153226464 0)
(-0.213553888 0.183911379 1.259289e-28)
(-0.252930117 0.213131083 0)
(-0.292327729 0.240887008 -1.47111237e-28)
(-0.331781796 0.267201216 0)
(-0.371329572 0.292099799 -1.70466563e-28)
(-0.411000665 0.315604004 -1.83013312e-28)
(-0.450812813 0.337727025 1.96168676e-28)
(-0.490771115 0.358474139 -1.187589e-26)
(-0.530869062 0.37784458 -8.25832431e-27)
(-0.571090334 0.395834154 2.39521018e-28)
(-0.611410795 0.41243804 0)
(-0.651800364 0.427653461 0)
(-0.692224581 0.441482019 0)
(-0.732645785 0.453931634 0)
(-0.773023902 0.46501805 0)
(-0.81331681 0.474765928 0)
(-0.853480327 0.483209548 7.32571159e-28)
(-0.893467818 0.490393144 3.15294184e-26)
(-0.933229433 0.4963709 7.14824735e-26)
(-0.972710961 0.501206638 3.98522855e-26)
(-1.01185231 0.504973213 9.1234167e-28)
(-1.05058566 0.507751627 9.61153902e-28)
(-1.08883318 0.509629907 -2.02282596e-27)
(-1.1265043 0.510701838 0)
(-1.16349249 0.511065487 0)
(-1.19967142 0.510821535 -6.45321511e-26)
(-1.23489005 0.510071264 -6.81455139e-26)
(-1.26896705 0.508913368 -2.55799736e-27)
(-1.30168581 0.507436619 7.42554965e-26)
(-1.33278776 0.505708358 7.97344812e-26)
(-1.36197575 0.503793737 0)
(-1.38894055 0.501782647 0)
(-1.41343441 0.499839497 0)
(-1.43531631 0.498194881 0)
(-1.45371477 0.497958248 2.22099962e-25)
(-1.46837575 0.497161927 2.98172566e-25)
(-1.47780098 0.496949433 2.36666506e-25)
(-1.48257988 0.495302059 1.25948231e-25)
(-1.47983285 0.496954533 5.53734889e-27)
(-1.46942578 0.499705135 7.10237627e-26)
(-1.44907063 0.502908679 1.0363052e-26)
(-1.41441978 0.50746832 -1.08739074e-27)
(-1.36630877 0.510750547 2.53886996e-25)
(-1.30137217 0.514834782 -2.32204401e-27)
(-1.21743896 0.519793939 3.06390055e-25)
(-1.11175622 0.525577508 -2.65803518e-34)
(-0.982104007 0.532537642 -6.9267268e-25)
(-0.826465047 0.540799381 -2.95366422e-25)
(-0.643349502 0.549403622 -1.88853028e-26)
(-0.425593634 0.558814998 0)
(-0.174422173 0.571391305 0)
(0.111604501 0.591538985 0)
(0.434670102 0.614840359 3.13769195e-27)
(0.827844732 0.63542061 -2.94518198e-27)
(1.2847352 0.65398934 0)
(1.80516754 0.675233382 3.28296901e-24)
(2.39834792 0.700920883 3.63037189e-24)
(3.07352628 0.728875365 -3.8768175e-24)
(3.83402672 0.7574598 -4.69669838e-24)
(4.68723039 0.786499609 0)
(5.6408939 0.818753575 0)
(6.69939101 0.84825184 -7.09468938e-24)
(7.90494686 0.868865623 -6.30591418e-24)
(9.11283475 1.0023596 2.79103838e-25)
(10.3412648 1.13437221 0)
(12.1283348 0.796186933 0)
(13.3402509 1.09829271 6.11099447e-25)
(14.0384286 2.30873387 7.59389702e-25)
(16.5139178 1.01466474 0)
(18.9825479 -0.291162094 4.43782146e-25)
(19.4722669 0.614080229 5.07354844e-24)
(19.3943932 3.17822494 -1.64714955e-23)
(21.2695065 2.75432137 -2.2404625e-24)
(22.8512821 0.870584344 8.50828814e-25)
(23.2420035 0.116289044 -1.26845345e-23)
(-0.0238195736 0.021086015 0)
(-0.0713884221 0.06226974 2.90768052e-26)
(-0.119318169 0.102657136 2.9562437e-26)
(-0.167201521 0.14184281 0)
(-0.214805717 0.179636926 0)
(-0.262023935 0.215942714 2.42569799e-26)
(-0.30883305 0.250728886 2.25813144e-26)
(-0.355253958 0.28400438 1.34345187e-28)
(-0.401324234 0.315795069 0)
(-0.44707999 0.346127618 1.37849011e-28)
(-0.492545638 0.375021046 1.39445325e-28)
(-0.537729601 0.402483835 -9.68383522e-27)
(-0.582623654 0.428514305 -1.26311067e-26)
(-0.627204151 0.453102684 -2.87035662e-27)
(-0.671434068 0.476233935 -9.96104559e-28)
(-0.71526526 0.497890805 -4.47314554e-27)
(-0.758640585 0.51805678 0)
(-0.801495689 0.536718759 2.97060708e-28)
(-0.843760354 0.55386934 0)
(-0.885359354 0.569508709 0)
(-0.92621281 0.583646091 0)
(-0.966236052 0.596300803 3.07225916e-26)
(-1.00533897 0.607502909 7.08727922e-26)
(-1.0434249 0.617293504 4.01439844e-26)
(-1.08038893 0.625724653 0)
(-1.11611585 0.632859076 -4.89430923e-28)
(-1.1504775 0.638769635 -2.11460885e-28)
(-1.18332968 0.64353873 3.79284981e-28)
(-1.21450886 0.647257522 6.1748726e-26)
(-1.24382912 0.65002479 6.57125604e-26)
(-1.27107743 0.651943953 -2.92142842e-28)
(-1.29600606 0.653118607 -2.31461729e-28)
(-1.31832741 0.653645926 7.55577401e-26)
(-1.33777418 0.653643036 7.83612009e-26)
(-1.35403443 0.653384058 -8.81622851e-26)
(-1.36694587 0.652634114 -1.23797959e-25)
(-1.3754222 0.652566636 0)
(-1.37947212 0.651651702 -7.73372968e-28)
(-1.37803526 0.651188365 0)
(-1.37185811 0.649873648 -1.02688081e-27)
(-1.35723639 0.650613277 -6.46020358e-26)
(-1.33381445 0.651211003 -2.0836896e-26)
(-1.29809007 0.652412427 1.74794867e-28)
(-1.25044577 0.652500698 1.57927478e-27)
(-1.18827661 0.653091475 -6.64492168e-27)
(-1.10991555 0.65433862 5.28584457e-27)
(-1.01319882 0.656396625 -6.85019276e-27)
(-0.895861779 0.659150681 1.94075596e-25)
(-0.755413927 0.66239007 1.35855657e-25)
(-0.590704201 0.665442765 0)
(-0.396322356 0.669296202 1.11435089e-26)
(-0.176252219 0.675114031 -2.41427459e-26)
(0.0828406533 0.687428673 6.42837639e-25)
(0.363639574 0.704087991 2.20211947e-25)
(0.707554377 0.719903736 -3.51757812e-26)
(1.10703584 0.733752037 1.18351973e-24)
(1.56552637 0.74998477 1.76674383e-24)
(2.08892431 0.770709838 2.79952748e-26)
(2.68410751 0.795438943 4.14548194e-26)
(3.35373647 0.823874479 2.15327889e-24)
(4.10192916 0.856480685 2.62471155e-24)
(4.9342206 0.893481009 -4.55814456e-26)
(5.85670647 0.934251511 4.14025809e-26)
(6.87382589 0.976884184 0)
(7.99690541 1.0137379 -5.1119998e-24)
(9.22523256 1.05206159 -1.13929314e-23)
(10.5255738 1.09893539 -6.50599079e-24)
(11.9958561 1.07439448 0)
(13.4364213 1.14147548 2.63034171e-26)
(14.5811887 1.54941551 5.61238754e-25)
(16.2345988 1.44493388 9.29875421e-24)
(18.0344443 0.827880607 8.30591474e-24)
(18.7435866 1.74239108 -4.36566234e-24)
(19.6605402 2.68099228 -1.3070635e-23)
(21.6239362 1.26434175 7.26594936e-26)
(23.0948212 0.13108966 9.25163784e-24)
(23.3548446 0.989606279 9.92267399e-24)
(23.3020243 2.06245909 -2.67898383e-24)
(23.3183725 2.19791338 -1.7335544e-23)
(23.2972811 1.77476518 -1.22672398e-23)
(-0.0281817737 0.0230659743 3.51138371e-27)
(-0.0840193823 0.0680605227 1.38042436e-28)
(-0.139858312 0.112208903 -1.47380514e-28)
(-0.195279858 0.155134835 1.50165802e-28)
(-0.250028199 0.196651619 0)
(-0.304011575 0.236681757 -1.7697562e-26)
(-0.357207692 0.275206897 3.20041005e-34)
(-0.40963897 0.312243544 1.35580688e-26)
(-0.461341333 0.347821407 1.10629603e-26)
(-0.512344771 0.3819679 1.65796554e-26)
(-0.562662782 0.414700138 5.63921102e-27)
(-0.612288092 0.446022346 4.17511853e-28)
(-0.661192122 0.475926458 4.32425557e-28)
(-0.709326395 0.504394333 -5.58524417e-27)
(-0.756624784 0.531400714 -9.73466304e-27)
(-0.80300598 0.556916422 1.43511062e-27)
(-0.848375796 0.580911464 1.77946623e-26)
(-0.892629109 0.603357899 4.73110673e-26)
(-0.935651282 0.624232341 2.87423178e-26)
(-0.977319032 0.643518061 1.08149078e-27)
(-1.0175007 0.661206703 -1.10669392e-27)
(-1.05605595 0.677299611 -1.12892919e-27)
(-1.09283488 0.691808836 0)
(-1.12767653 0.704757829 2.28851942e-27)
(-1.16040666 0.71618184 -6.21421008e-26)
(-1.19083463 0.726127638 4.16902171e-29)
(-1.21874929 0.734652335 7.37899937e-26)
(-1.24391334 0.741822174 7.9711567e-26)
(-1.26606213 0.747717402 8.52545474e-26)
(-1.28490923 0.752428815 -8.70828384e-26)
(-1.30016354 0.756040822 -1.8967379e-27)
(-1.31153839 0.758631124 2.12240541e-25)
(-1.31850971 0.76058544 1.43253623e-25)
(-1.320843 0.761496968 0)
(-1.31800045 0.761884529 0)
(-1.30926443 0.762546473 -1.30572014e-27)
(-1.29527506 0.7622843 0)
(-1.27221828 0.762858339 2.85863027e-27)
(-1.23952904 0.762558864 5.15644262e-26)
(-1.19426342 0.762107273 4.78669102e-27)
(-1.13688552 0.76072231 -1.83408242e-25)
(-1.06526987 0.759555209 0)
(-0.977831093 0.75876416 0)
(-0.872263469 0.758266917 1.95840131e-25)
(-0.746028298 0.757925915 1.53765074e-25)
(-0.597613061 0.7571666 -1.11793276e-26)
(-0.423771063 0.756441888 0)
(-0.227283809 0.757052294 0)
(0.0019577844 0.763077154 5.18345909e-25)
(0.250486416 0.773700054 1.99598568e-25)
(0.552866015 0.784190734 1.90854246e-26)
(0.904235137 0.793047978 0)
(1.30910753 0.803701371 -6.25069879e-25)
(1.77067999 0.818484796 -6.49466584e-25)
(2.29664752 0.837716527 -1.27950065e-24)
(2.8901581 0.86102895 -1.43708257e-24)
(3.55511647 0.88894939 -1.6206204e-24)
(4.29661539 0.922191563 9.07326157e-33)
(5.12007327 0.961633558 -1.26204342e-32)
(6.02917716 1.00826506 -4.88686621e-24)
(7.02537546 1.06284875 -2.69203244e-24)
(8.10843541 1.12505296 2.91373694e-24)
(9.27659333 1.1923816 3.3632369e-24)
(10.52026 1.26310774 0)
(11.8442776 1.31816757 5.02973812e-24)
(13.2536982 1.35180327 1.12163607e-23)
(14.6521253 1.42473595 6.51628127e-24)
(16.126126 1.46727971 0)
(17.6439096 1.37567542 -3.70972788e-26)
(18.7938018 1.62283317 6.33222854e-24)
(19.7784333 2.11252278 6.40002927e-24)
(21.1486275 1.80774348 0)
(22.445901 1.35719458 0)
(23.0350806 1.86425177 9.06908544e-25)
(23.2859046 2.21678162 -6.40493464e-25)
(23.3850332 1.93141553 1.19717162e-23)
(23.3853892 1.62676256 9.44944495e-24)
(23.3655752 1.64588735 0)
(23.3593054 1.72159399 -1.09716256e-24)
(23.3365814 1.85493823 9.10879993e-24)
(-0.031947494 0.0241329968 1.33404345e-28)
(-0.094919132 0.0711431397 2.10741526e-28)
(-0.157576079 0.117254621 8.97460578e-27)
(-0.219478307 0.162118179 -7.58981686e-27)
(-0.280380828 0.205568906 -7.16361946e-27)
(-0.34015564 0.247530614 0)
(-0.398803132 0.288002174 -9.71333754e-27)
(-0.456339399 0.327012029 -7.60927494e-27)
(-0.512793339 0.36459529 -4.09417301e-27)
(-0.568183722 0.400781741 -7.87600255e-28)
(-0.622507202 0.435588746 4.15382106e-27)
(-0.675734044 0.469018928 1.61346482e-34)
(-0.727807815 0.501060919 6.95967649e-28)
(-0.77864699 0.531691694 9.26679344e-34)
(-0.828147381 0.560879626 -7.54243087e-28)
(-0.876184748 0.58858775 2.83327157e-26)
(-0.922617214 0.614776969 -3.42937689e-26)
(-0.967287253 0.639409026 -1.6566326e-27)
(-1.01002311 0.66244913 4.56316494e-26)
(-1.05063954 0.683868218 1.75441524e-27)
(-1.0889377 0.703644918 -3.63346844e-27)
(-1.12470409 0.721767329 -6.77413596e-26)
(-1.15770906 0.738234627 -7.58645468e-26)
(-1.18770468 0.753057685 1.90555955e-27)
(-1.21441851 0.766253868 0)
(-1.23755665 0.777842814 1.94928334e-27)
(-1.25681176 0.787849716 0)
(-1.27183342 0.796348442 1.23156248e-25)
(-1.28228459 0.803314763 2.73336976e-25)
(-1.28783409 0.808937006 1.59182353e-25)
(-1.28807873 0.813407291 -1.76983045e-25)
(-1.28257227 0.817120902 -1.82609352e-25)
(-1.27122008 0.819946487 7.06441156e-27)
(-1.25199432 0.822279625 3.51801825e-27)
(-1.22381012 0.823577958 -1.22882236e-25)
(-1.18530286 0.823670861 -1.53242423e-25)
(-1.13416732 0.822999012 0)
(-1.07073486 0.821497677 2.40874907e-25)
(-0.993134577 0.819871889 2.44244366e-25)
(-0.899750838 0.818211448 1.16776464e-27)
(-0.788412593 0.816509079 4.14255256e-28)
(-0.656766028 0.814714124 0)
(-0.503364066 0.812175006 0)
(-0.324236243 0.809211494 0)
(-0.118873275 0.809417145 -5.20395895e-27)
(0.106338504 0.815963281 3.38514306e-25)
(0.361937031 0.824404356 5.95055523e-26)
(0.675443108 0.830150514 0)
(1.03402227 0.835234523 0)
(1.44350396 0.844171152 5.52800706e-25)
(1.90936229 0.857760987 5.40743468e-25)
(2.43556547 0.875812189 5.25424505e-25)
(3.02645207 0.898608687 5.83295981e-25)
(3.68688444 0.926892626 5.55617458e-26)
(4.42205786 0.961383375 -7.10371082e-25)
(5.23619024 1.00285053 -9.37307509e-25)
(6.13181085 1.05184396 -1.93088709e-24)
(7.11060273 1.10871955 -2.29106797e-24)
(8.17263028 1.17335935 0)
(9.31707292 1.24651003 -1.28226546e-25)
(10.5359885 1.330472 -2.91967376e-24)
(11.8114769 1.42553662 -5.91728844e-24)
(13.1330715 1.52722533 1.59133979e-25)
(14.4688058 1.63657149 1.58963151e-25)
(15.8160906 1.73466653 -4.61978095e-24)
(17.2032701 1.77522099 5.43575399e-24)
(18.5447955 1.80174807 6.45662762e-24)
(19.7772753 1.9243957 -3.54710496e-25)
(20.9248915 1.93317085 -3.76646865e-24)
(22.0199305 1.86620494 -8.10268209e-24)
(22.7511123 2.02925741 6.46170819e-26)
(23.1967039 2.24852335 -1.43836543e-23)
(23.3331092 2.1763668 -8.87070962e-24)
(23.3464327 2.12359835 0)
(23.3832784 2.09485189 -7.65274414e-24)
(23.4130979 2.00886488 -1.48786722e-23)
(23.3666199 1.95905094 9.37951903e-25)
(23.3456893 1.89668241 9.77271814e-24)
(23.3432939 1.83942862 9.8999068e-24)
(23.3244421 1.83752368 1.12636346e-23)
(-0.0354260637 0.0246436399 2.70479823e-27)
(-0.1049528 0.0725155909 0)
(-0.173841096 0.11937152 0)
(-0.241631741 0.164890022 1.98620627e-30)
(-0.308070299 0.208930388 0)
(-0.373051707 0.251438212 0)
(-0.436521858 0.292409195 0)
(-0.49850129 0.331880571 -1.54009962e-27)
(-0.559028722 0.369903889 0)
(-0.618101296 0.406518488 8.48638816e-28)
(-0.675691746 0.441744783 1.30943777e-26)
(-0.731740091 0.475587365 1.16204439e-33)
(-0.786153293 0.508036205 -2.13055117e-26)
(-0.838807171 0.539068861 0)
(-0.889548942 0.568653455 -1.04961604e-27)
(-0.938199741 0.596751929 2.19498199e-27)
(-0.984556833 0.623323308 0)
(-1.02839538 0.648326964 5.92022412e-26)
(-1.06946984 0.671725754 2.46464664e-27)
(-1.10751521 0.693488239 -1.53368367e-25)
(-1.14224031 0.713584934 -9.06597176e-26)
(-1.17332628 0.73198746 2.66190463e-27)
(-1.20043307 0.748671974 0)
(-1.22322663 0.763584748 -1.183376e-25)
(-1.24131809 0.776848527 -1.31071547e-25)
(-1.25440201 0.788518765 -1.45199726e-25)
(-1.26210086 0.798743431 -1.6543649e-25)
(-1.26403624 0.807681783 1.76328391e-25)
(-1.25963647 0.815420146 1.80558623e-25)
(-1.24756246 0.821751156 0)
(-1.22696013 0.826621992 -1.9469728e-25)
(-1.19670645 0.830009827 -2.12442352e-25)
(-1.15523041 0.832049873 5.58391368e-27)
(-1.10210572 0.83305094 -2.6466659e-25)
(-1.03610923 0.833351392 -2.83343422e-25)
(-0.955696076 0.833077884 -9.17794544e-27)
(-0.859207963 0.832329129 4.50903933e-27)
(-0.744548235 0.831199831 -3.14357221e-25)
(-0.609446877 0.829776357 -2.96145061e-25)
(-0.452321554 0.827635933 3.39297982e-25)
(-0.269640498 0.825205408 1.00965053e-24)
(-0.0601390968 0.826159153 5.21377874e-25)
(0.166662353 0.831144326 0)
(0.439811205 0.836304918 -3.57077988e-29)
(0.754807673 0.840444666 -4.23485422e-25)
(1.1165164 0.84666738 -1.3767047e-27)
(1.52848186 0.856843779 -5.53188024e-34)
(1.99560519 0.871234857 -4.97718819e-25)
(2.52101384 0.889923501 0)
(3.1094133 0.913880477 1.05864637e-26)
(3.76577999 0.943969663 -5.9005783e-25)
(4.49433092 0.980987755 -6.68403572e-25)
(5.29834041 1.02568356 8.39166332e-26)
(6.17970755 1.07866431 -7.09785001e-25)
(7.13893316 1.14032899 -9.30491879e-25)
(8.17548948 1.21101391 -1.08336212e-24)
(9.28636757 1.29070578 -3.88702823e-24)
(10.4690947 1.37828769 -2.9070531e-24)
(11.7169379 1.47155319 -3.13835077e-24)
(13.0157618 1.56945474 -3.60022492e-24)
(14.3468198 1.67918267 0)
(15.6676436 1.80453628 1.94479161e-25)
(16.9687796 1.93908433 -2.83717713e-24)
(18.2031133 2.07305003 -3.1492125e-24)
(19.3806374 2.20163849 -1.5664704e-26)
(20.5028124 2.27663436 0)
(21.6039637 2.25601932 8.01965496e-24)
(22.5341758 2.2512196 1.22745108e-23)
(23.1184754 2.30112241 6.56360724e-25)
(23.3767721 2.30872041 -5.65005542e-25)
(23.3925962 2.35476442 -1.89057327e-26)
(23.3997113 2.37758771 -6.10192853e-25)
(23.3495877 2.42412407 -8.48977165e-24)
(23.3181092 2.36767575 -1.26756035e-23)
(23.3140239 2.3402822 -3.41690555e-25)
(23.3196501 2.30057229 0)
(23.3302979 2.20714338 -9.58014339e-24)
(23.3408767 2.14830974 -6.38809819e-24)
(23.3434703 2.08218773 0)
(23.3230688 1.99347329 -1.22760279e-23)
(-0.038953233 0.0248863062 -5.04275912e-27)
(-0.115039425 0.0730064882 -7.50884197e-27)
(-0.190075947 0.119902506 -7.69841658e-27)
(-0.263586597 0.165282019 -4.19436908e-28)
(-0.335308343 0.209029569 4.18414809e-27)
(-0.405127073 0.251115835 -9.28882532e-28)
(-0.473016229 0.291560354 1.57450487e-28)
(-0.538960531 0.330404797 3.71279594e-28)
(-0.602954661 0.367700192 1.08524808e-27)
(-0.664997475 0.403495238 2.27666242e-27)
(-0.725025344 0.437823388 -8.88219116e-27)
(-0.78293819 0.470696271 -4.03599959e-26)
(-0.838595706 0.5021107 -3.43536469e-26)
(-0.891818975 0.532051546 -4.1125629e-26)
(-0.942392752 0.560494501 1.43734601e-27)
(-0.990068047 0.587408865 6.39576966e-26)
(-1.03456354 0.612761004 0)
(-1.07556158 0.636515623 0)
(-1.11271192 0.658639787 9.19699758e-26)
(-1.14567469 0.679053456 2.02911486e-25)
(-1.17403714 0.697859653 1.11096547e-25)
(-1.19747563 0.715043556 1.2762313e-25)
(-1.2155856 0.730697614 1.15419949e-33)
(-1.22775536 0.744812776 -1.73724703e-25)
(-1.23328659 0.757237838 1.83030972e-25)
(-1.23144345 0.768031793 4.01931447e-25)
(-1.2214066 0.777210149 2.12071727e-25)
(-1.2021929 0.784760723 -4.26008326e-27)
(-1.17276219 0.790810352 4.34394935e-27)
(-1.13255251 0.795705801 -8.7640006e-27)
(-1.08030116 0.799538688 0)
(-1.01464731 0.802391851 3.18418607e-25)
(-0.934106783 0.804371787 -8.74599542e-27)
(-0.83698785 0.805617034 -3.46960984e-25)
(-0.721195203 0.8062893 0)
(-0.584542473 0.806544943 -3.61681336e-25)
(-0.425306831 0.806109157 -3.8321314e-25)
(-0.240248383 0.805361106 0)
(-0.027435719 0.807528307 0)
(0.204174088 0.813057547 -3.68434151e-25)
(0.481915717 0.818871381 -3.56842455e-25)
(0.800677221 0.824181285 2.87461177e-26)
(1.16477915 0.832076662 0)
(1.57796377 0.843912253 5.40004888e-25)
(2.04407876 0.860051333 1.0969326e-24)
(2.56734487 0.881147072 5.64656315e-25)
(3.15230977 0.907985901 8.90424205e-27)
(3.803361 0.941303671 -1.52617467e-27)
(4.52406324 0.981924324 0)
(5.31713512 1.03067937 -7.00637327e-25)
(6.18405216 1.08834277 6.72577271e-27)
(7.12495799 1.15564422 8.5412189e-25)
(8.13820595 1.23309464 3.04721513e-26)
(9.22067584 1.32091548 -1.05063604e-24)
(10.3668982 1.4185362 -2.59473399e-24)
(11.5719828 1.52443982 9.3220144e-33)
(12.8237688 1.63790331 1.52348949e-24)
(14.1039251 1.75676274 0)
(15.4001671 1.87572695 0)
(16.6915424 1.98617759 1.32339388e-25)
(17.9577233 2.09860895 1.52532311e-25)
(19.1329611 2.22147965 0)
(20.2101421 2.36074318 5.31960813e-24)
(21.1559525 2.48382996 4.22031368e-24)
(21.9996283 2.57276886 -6.1534715e-24)
(22.7490595 2.6201874 -2.23613807e-23)
(23.1956618 2.62431616 -9.63221201e-24)
(23.3229891 2.61721856 -4.21360518e-24)
(23.3963186 2.57263347 -1.99797744e-24)
(23.3994664 2.53985185 -6.79275339e-25)
(23.3951436 2.5514452 6.78373558e-24)
(23.3697352 2.50322039 9.14401928e-24)
(23.3432546 2.48399944 -1.01921457e-23)
(23.3217032 2.51610728 -9.01784786e-24)
(23.3195692 2.48639156 -8.29453756e-24)
(23.3155621 2.42641642 -8.71947637e-24)
(23.315207 2.39655792 -6.23952976e-24)
(23.3179739 2.34540297 4.62417705e-32)
(23.3260109 2.30595442 1.53598597e-23)
(23.3173472 2.26131262 1.6653461e-23)
(-0.0427556681 0.0250055117 2.65346405e-27)
(-0.125783947 0.0730519074 4.99127258e-28)
(-0.207192589 0.119586516 6.78221821e-27)
(-0.28648965 0.164349353 -8.69977984e-34)
(-0.36340226 0.207253516 -3.29022488e-27)
(-0.437807602 0.248291965 -2.32588666e-27)
(-0.509664399 0.287505948 2.52017022e-27)
(-0.578963688 0.324952394 2.58846848e-27)
(-0.645643252 0.360696508 7.29689211e-27)
(-0.709676935 0.394788219 1.10106433e-26)
(-0.770949754 0.427273988 1.49178555e-26)
(-0.829305805 0.458176489 1.75126471e-26)
(-0.884541834 0.487503912 2.39010233e-26)
(-0.936403579 0.515255172 3.09524331e-26)
(-0.984592277 0.541420499 1.89844269e-27)
(-1.02876648 0.565991269 1.98146998e-27)
(-1.06857059 0.588903881 8.98721817e-26)
(-1.10357341 0.610266502 1.04918108e-25)
(-1.1333459 0.629997985 -4.46018412e-27)
(-1.15729512 0.648126035 -4.69654237e-27)
(-1.17488216 0.664568089 1.59738293e-25)
(-1.18539405 0.679373828 1.7571296e-25)
(-1.18807164 0.692508924 0)
(-1.18218931 0.704111592 5.40635759e-27)
(-1.1670086 0.714297145 0)
(-1.14150957 0.723110659 0)
(-1.10460502 0.73061478 5.93600918e-27)
(-1.05508619 0.736899026 -3.08275667e-25)
(-0.991620988 0.742070453 -3.12338486e-25)
(-0.91271267 0.746280572 3.2944577e-25)
(-0.816652814 0.749713538 3.66216239e-25)
(-0.701437096 0.752561153 1.29629757e-26)
(-0.564936227 0.755029944 -1.28733021e-26)
(-0.40533768 0.756966015 0)
(-0.219664635 0.758715674 1.40996811e-26)
(-0.00553094518 0.76297859 0)
(0.229222701 0.770018984 0)
(0.509233133 0.777590025 1.41439933e-26)
(0.829432176 0.785231023 0)
(1.19345616 0.795906957 0)
(1.60556184 0.810729533 5.95685131e-25)
(2.06930359 0.829983991 6.3007396e-25)
(2.58872668 0.854370459 0)
(3.16808941 0.884671218 0)
(3.81126174 0.921737132 0)
(4.52157171 0.966443699 2.65141879e-26)
(5.30152593 1.01969272 2.26280014e-26)
(6.15243843 1.08235011 7.76398803e-25)
(7.07422968 1.15518232 8.61229509e-25)
(8.06516918 1.23877884 9.43440472e-25)
(9.12160054 1.33343664 1.0518589e-24)
(10.2381679 1.43917953 1.17481708e-24)
(11.4068874 1.55550832 1.33883365e-24)
(12.6194962 1.68128504 0)
(13.8617543 1.81429227 0)
(15.1169863 1.95050857 -1.57530319e-24)
(16.365608 2.08933998 -3.45746932e-24)
(17.5762719 2.22893127 -1.94931908e-24)
(18.7358935 2.36434804 -2.09294485e-24)
(19.8252298 2.47006119 -2.1175794e-24)
(20.8446574 2.56299644 4.94516954e-24)
(21.7187527 2.63877843 1.07823356e-23)
(22.467094 2.7384019 2.49864716e-25)
(22.9757322 2.78756183 -1.06437585e-23)
(23.2847874 2.85191407 2.11055026e-25)
(23.3017407 2.90556389 -4.59654526e-25)
(23.3049893 2.92949899 2.95517174e-24)
(23.3020136 2.87741962 -2.12146115e-32)
(23.3422724 2.82040135 -6.25894319e-24)
(23.3775029 2.71413614 -6.3770647e-25)
(23.3912463 2.65605754 6.58741698e-24)
(23.3561776 2.67758888 7.77185989e-24)
(23.3456811 2.63162987 0)
(23.3333532 2.60931748 4.35859738e-25)
(23.3174944 2.6278296 0)
(23.3201617 2.59697886 1.03043995e-23)
(23.3315244 2.58298139 1.33569446e-23)
(23.3506927 2.54758403 9.1343594e-24)
(23.3980745 2.51438766 9.02772745e-24)
(23.3762032 2.49139199 1.4920996e-23)
(-0.0468941437 0.0250070676 2.67478286e-27)
(-0.137293393 0.0726948233 8.11086823e-27)
(-0.225265951 0.118535634 -6.93491505e-28)
(-0.310303663 0.162306107 -4.32948482e-27)
(-0.392121391 0.203950691 -1.71968459e-27)
(-0.470582757 0.243486864 3.2018621e-28)
(-0.545627127 0.28097686 -1.70972455e-27)
(-0.617213469 0.316502799 -9.35581983e-27)
(-0.685289314 0.350131228 -1.30861192e-26)
(-0.749671448 0.381937993 -1.78695096e-26)
(-0.810246117 0.411959549 0)
(-0.866774527 0.440249213 -4.38711781e-27)
(-0.91897714 0.466810297 2.30362556e-27)
(-0.966475378 0.491730378 0)
(-1.00889139 0.514948613 0)
(-1.04574496 0.536496379 0)
(-1.07648346 0.556439385 0)
(-1.1005447 0.574677239 -2.88536547e-27)
(-1.11723853 0.591308827 0)
(-1.12587816 0.606391799 -9.3681825e-26)
(-1.12565096 0.619950525 -1.03981995e-25)
(-1.11565923 0.63202554 2.08936347e-25)
(-1.09488947 0.642696957 2.37493547e-25)
(-1.0622549 0.652035588 -2.53555164e-25)
(-1.01653743 0.660163094 -2.92593083e-25)
(-0.956388802 0.667224409 -3.09560816e-25)
(-0.880321424 0.673382384 -3.26858932e-25)
(-0.786653304 0.678811817 -3.78298747e-25)
(-0.673473263 0.683729214 -7.70927304e-25)
(-0.538719029 0.688381608 -3.95847976e-25)
(-0.38050964 0.692709259 0)
(-0.196069668 0.697021056 -1.93449343e-26)
(0.0174109594 0.703550071 -1.95034992e-26)
(0.25280824 0.712531819 0)
(0.532325693 0.722422044 2.01588026e-26)
(0.851228394 0.732963956 0)
(1.21260852 0.746844889 0)
(1.62096652 0.764961796 6.44149767e-25)
(2.0795951 0.787588315 -2.28513812e-26)
(2.59230323 0.815487898 -6.63818321e-25)
(3.16305955 0.849495901 7.1490998e-25)
(3.79544945 0.890500265 7.21730698e-25)
(4.49258195 0.939417006 2.40897835e-26)
(5.25678877 0.997165185 0)
(6.08929515 1.06462374 7.94280499e-25)
(6.99001408 1.14257089 9.37892622e-25)
(7.95726388 1.23160276 0)
(8.98753684 1.33206217 0)
(10.0753497 1.44393853 -1.19745033e-24)
(11.2132994 1.56684973 -1.32154518e-24)
(12.3917454 1.69982446 1.45519626e-24)
(13.6007366 1.84113108 1.54711956e-24)
(14.8253194 1.98882129 -1.60758323e-24)
(16.044748 2.14149815 6.59494917e-33)
(17.2366881 2.29728982 1.7613243e-24)
(18.3798862 2.44693384 9.16679858e-27)
(19.4599547 2.58823076 0)
(20.439318 2.71961206 1.31925927e-25)
(21.3084863 2.8522261 -1.83501684e-24)
(22.0471468 2.93479824 2.40945847e-25)
(22.7296782 2.98735781 4.54962166e-24)
(23.1771839 3.01373446 0)
(23.3051834 3.04571619 2.4116555e-25)
(23.3551064 3.08627661 0)
(23.3276801 3.07455539 8.71239937e-26)
(23.3169409 3.08233599 -8.46868252e-26)
(23.2851062 3.05689803 -3.70334126e-25)
(23.2697192 3.04883954 -8.88592366e-24)
(23.279221 3.02282437 -6.90678284e-24)
(23.305856 2.96722073 -4.49836578e-25)
(23.323144 2.89018269 -7.89357857e-24)
(23.3334617 2.83669337 -5.86251815e-24)
(23.3396282 2.78484144 -8.07466274e-24)
(23.3509345 2.74184515 -6.74814389e-24)
(23.3595908 2.71150333 -7.33485315e-24)
(23.3633883 2.69766828 -6.82078395e-24)
(23.3972757 2.68805088 8.70071129e-24)
(23.4337665 2.68023225 8.47529586e-24)
(23.5143992 2.68367553 -1.4835257e-24)
(23.4831767 2.67976078 1.02675253e-24)
(-0.0511294816 0.0247417574 2.36054316e-27)
(-0.148812172 0.0715411158 -7.78517803e-27)
(-0.242976394 0.116166266 -9.06675412e-28)
(-0.33309685 0.15843566 -9.3166979e-34)
(-0.418871057 0.198325341 1.01241246e-27)
(-0.500137779 0.235876689 -1.05746042e-27)
(-0.576802158 0.271170078 8.37157513e-27)
(-0.64877751 0.304304414 1.77159039e-33)
(-0.71594708 0.335380165 -3.25501913e-26)
(-0.778138884 0.364489968 -2.2776995e-26)
(-0.835061026 0.391687365 2.7253055e-27)
(-0.886373753 0.417032526 -3.82211283e-26)
(-0.931648132 0.440598535 -3.9713246e-26)
(-0.970431151 0.462360079 -4.97506942e-26)
(-1.00211907 0.482431061 -5.72214752e-26)
(-1.02607946 0.500828986 6.58078512e-26)
(-1.04159031 0.517602206 7.50643783e-26)
(-1.04783946 0.53280835 -3.72793566e-27)
(-1.04392035 0.546522688 0)
(-1.02887146 0.558808897 -1.01980138e-25)
(-1.00154507 0.569800817 -1.1777936e-25)
(-0.960747098 0.579596743 -8.98066615e-27)
(-0.905126475 0.5883506 1.42682414e-25)
(-0.833196288 0.596231979 1.65796775e-25)
(-0.743287171 0.603447684 -2.0127543e-26)
(-0.633569911 0.610275523 0)
(-0.502241032 0.616876701 1.08492598e-26)
(-0.3473398 0.62327824 2.53457147e-28)
(-0.16613778 0.629918547 -5.08769599e-25)
(0.0444084733 0.638606432 -5.16972009e-25)
(0.278064283 0.649514669 4.5871e-25)
(0.554395497 0.661692829 4.48549736e-25)
(0.869064175 0.675022057 -5.44357276e-26)
(1.2253952 0.691796917 -5.91535851e-25)
(1.62737389 0.712858881 -2.04992796e-32)
(2.07813586 0.738570463 6.51750411e-25)
(2.58128245 0.769735335 -7.14430893e-25)
(3.14053017 0.807209242 -7.14710929e-25)
(3.75922636 0.851873522 -6.51087748e-26)
(4.44028967 0.904636506 3.35828001e-26)
(5.18593062 0.966406713 3.28079718e-26)
(5.99736446 1.03805413 -8.70067443e-25)
(6.87461376 1.12035199 -1.81757275e-24)
(7.81623123 1.21390685 -9.9189856e-25)
(8.81904064 1.31909436 -1.13426464e-24)
(9.87790826 1.43598342 -1.17546369e-24)
(10.9855903 1.56425952 0)
(12.1326669 1.70312802 1.40017491e-24)
(13.3078555 1.85117091 1.59149403e-24)
(14.4988766 2.00618903 1.73973853e-24)
(15.6907177 2.16547493 3.71335202e-24)
(16.8644721 2.32581765 3.96472599e-24)
(18.0004094 2.48382598 4.21899849e-24)
(19.0731065 2.63718565 4.54415771e-24)
(20.0581698 2.78756742 2.36858437e-24)
(20.9321002 2.92133936 -1.41152512e-25)
(21.707797 3.03483185 0)
(22.358825 3.11879265 -2.80029209e-24)
(22.8529238 3.17820003 -4.22339311e-24)
(23.2146733 3.24663809 0)
(23.2807446 3.27062837 -2.96999138e-24)
(23.3139775 3.26766527 -1.49080406e-24)
(23.3217736 3.24125886 0)
(23.3223039 3.21915324 -1.37563279e-25)
(23.3207175 3.20777538 0)
(23.2783001 3.20807387 -8.22015074e-24)
(23.2449751 3.19092339 -6.58169955e-25)
(23.2418542 3.18677623 6.83558452e-24)
(23.2531163 3.1357483 -4.333635e-25)
(23.2740104 3.09159779 -4.41617471e-25)
(23.291055 3.04138446 -7.3628852e-24)
(23.2955785 3.00397856 -5.9048441e-24)
(23.3026248 2.98521933 -2.75728812e-25)
(23.348811 2.92440742 -3.99789859e-25)
(23.3898381 2.87841093 -4.50840847e-26)
(23.435637 2.84024445 -4.8705682e-25)
(23.5256304 2.80801755 9.82458589e-24)
(23.6015723 2.79346684 1.89564774e-23)
(23.6651405 2.80678396 8.49484406e-24)
(23.6692273 2.81114237 -1.49701955e-24)
(-0.0550090395 0.0240096822 0)
(-0.158988181 0.0690433973 -1.09790897e-27)
(-0.25806063 0.1116338 1.1555994e-27)
(-0.351680128 0.151647451 -2.85988054e-27)
(-0.439519819 0.189093713 1.28202228e-27)
(-0.521378617 0.224048138 1.35046936e-27)
(-0.597111369 0.256605061 -1.51053052e-26)
(-0.666548419 0.286885688 0)
(-0.72946584 0.315004945 3.12693941e-27)
(-0.785564705 0.341050468 -3.18886952e-26)
(-0.834435478 0.365139733 -3.4959876e-26)
(-0.875604418 0.387344664 4.5831181e-26)
(-0.908496436 0.407748888 3.82738476e-27)
(-0.932439173 0.426432455 -1.20956831e-25)
(-0.946664519 0.443478082 -1.43711869e-25)
(-0.950302983 0.458983366 -7.73035076e-26)
(-0.942398059 0.473028891 -4.61093374e-27)
(-0.921866261 0.485756327 -1.02863118e-25)
(-0.887492962 0.497285459 -1.09676096e-25)
(-0.837966425 0.507769502 5.2076227e-27)
(-0.771823872 0.517395602 -5.52856805e-27)
(-0.687439714 0.526377834 -2.29033243e-26)
(-0.583057911 0.534950699 -1.62880885e-25)
(-0.456883053 0.543212744 -3.54290689e-25)
(-0.306677536 0.551371045 -2.07311336e-25)
(-0.129495375 0.560468153 -1.35270262e-26)
(0.0722057535 0.571595904 -1.97580148e-25)
(0.303010753 0.584372054 1.42520714e-26)
(0.574404694 0.598201783 -1.50756668e-26)
(0.882587147 0.613874213 -2.63502997e-25)
(1.23116583 0.633268547 0)
(1.62393865 0.657035953 -6.27051463e-25)
(2.06403484 0.685552375 -3.52077849e-26)
(2.55487925 0.719619072 7.11105634e-25)
(3.09990955 0.760096885 7.48072828e-25)
(3.70224183 0.807879417 7.86571603e-25)
(4.36462091 0.863880314 -4.03921488e-26)
(5.08917361 0.929005064 0)
(5.87714549 1.00411788 -8.46102428e-26)
(6.72871507 1.08998892 -9.24170797e-25)
(7.64273655 1.1872344 -9.85668285e-25)