/*--------------------------------*- C++ -*----------------------------------*\
  =========                 |
  \\      /  F ield         | OpenFOAM: The Open Source CFD Toolbox
   \\    /   O peration     | Website:  https://openfoam.org
    \\  /    A nd           | Version:  8
     \\/     M anipulation  |
\*---------------------------------------------------------------------------*/
FoamFile
{
    version     2.0;
    format      ascii;
    class       volScalarField;
    location    "0.079";
    object      p_rgh;
}
// * * * * * * * * * * * * * * * * * * * * * * * * * * * * * * * * * * * * * //

dimensions      [1 -1 -2 0 0 0 0];

internalField   nonuniform List<scalar> 
42400
(
101641.465
101641.453
101641.44
101641.428
101641.417
101641.407
101641.398
101641.389
101641.382
101641.375
101641.369
101641.365
101641.361
101641.358
101641.356
101641.355
101641.355
101641.356
101641.358
101641.36
101641.364
101641.368
101641.373
101641.379
101641.386
101641.393
101641.401
101641.409
101641.418
101641.428
101641.438
101641.448
101641.459
101641.47
101641.481
101641.492
101641.503
101641.523
101641.552
101641.586
101641.605
101641.606
101641.603
101641.6
101641.611
101641.637
101641.666
101641.697
101641.731
101641.766
101641.801
101641.857
101641.931
101642.02
101642.098
101642.16
101642.257
101642.387
101642.541
101642.712
101642.905
101643.129
101643.395
101643.707
101644.062
101644.448
101644.894
101645.464
101645.864
101646.342
101647.525
101647.694
101647.055
101647.568
101651.75
101655.538
101654.043
101652.026
101653.232
101653.949
101640.602
101640.593
101640.582
101640.573
101640.564
101640.556
101640.549
101640.543
101640.537
101640.532
101640.528
101640.525
101640.522
101640.521
101640.52
101640.52
101640.521
101640.523
101640.525
101640.529
101640.533
101640.538
101640.544
101640.55
101640.557
101640.564
101640.572
101640.581
101640.589
101640.598
101640.608
101640.617
101640.626
101640.635
101640.649
101640.672
101640.697
101640.709
101640.705
101640.699
101640.701
101640.715
101640.732
101640.75
101640.769
101640.789
101640.809
101640.829
101640.868
101640.928
101640.971
101640.99
101641.03
101641.097
101641.186
101641.281
101641.388
101641.514
101641.665
101641.847
101642.067
101642.322
101642.612
101642.944
101643.332
101643.762
101644.226
101644.932
101645.597
101646.005
101647.191
101648.448
101648.433
101649.616
101650.807
101652.43
101657.004
101659.981
101663.193
101665.332
101639.638
101639.631
101639.623
101639.616
101639.609
101639.604
101639.599
101639.594
101639.591
101639.588
101639.586
101639.584
101639.584
101639.584
101639.586
101639.588
101639.591
101639.595
101639.599
101639.605
101639.612
101639.619
101639.627
101639.636
101639.645
101639.655
101639.666
101639.677
101639.688
101639.699
101639.713
101639.731
101639.751
101639.774
101639.788
101639.79
101639.792
101639.8
101639.817
101639.835
101639.853
101639.873
101639.891
101639.904
101639.926
101639.964
101640.016
101640.043
101640.047
101640.081
101640.137
101640.196
101640.259
101640.332
101640.419
101640.527
101640.66
101640.819
101641.007
101641.228
101641.488
101641.797
101642.16
101642.579
101643.063
101643.634
101644.213
101645.056
101646.085
101646.965
101648.114
101649.355
101650.684
101653.227
101656.281
101659.221
101661.387
101663.665
101665.536
101667.324
101638.598
101638.593
101638.587
101638.581
101638.577
101638.573
101638.57
101638.567
101638.566
101638.565
101638.565
101638.566
101638.568
101638.571
101638.575
101638.58
101638.586
101638.593
101638.601
101638.61
101638.621
101638.632
101638.645
101638.658
101638.672
101638.687
101638.704
101638.722
101638.742
101638.764
101638.784
101638.799
101638.814
101638.829
101638.848
101638.873
101638.898
101638.922
101638.948
101638.972
101638.991
101639.022
101639.075
101639.122
101639.132
101639.145
101639.184
101639.237
101639.286
101639.336
101639.394
101639.464
101639.549
101639.648
101639.765
101639.904
101640.073
101640.279
101640.528
101640.828
101641.184
101641.601
101642.093
101642.67
101643.306
101644.049
101644.776
101645.625
101646.509
101647.73
101650.188
101653.208
101655.4
101656.429
101657.943
101660.737
101662.572
101663.696
101665.624
101667.215
101637.487
101637.482
101637.477
101637.473
101637.47
101637.467
101637.465
101637.464
101637.464
101637.465
101637.467
101637.471
101637.475
101637.481
101637.488
101637.497
101637.506
101637.518
101637.53
101637.545
101637.559
101637.575
101637.592
101637.611
101637.632
101637.655
101637.679
101637.703
101637.729
101637.754
101637.783
101637.814
101637.847
101637.88
101637.913
101637.948
101637.981
101638.01
101638.05
101638.109
101638.15
101638.17
101638.205
101638.254
101638.306
101638.354
101638.405
101638.462
101638.527
101638.6
101638.683
101638.778
101638.89
101639.024
101639.188
101639.387
101639.627
101639.915
101640.263
101640.683
101641.193
101641.801
101642.525
101643.379
101644.364
101645.488
101646.853
101648.124
101650.351
101652.293
101653.295
101654.095
101655.44
101657.764
101659.705
101661.107
101662.988
101665.329
101667.468
101669.73
101636.292
101636.287
101636.283
101636.279
101636.276
101636.274
101636.274
101636.274
101636.275
101636.278
101636.282
101636.288
101636.295
101636.304
101636.314
101636.327
101636.341
101636.356
101636.372
101636.39
101636.412
101636.437
101636.464
101636.493
101636.523
101636.554
101636.588
101636.623
101636.66
101636.698
101636.738
101636.779
101636.822
101636.865
101636.904
101636.953
101637.019
101637.069
101637.102
101637.149
101637.208
101637.265
101637.322
101637.382
101637.446
101637.514
101637.588
101637.668
101637.759
101637.863
101637.985
101638.129
101638.301
101638.507
101638.752
101639.043
101639.384
101639.783
101640.26
101640.824
101641.517
101642.345
101643.352
101644.408
101645.468
101646.813
101648.765
101650.592
101651.562
101652.742
101654.592
101656.234
101657.863
101659.668
101661.661
101663.788
101666.008
101668.055
101670.003
101671.708
101634.994
101634.989
101634.984
101634.981
101634.979
101634.978
101634.978
101634.98
101634.983
101634.988
101634.994
101635.002
101635.011
101635.023
101635.037
101635.053
101635.072
101635.094
101635.119
101635.146
101635.174
101635.205
101635.238
101635.274
101635.312
101635.352
101635.395
101635.439
101635.486
101635.536
101635.586
101635.634
101635.691
101635.763
101635.821
101635.866
101635.924
101635.993
101636.06
101636.128
101636.197
101636.269
101636.345
101636.426
101636.514
101636.61
101636.717
101636.838
101636.978
101637.141
101637.333
101637.56
101637.828
101638.142
101638.508
101638.93
101639.413
101639.955
101640.57
101641.199
101641.908
101642.605
101643.576
101645.502
101647.696
101649.389
101650.513
101651.562
101653.031
101655.157
101656.843
101658.067
101659.759
101661.807
101664.101
101665.734
101667.063
101668.57
101670.274
101672.132
101633.548
101633.543
101633.539
101633.536
101633.534
101633.535
101633.536
101633.54
101633.546
101633.553
101633.563
101633.575
101633.59
101633.607
101633.627
101633.648
101633.673
101633.7
101633.729
101633.762
101633.798
101633.836
101633.877
101633.921
101633.968
101634.018
101634.07
101634.125
101634.179
101634.24
101634.315
101634.38
101634.434
101634.501
101634.578
101634.653
101634.729
101634.808
101634.889
101634.975
101635.065
101635.161
101635.265
101635.378
101635.503
101635.645
101635.806
101635.993
101636.211
101636.468
101636.77
101637.123
101637.535
101638.012
101638.565
101639.208
101639.924
101640.735
101641.676
101642.588
101643.74
101645.913
101647.984
101648.962
101649.528
101650.296
101651.409
101653.436
101655.893
101657.383
101658.511
101660.56
101662.417
101663.568
101664.799
101666.169
101668
101669.737
101671.675
101672.855
101631.924
101631.92
101631.917
101631.916
101631.916
101631.918
101631.923
101631.929
101631.938
101631.95
101631.964
101631.981
101632
101632.021
101632.046
101632.073
101632.104
101632.138
101632.175
101632.215
101632.258
101632.305
101632.355
101632.408
101632.464
101632.52
101632.583
101632.659
101632.727
101632.788
101632.861
101632.942
101633.023
101633.105
101633.191
101633.28
101633.373
101633.471
101633.575
101633.686
101633.805
101633.935
101634.079
101634.24
101634.423
101634.633
101634.876
101635.159
101635.49
101635.875
101636.322
101636.842
101637.45
101638.156
101638.97
101639.981
101641.032
101642.105
101643.446
101644.954
101646.425
101647.489
101648.269
101649.34
101650.86
101652.44
101654.107
101655.708
101657.277
101658.704
101660.166
101661.552
101662.833
101664.397
101665.761
101667.391
101669.6
101671.603
101674.125
101677.174
101630.087
101630.085
101630.084
101630.085
101630.089
101630.095
101630.103
101630.114
101630.127
101630.143
101630.162
101630.183
101630.208
101630.236
101630.268
101630.303
101630.341
101630.382
101630.427
101630.476
101630.528
101630.584
101630.641
101630.704
101630.779
101630.848
101630.913
101630.989
101631.072
101631.157
101631.243
101631.334
101631.428
101631.527
101631.631
101631.741
101631.857
101631.982
101632.116
101632.263
101632.426
101632.607
101632.812
101633.045
101633.311
101633.617
101633.968
101634.37
101634.825
101635.334
101635.895
101636.506
101637.171
101637.852
101638.466
101639.437
101641.257
101643.061
101644.255
101645.429
101646.838
101648.171
101649.498
101650.773
101652.148
101653.41
101654.667
101656.276
101657.722
101659.21
101660.815
101662.249
101663.944
101665.959
101668.183
101670.511
101672.913
101675.452
101677.313
101678.757
101627.998
101628
101628.003
101628.008
101628.016
101628.027
101628.04
101628.056
101628.075
101628.097
101628.122
101628.151
101628.184
101628.22
101628.259
101628.303
101628.35
101628.401
101628.455
101628.511
101628.574
101628.647
101628.717
101628.785
101628.862
101628.947
101629.033
101629.122
101629.216
101629.313
101629.416
101629.524
101629.637
101629.758
101629.886
101630.025
101630.175
101630.34
101630.523
101630.727
101630.958
101631.221
101631.521
101631.864
101632.258
101632.708
101633.221
101633.803
101634.461
101635.203
101636.039
101636.968
101638.042
101639.203
101640.548
101641.79
101642.48
101643.178
101644.48
101646.124
101647.571
101648.821
101650.055
101651.387
101652.76
101654.431
101656.152
101657.64
101659.201
101661.029
101663.174
101665.271
101667.197
101669.182
101671.007
101672.703
101674.642
101676.588
101678.14
101679.897
101625.621
101625.627
101625.636
101625.647
101625.66
101625.677
101625.697
101625.72
101625.747
101625.777
101625.811
101625.848
101625.89
101625.935
101625.985
101626.037
101626.095
101626.161
101626.232
101626.298
101626.368
101626.446
101626.531
101626.618
101626.709
101626.804
101626.904
101627.009
101627.119
101627.235
101627.358
101627.489
101627.628
101627.779
101627.944
101628.125
101628.325
101628.551
101628.805
101629.094
101629.423
101629.799
101630.229
101630.72
101631.279
101631.911
101632.622
101633.415
101634.295
101635.257
101636.303
101637.427
101638.58
101639.837
101641.127
101642.396
101643.848
101645.124
101646.149
101647.384
101648.887
101650.408
101651.762
101653.245
101654.949
101656.42
101658.132
101660.354
101662.3
101664.016
101665.874
101667.505
101669.007
101670.706
101672.507
101674.203
101675.912
101677.947
101680.039
101681.95
101622.919
101622.931
101622.947
101622.966
101622.987
101623.012
101623.04
101623.072
101623.108
101623.148
101623.192
101623.24
101623.292
101623.349
101623.412
101623.478
101623.546
101623.62
101623.7
101623.785
101623.872
101623.964
101624.061
101624.162
101624.269
101624.38
101624.497
101624.621
101624.751
101624.89
101625.039
101625.2
101625.375
101625.568
101625.781
101626.02
101626.288
101626.591
101626.935
101627.325
101627.769
101628.271
101628.838
101629.475
101630.185
101630.968
101631.827
101632.765
101633.783
101634.889
101636.067
101637.326
101638.631
101639.939
101641.252
101642.556
101643.703
101645.281
101647.29
101648.681
101649.862
101651.234
101653.097
101654.83
101656.405
101658.338
101660.076
101661.43
101663.037
101664.739
101666.228
101667.773
101669.521
101671.248
101673.176
101675.345
101677.526
101679.83
101682.042
101684.314
101619.853
101619.873
101619.898
101619.926
101619.957
101619.992
101620.031
101620.073
101620.12
101620.172
101620.228
101620.29
101620.355
101620.423
101620.498
101620.578
101620.662
101620.751
101620.844
101620.942
101621.045
101621.154
101621.267
101621.386
101621.512
101621.645
101621.786
101621.936
101622.097
101622.272
101622.462
101622.672
101622.904
101623.164
101623.456
101623.784
101624.156
101624.576
101625.051
101625.586
101626.187
101626.858
101627.603
101628.424
101629.314
101630.271
101631.29
101632.319
101633.33
101634.557
101636.135
101637.77
101639.296
101640.795
101642.516
101644.211
101645.724
101646.854
101647.821
101649.345
101651.111
101652.405
101653.702
101655.687
101657.719
101658.915
101659.997
101661.448
101663.393
101665.363
101667.055
101669.117
101671.703
101674.228
101676.556
101678.691
101680.481
101682.244
101683.926
101685.632
101616.39
101616.419
101616.456
101616.495
101616.537
101616.584
101616.635
101616.691
101616.752
101616.817
101616.886
101616.961
101617.041
101617.126
101617.216
101617.311
101617.411
101617.517
101617.627
101617.744
101617.867
101617.996
101618.132
101618.277
101618.431
101618.596
101618.774
101618.967
101619.178
101619.411
101619.669
101619.957
101620.28
101620.644
101621.053
101621.513
101622.03
101622.61
101623.255
101623.969
101624.755
101625.612
101626.542
101627.535
101628.567
101629.675
101631.185
101633.204
101635.341
101637.052
101638.373
101639.569
101640.667
101641.811
101643.002
101644.235
101645.48
101646.734
101648.273
101649.722
101650.928
101652.967
101655.155
101656.254
101657.596
101659.935
101662.189
101664.342
101666.344
101668.444
101670.652
101672.731
101674.612
101676.353
101678.308
101680.727
101682.643
101684.169
101685.884
101687.566
101612.499
101612.54
101612.59
101612.642
101612.698
101612.759
101612.824
101612.894
101612.97
101613.05
101613.135
101613.225
101613.321
101613.422
101613.529
101613.641
101613.759
101613.883
101614.014
101614.153
101614.299
101614.455
101614.621
101614.8
101614.993
101615.203
101615.434
101615.689
101615.972
101616.289
101616.644
101617.044
101617.494
101618.001
101618.57
101619.208
101619.921
101620.713
101621.588
101622.55
101623.601
101624.743
101625.978
101627.304
101628.693
101630.146
101631.453
101632.556
101633.62
101634.829
101636.292
101637.803
101639.358
101640.961
101642.571
101644.376
101646.367
101648.14
101649.828
101651.587
101653.461
101655.033
101656.435
101658.352
101660.53
101662.38
101664.361
101666.276
101667.966
101669.59
101671.665
101673.867
101675.728
101677.953
101680.192
101681.558
101683.263
101686.145
101688.523
101689.593
101608.172
101608.227
101608.292
101608.359
101608.43
101608.506
101608.586
101608.671
101608.762
101608.857
101608.958
101609.065
101609.177
101609.294
101609.418
101609.549
101609.687
101609.833
101609.987
101610.151
101610.327
101610.517
101610.722
101610.946
101611.192
101611.464
101611.766
101612.103
101612.481
101612.905
101613.38
101613.913
101614.51
101615.174
101615.91
101616.722
101617.61
101618.575
101619.614
101620.723
101621.896
101623.124
101624.394
101625.703
101627.065
101628.38
101629.892
101631.775
101633.44
101634.934
101636.549
101638.208
101639.934
101641.64
101643.31
101645.065
101646.944
101649.097
101651.04
101652.509
101654.134
101656.114
101658.204
101659.944
101661.6
101663.36
101665.379
101667.323
101669.058
101670.729
101672.722
101675.253
101677.742
101680.387
101683.179
101685.703
101687.682
101689.525
101690.649
101691.728
101603.426
101603.496
101603.577
101603.661
101603.747
101603.839
101603.935
101604.036
101604.142
101604.253
101604.371
101604.493
101604.623
101604.759
101604.902
101605.054
101605.215
101605.386
101605.57
101605.768
101605.984
101606.219
101606.477
101606.763
101607.081
101607.435
101607.833
101608.278
101608.778
101609.338
101609.963
101610.66
101611.432
101612.285
101613.219
101614.236
101615.338
101616.523
101617.786
101619.125
101620.536
101622.016
101623.557
101625.152
101626.784
101628.493
101629.875
101631.095
101632.93
101635.077
101637.066
101639.309
101641.019
101642.378
101643.813
101645.586
101647.803
101649.853
101651.383
101652.798
101654.509
101656.755
101659.331
101661.502
101663.364
101665.201
101667.175
101669.293
101671.638
101674.097
101676.666
101679.176
101681.074
101682.915
101685.06
101686.803
101688.883
101691.389
101692.843
101694.307
101598.339
101598.425
101598.525
101598.625
101598.728
101598.836
101598.949
101599.067
101599.19
101599.319
101599.455
101599.597
101599.748
101599.907
101600.077
101600.258
101600.452
101600.663
101600.892
101601.142
101601.419
101601.725
101602.066
101602.446
101602.873
101603.351
101603.886
101604.485
101605.154
101605.898
101606.721
101607.627
101608.62
101609.7
101610.869
101612.125
101613.472
101614.901
101616.413
101617.988
101619.584
101621.19
101622.7
101624.018
101625.802
101628.268
101630.892
101633.236
101635.284
101637.013
101638.305
101639.604
101641.329
101643.418
101645.462
101647.101
101648.215
101649.423
101651.698
101654.877
101657.591
101659.205
101660.11
101661.738
101664.602
101667.422
101669.782
101671.945
101674.306
101676.792
101678.63
101680.159
101682.565
101685.274
101687.018
101688.677
101690.416
101692.269
101694.116
101696.143
101593.008
101593.11
101593.228
101593.345
101593.466
101593.591
101593.722
101593.859
101594.003
101594.154
101594.314
101594.483
101594.664
101594.857
101595.066
101595.293
101595.54
101595.812
101596.112
101596.445
101596.816
101597.23
101597.694
101598.213
101598.793
101599.441
101600.161
101600.957
101601.834
101602.792
101603.832
101604.952
101606.148
101607.412
101608.733
101610.087
101611.461
101612.949
101614.89
101617.307
101619.801
101622.223
101624.708
101627.384
101629.774
101631.317
101632.324
101633.236
101634.226
101636.005
101638.795
101640.968
101642.109
101643.699
101646.216
101648.851
101651.629
101653.64
101654.878
101656.012
101657.719
101660.151
101662.824
101664.88
101666.354
101667.849
101670.27
101673.413
101675.849
101678.368
101681.159
101683.691
101685.531
101686.631
101688.151
101690.465
101692.8
101695.145
101696.748
101698.607
101632.641
101632.647
101632.654
101632.661
101632.669
101632.676
101632.684
101632.692
101632.7
101632.708
101632.716
101632.724
101632.733
101632.741
101632.75
101632.759
101632.767
101632.776
101632.785
101632.794
101632.803
101632.812
101632.821
101632.83
101632.839
101632.848
101632.856
101632.864
101632.873
101632.88
101632.888
101632.895
101632.901
101632.907
101632.912
101632.916
101632.92
101632.922
101632.924
101632.924
101632.923
101632.92
101632.915
101632.908
101632.899
101632.887
101632.872
101632.853
101632.828
101632.798
101632.761
101632.715
101632.66
101632.596
101632.524
101632.44
101632.346
101632.233
101632.095
101631.933
101631.742
101631.517
101631.252
101630.937
101630.583
101630.204
101629.751
101629.234
101628.69
101628.003
101627.127
101626.162
101625.077
101623.743
101622.027
101620.383
101618.937
101617.542
101615.915
101613.146
101633.632
101633.639
101633.646
101633.654
101633.662
101633.67
101633.678
101633.686
101633.694
101633.703
101633.711
101633.719
101633.728
101633.736
101633.745
101633.753
101633.762
101633.77
101633.778
101633.786
101633.794
101633.802
101633.81
101633.818
101633.825
101633.832
101633.838
101633.845
101633.85
101633.855
101633.86
101633.864
101633.867
101633.869
101633.87
101633.87
101633.868
101633.866
101633.862
101633.856
101633.848
101633.837
101633.825
101633.81
101633.792
101633.77
101633.745
101633.715
101633.68
101633.64
101633.593
101633.538
101633.472
101633.398
101633.312
101633.211
101633.092
101632.964
101632.824
101632.664
101632.481
101632.27
101632.026
101631.746
101631.402
101630.971
101630.497
101629.937
101629.223
101628.458
101627.648
101626.716
101625.646
101624.441
101623.08
101621.385
101619.305
101616.815
101614.741
101612.992
101634.613
101634.62
101634.628
101634.637
101634.645
101634.653
101634.662
101634.671
101634.679
101634.688
101634.697
101634.706
101634.715
101634.723
101634.732
101634.741
101634.749
101634.758
101634.767
101634.775
101634.783
101634.791
101634.799
101634.806
101634.814
101634.82
101634.827
101634.833
101634.838
101634.843
101634.847
101634.85
101634.853
101634.854
101634.854
101634.853
101634.851
101634.847
101634.842
101634.835
101634.826
101634.815
101634.802
101634.786
101634.767
101634.745
101634.719
101634.689
101634.655
101634.615
101634.569
101634.516
101634.455
101634.385
101634.305
101634.213
101634.105
101633.98
101633.838
101633.676
101633.491
101633.281
101633.039
101632.761
101632.436
101632.051
101631.594
101631.063
101630.433
101629.689
101628.845
101627.878
101626.775
101625.526
101624.123
101622.557
101620.77
101618.754
101616.249
101613.288
101635.594
101635.602
101635.611
101635.619
101635.628
101635.637
101635.646
101635.655
101635.665
101635.674
101635.683
101635.693
101635.702
101635.712
101635.721
101635.731
101635.74
101635.75
101635.759
101635.768
101635.777
101635.786
101635.795
101635.804
101635.812
101635.82
101635.827
101635.834
101635.841
101635.847
101635.853
101635.857
101635.861
101635.864
101635.867
101635.868
101635.867
101635.866
101635.863
101635.859
101635.852
101635.844
101635.834
101635.822
101635.807
101635.789
101635.768
101635.744
101635.716
101635.683
101635.645
101635.601
101635.551
101635.492
101635.425
101635.349
101635.261
101635.161
101635.046
101634.914
101634.761
101634.583
101634.373
101634.125
101633.831
101633.481
101633.063
101632.567
101631.98
101631.285
101630.474
101629.535
101628.457
101627.23
101625.84
101624.266
101622.49
101620.493
101618.21
101615.517
101636.563
101636.57
101636.579
101636.588
101636.598
101636.607
101636.617
101636.626
101636.636
101636.646
101636.657
101636.667
101636.677
101636.688
101636.698
101636.709
101636.72
101636.731
101636.742
101636.752
101636.763
101636.774
101636.785
101636.795
101636.806
101636.816
101636.826
101636.836
101636.845
101636.855
101636.863
101636.871
101636.879
101636.886
101636.893
101636.898
101636.903
101636.907
101636.91
101636.912
101636.912
101636.911
101636.909
101636.906
101636.9
101636.893
101636.884
101636.872
101636.858
101636.841
101636.821
101636.796
101636.766
101636.73
101636.688
101636.638
101636.579
101636.51
101636.43
101636.335
101636.223
101636.09
101635.932
101635.741
101635.51
101635.229
101634.886
101634.47
101633.965
101633.358
101632.636
101631.788
101630.803
101629.673
101628.384
101626.925
101625.288
101623.461
101621.423
101619.151
101637.517
101637.525
101637.534
101637.543
101637.552
101637.562
101637.572
101637.582
101637.593
101637.604
101637.615
101637.626
101637.637
101637.649
101637.661
101637.673
101637.685
101637.697
101637.71
101637.722
101637.735
101637.748
101637.761
101637.774
101637.787
101637.801
101637.814
101637.827
101637.84
101637.853
101637.866
101637.879
101637.892
101637.904
101637.916
101637.928
101637.94
101637.951
101637.962
101637.973
101637.983
101637.992
101638.002
101638.01
101638.019
101638.026
101638.033
101638.039
101638.045
101638.049
101638.052
101638.053
101638.052
101638.048
101638.04
101638.028
101638.01
101637.986
101637.954
101637.911
101637.856
101637.785
101637.693
101637.576
101637.426
101637.235
101636.991
101636.682
101636.294
101635.811
101635.218
101634.5
101633.643
101632.635
101631.464
101630.126
101628.614
101626.908
101625.033
101622.904
101638.437
101638.445
101638.454
101638.463
101638.472
101638.482
101638.492
101638.503
101638.514
101638.526
101638.537
101638.549
101638.562
101638.574
101638.587
101638.601
101638.615
101638.629
101638.643
101638.658
101638.673
101638.688
101638.704
101638.719
101638.736
101638.752
101638.769
101638.786
101638.803
101638.821
101638.839
101638.857
101638.875
101638.894
101638.912
101638.932
101638.951
101638.971
101638.991
101639.012
101639.033
101639.055
101639.077
101639.1
101639.124
101639.149
101639.175
101639.201
101639.229
101639.258
101639.288
101639.319
101639.35
101639.382
101639.414
101639.445
101639.475
101639.502
101639.526
101639.545
101639.556
101639.558
101639.547
101639.517
101639.464
101639.379
101639.252
101639.073
101638.828
101638.501
101638.075
101637.531
101636.852
101636.019
101635.021
101633.849
101632.5
101630.954
101629.213
101627.222
101639.317
101639.324
101639.333
101639.342
101639.351
101639.361
101639.371
101639.382
101639.393
101639.404
101639.417
101639.429
101639.442
101639.456
101639.47
101639.484
101639.499
101639.514
101639.53
101639.547
101639.564
101639.581
101639.599
101639.617
101639.636
101639.656
101639.676
101639.696
101639.717
101639.739
101639.762
101639.785
101639.809
101639.833
101639.859
101639.885
101639.912
101639.941
101639.97
101640.001
101640.034
101640.068
101640.104
101640.142
101640.183
101640.225
101640.271
101640.319
101640.371
101640.426
101640.485
101640.547
101640.614
101640.684
101640.758
101640.835
101640.915
101640.998
101641.082
101641.167
101641.251
101641.332
101641.407
101641.473
101641.524
101641.555
101641.556
101641.519
101641.43
101641.275
101641.036
101640.694
101640.224
101639.608
101638.833
101637.888
101636.746
101635.398
101633.812
101631.972
101640.137
101640.143
101640.151
101640.159
101640.168
101640.177
101640.187
101640.197
101640.208
101640.22
101640.232
101640.245
101640.258
101640.272
101640.287
101640.302
101640.318
101640.334
101640.351
101640.368
101640.387
101640.406
101640.425
101640.446
101640.467
101640.489
101640.511
101640.535
101640.56
101640.585
101640.612
101640.639
101640.668
101640.698
101640.73
101640.763
101640.798
101640.834
101640.873
101640.914
101640.957
101641.003
101641.052
101641.105
101641.161
101641.221
101641.286
101641.356
101641.431
101641.512
101641.599
101641.693
101641.794
101641.902
101642.019
101642.142
101642.274
101642.413
101642.559
101642.712
101642.87
101643.032
101643.197
101643.361
101643.52
101643.67
101643.803
101643.911
101643.984
101644.009
101643.97
101643.847
101643.618
101643.266
101642.778
101642.134
101641.297
101640.266
101638.943
101637.459
101640.891
101640.896
101640.903
101640.91
101640.918
101640.926
101640.935
101640.945
101640.955
101640.966
101640.978
101640.991
101641.004
101641.017
101641.032
101641.047
101641.063
101641.079
101641.097
101641.115
101641.134
101641.154
101641.175
101641.196
101641.219
101641.242
101641.267
101641.292
101641.319
101641.348
101641.378
101641.409
101641.441
101641.475
101641.511
101641.549
101641.59
101641.633
101641.679
101641.728
101641.78
101641.837
101641.897
101641.962
101642.032
101642.108
101642.191
101642.28
101642.376
101642.481
101642.594
101642.717
101642.85
101642.994
101643.149
101643.317
101643.496
101643.688
101643.893
101644.11
101644.34
101644.582
101644.833
101645.093
101645.357
101645.623
101645.885
101646.136
101646.367
101646.568
101646.723
101646.818
101646.83
101646.745
101646.55
101646.228
101645.748
101645.089
101644.219
101643.129
101641.562
101641.566
101641.571
101641.577
101641.583
101641.59
101641.598
101641.607
101641.616
101641.626
101641.637
101641.648
101641.66
101641.673
101641.687
101641.702
101641.717
101641.734
101641.751
101641.769
101641.788
101641.807
101641.828
101641.85
101641.873
101641.897
101641.923
101641.949
101641.977
101642.007
101642.038
101642.071
101642.106
101642.143
101642.183
101642.225
101642.27
101642.319
101642.371
101642.426
101642.486
101642.55
101642.62
101642.695
101642.777
101642.866
101642.962
101643.067
101643.182
101643.307
101643.443
101643.591
101643.752
101643.927
101644.117
101644.322
101644.543
101644.782
101645.038
101645.312
101645.605
101645.916
101646.245
101646.591
101646.951
101647.323
101647.703
101648.086
101648.463
101648.826
101649.164
101649.461
101649.701
101649.861
101649.932
101649.907
101649.765
101649.468
101649.032
101648.25
101642.15
101642.152
101642.154
101642.158
101642.162
101642.167
101642.173
101642.18
101642.187
101642.195
101642.204
101642.214
101642.224
101642.235
101642.248
101642.26
101642.274
101642.289
101642.305
101642.322
101642.34
101642.359
101642.379
101642.401
101642.424
101642.448
101642.474
101642.501
101642.53
101642.559
101642.592
101642.627
101642.664
101642.703
101642.745
101642.79
101642.837
101642.888
101642.944
101643.003
101643.068
101643.138
101643.215
101643.298
101643.388
101643.487
101643.595
101643.712
101643.839
101643.978
101644.13
101644.296
101644.478
101644.676
101644.892
101645.127
101645.381
101645.657
101645.955
101646.276
101646.621
101646.991
101647.384
101647.8
101648.239
101648.699
101649.177
101649.669
101650.171
101650.674
101651.169
101651.645
101652.087
101652.477
101652.795
101653.03
101653.18
101653.223
101653.157
101652.808
101642.637
101642.637
101642.637
101642.638
101642.639
101642.642
101642.645
101642.65
101642.655
101642.661
101642.668
101642.675
101642.684
101642.694
101642.704
101642.716
101642.728
101642.742
101642.756
101642.772
101642.788
101642.806
101642.825
101642.845
101642.867
101642.89
101642.915
101642.942
101642.97
101643
101643.032
101643.066
101643.103
101643.142
101643.185
101643.23
101643.28
101643.334
101643.392
101643.454
101643.522
101643.595
101643.674
101643.76
101643.854
101643.955
101644.066
101644.185
101644.316
101644.459
101644.625
101644.812
101645.015
101645.236
101645.475
101645.734
101646.015
101646.318
101646.643
101646.992
101647.367
101647.772
101648.207
101648.671
101649.164
101649.685
101650.233
101650.803
101651.394
101651.998
101652.609
101653.217
101653.812
101654.38
101654.908
101655.382
101655.785
101656.107
101656.379
101656.507
101643.023
101643.019
101643.016
101643.014
101643.013
101643.012
101643.013
101643.014
101643.016
101643.019
101643.023
101643.028
101643.034
101643.041
101643.049
101643.058
101643.068
101643.079
101643.092
101643.105
101643.12
101643.136
101643.153
101643.172
101643.192
101643.213
101643.235
101643.259
101643.286
101643.315
101643.346
101643.379
101643.414
101643.451
101643.492
101643.536
101643.584
101643.635
101643.691
101643.752
101643.819
101643.893
101643.974
101644.065
101644.165
101644.277
101644.402
101644.544
101644.699
101644.862