/*--------------------------------*- C++ -*----------------------------------*\
  =========                 |
  \\      /  F ield         | OpenFOAM: The Open Source CFD Toolbox
   \\    /   O peration     | Website:  https://openfoam.org
    \\  /    A nd           | Version:  8
     \\/     M anipulation  |
\*---------------------------------------------------------------------------*/
FoamFile
{
    version     2.0;
    format      ascii;
    class       volVectorField;
    location    "0.079";
    object      U;
}
// * * * * * * * * * * * * * * * * * * * * * * * * * * * * * * * * * * * * * //

dimensions      [0 1 -1 0 0 0 0];

internalField   nonuniform List<vector> 
42400
(
(-0.0192608831 0.0184302333 -9.42128733e-27)
(-0.0561063192 0.0526761386 3.11298521e-26)
(-0.0922631559 0.0850535258 3.12136086e-26)
(-0.12810715 0.11587873 0)
(-0.163890708 0.145416494 0)
(-0.199782944 0.173824032 -1.53798116e-27)
(-0.235878328 0.201175867 0)
(-0.272216535 0.227492744 1.70729813e-27)
(-0.308801901 0.252761968 0)
(-0.345617 0.276951203 1.89547087e-27)
(-0.382630699 0.300017641 1.9972562e-27)
(-0.419802818 0.321914047 -2.1045355e-27)
(-0.457086886 0.342592832 -1.12363629e-26)
(-0.494431843 0.362008897 -8.26721024e-27)
(-0.531783155 0.380121724 -2.46229376e-27)
(-0.569083625 0.396896973 0)
(-0.606274012 0.412307754 0)
(-0.643293505 0.42633563 0)
(-0.680080057 0.438971413 0)
(-0.716570557 0.450215753 0)
(-0.752700813 0.460079552 0)
(-0.788405331 0.468584197 -7.10271651e-27)
(-0.82361683 0.475761629 1.71110357e-26)
(-0.858265485 0.481654238 4.9271653e-26)
(-0.892277836 0.486314575 3.25543498e-26)
(-0.925575327 0.489804884 -8.7568887e-27)
(-0.958072433 0.492196417 -9.22807603e-27)
(-0.989674295 0.493568569 1.94502434e-26)
(-1.02027373 0.494007865 0)
(-1.04974741 0.493606918 0)
(-1.07795149 0.492463408 -5.5989396e-26)
(-1.10471768 0.490678526 -5.98436052e-26)
(-1.12984732 0.488352315 2.53334256e-26)
(-1.15309976 0.485575938 6.70638667e-26)
(-1.17418407 0.482417182 4.06478777e-26)
(-1.19284937 0.478956979 0)
(-1.20889149 0.475332889 0)
(-1.22155867 0.472247362 0)
(-1.23070632 0.468500916 0)
(-1.23530674 0.465216074 1.84055152e-25)
(-1.23602608 0.46107908 7.5984537e-26)
(-1.2304604 0.458767982 -7.40859887e-27)
(-1.21790773 0.456929156 4.35544234e-26)
(-1.19687965 0.455099297 -9.45867359e-26)
(-1.16425508 0.454033385 -4.55596679e-26)
(-1.11969257 0.451653007 -3.35141721e-25)
(-1.06028957 0.449337543 1.12045551e-25)
(-0.983960216 0.447103865 1.70337786e-25)
(-0.88824294 0.444843971 1.22433912e-25)
(-0.770571725 0.442560642 3.24350404e-25)
(-0.628925049 0.439867495 7.02573977e-33)
(-0.457593882 0.437057463 -9.85569088e-25)
(-0.257963654 0.434233822 -1.13214731e-24)
(-0.0180593188 0.433222098 3.18133244e-25)
(0.25345297 0.434082497 0)
(0.582602241 0.432361722 0)
(0.969807665 0.427388941 0)
(1.41599791 0.421187499 -4.08050496e-25)
(1.92956623 0.415135449 -4.28295147e-25)
(2.51774843 0.408676652 0)
(3.1847816 0.401464369 5.16366244e-24)
(3.93516775 0.39346548 6.68195758e-24)
(4.77405209 0.384499323 -7.3157991e-24)
(5.70525175 0.375267985 -8.38787999e-24)
(6.73065094 0.368095945 0)
(7.84593346 0.3610967 0)
(9.06734624 0.327619428 -9.26787337e-24)
(10.3920633 0.303814383 -7.71254886e-24)
(11.5990476 0.44788182 -4.14716062e-25)
(13.0813786 0.318596605 0)
(14.8625344 -0.147875109 0)
(15.5924662 0.734579813 5.75401424e-26)
(16.5571549 1.60230239 -6.00970421e-26)
(18.8684891 -0.338700255 0)
(20.8643025 -1.34509451 -5.07736099e-25)
(21.3994961 0.0229138825 8.01671258e-24)
(21.0645312 2.20166902 -1.05080292e-23)
(22.533746 1.40714782 -2.06205072e-24)
(23.462407 -0.181780016 -5.85679762e-24)
(23.5888421 -0.292731343 -3.05621625e-23)
(-0.0236293023 0.0209284886 0)
(-0.0686574679 0.0600344034 2.49672949e-26)
(-0.112571502 0.0972240699 2.40224452e-26)
(-0.155761956 0.132811971 0)
(-0.198517596 0.167070008 0)
(-0.241033897 0.200169447 1.89005002e-26)
(-0.28342486 0.232200042 1.92736808e-26)
(-0.325740837 0.263194639 1.95994269e-27)
(-0.367987461 0.293147474 0)
(-0.410139691 0.322027406 2.1727094e-27)
(-0.452150932 0.349787336 2.28745897e-27)
(-0.493959055 0.376371046 -9.24476552e-27)
(-0.535490603 0.401718316 -1.07957681e-26)
(-0.576663837 0.425768889 -3.90808817e-27)
(-0.617391006 0.44846559 -1.82594189e-27)
(-0.657580033 0.469756801 3.81403754e-27)
(-0.69713572 0.489598409 0)
(-0.735960537 0.507955305 6.55178308e-27)
(-0.773955008 0.52480248 0)
(-0.811017717 0.540125796 0)
(-0.84704494 0.55392245 0)
(-0.881929912 0.566201192 1.47847721e-26)
(-0.915561701 0.576982332 4.43502009e-26)
(-0.947823702 0.586297576 2.99667696e-26)
(-0.978591697 0.594189763 0)
(-1.00773147 0.600712543 -1.96071455e-26)
(-1.03509598 0.605929949 -1.0290585e-26)
(-1.06052168 0.609915093 2.16265435e-26)
(-1.08382351 0.612747646 4.64569198e-26)
(-1.10478619 0.614510168 4.95239938e-26)
(-1.12315146 0.615286415 -2.51266655e-26)
(-1.13864439 0.615169196 -2.63107016e-26)
(-1.15100322 0.614244813 1.06300252e-25)
(-1.15997667 0.612566408 6.89075217e-26)
(-1.164984 0.610770948 -1.42433111e-25)
(-1.16616266 0.60832676 -1.81484925e-25)
(-1.16229304 0.605753037 0)
(-1.15364761 0.602266557 3.51230243e-26)
(-1.13816666 0.599626615 0)
(-1.11498739 0.596705986 7.87088078e-26)
(-1.08192389 0.593798038 1.42204868e-25)
(-1.03807513 0.590017117 1.16448489e-25)
(-0.981847349 0.585939604 8.97814919e-26)
(-0.911457865 0.5818535 -9.32814498e-26)
(-0.824844244 0.577791372 1.94696158e-25)
(-0.719699699 0.573507975 -1.01100219e-25)
(-0.593095888 0.568804611 1.04499152e-25)
(-0.444636217 0.56347035 1.51345593e-25)
(-0.268060795 0.558221196 5.63697458e-25)
(-0.0622967707 0.554684984 0)
(0.1694312 0.553674661 -1.24158478e-25)
(0.450083842 0.550616472 2.63200155e-25)
(0.780111426 0.544648464 2.60710129e-25)
(1.16318287 0.537675096 1.09988553e-24)
(1.60395985 0.531158902 3.09098929e-25)
(2.11012006 0.525116075 2.5044639e-24)
(2.68619829 0.519063121 2.91104765e-24)
(3.33711233 0.513101606 -3.22603776e-25)
(4.06807295 0.507494571 -3.28232635e-25)
(4.88415279 0.502318653 4.71496209e-24)
(5.78870726 0.498649307 5.54329974e-24)
(6.78341442 0.49757674 2.93431794e-25)
(7.86803495 0.499063263 -2.7453744e-25)
(9.03878436 0.501266037 0)
(10.2882586 0.504833003 -7.08883011e-24)
(11.5810448 0.528396838 -1.29636094e-23)
(12.9282067 0.528430262 -7.71058671e-24)
(14.420448 0.42287657 0)
(15.6801299 0.561556737 2.70631469e-26)
(16.8256626 0.876118035 1.10475792e-25)
(18.6048029 0.297572225 1.02987685e-23)
(19.9469549 -0.0329915446 5.16395774e-24)
(20.2198858 1.37480965 -3.55057663e-24)
(21.2158305 1.74803911 -7.02799008e-24)
(22.8354244 0.104069234 4.31344581e-26)
(23.5144838 -0.254247139 2.60484109e-23)
(23.7155933 0.217419888 1.90958981e-23)
(23.537605 1.18200893 -2.66458833e-24)
(23.5560775 1.14700517 -1.66380127e-23)
(23.58475 0.648430306 -1.41916896e-23)
(-0.0273321243 0.0223792714 2.83456503e-27)
(-0.0792933719 0.0643538316 7.85405734e-28)
(-0.129774221 0.10443504 -8.30440074e-28)
(-0.179188531 0.142938316 8.72369894e-28)
(-0.227834725 0.180127787 0)
(-0.275938014 0.216185196 -1.46184413e-26)
(-0.323623661 0.251211867 1.90453857e-33)
(-0.370945987 0.285249043 1.15233973e-26)
(-0.417906101 0.318295464 9.66006846e-27)
(-0.464465581 0.35032019 1.51626333e-26)
(-0.510556475 0.381272045 7.80107529e-27)
(-0.556088568 0.411086907 2.64869221e-27)
(-0.600954877 0.439693561 2.78744141e-27)
(-0.645035929 0.46701846 -2.89700652e-27)
(-0.688203068 0.492989619 -6.04660285e-27)
(-0.730320938 0.517539739 9.73711209e-27)
(-0.771249215 0.540608669 6.09647083e-27)
(-0.810843642 0.562145269 3.32511324e-26)
(-0.848956422 0.582108751 2.04846199e-26)
(-0.885436024 0.600469592 7.93298398e-27)
(-0.920126409 0.617210129 -8.33286297e-27)
(-0.95286558 0.632324923 -8.74983881e-27)
(-0.98348332 0.645820878 0)
(-1.01179837 0.657717075 1.92496157e-26)
(-1.03761462 0.668044203 -4.5789712e-26)
(-1.06071604 0.676843736 3.07255351e-29)
(-1.08086417 0.684164919 5.39839238e-26)
(-1.09780103 0.690061786 5.6886825e-26)
(-1.11125425 0.694584227 5.90934375e-26)
(-1.12093938 0.697772307 -4.24646896e-26)
(-1.12641513 0.699820868 -2.61562606e-26)
(-1.12763228 0.70068236 1.58669597e-25)
(-1.12407403 0.700713888 1.82042701e-25)
(-1.11514084 0.700151531 0)
(-1.10093373 0.698612595 0)
(-1.07906675 0.696934719 -3.32995282e-26)
(-1.04888041 0.694300921 0)
(-1.00843549 0.691018456 7.3520363e-26)
(-0.957122586 0.686712561 1.19913391e-25)
(-0.893568752 0.681909177 1.56933074e-25)
(-0.816149058 0.676841666 -5.64739502e-26)
(-0.722811641 0.671460571 0)
(-0.611233521 0.665669909 0)
(-0.479545798 0.659030202 1.38247892e-25)
(-0.324332 0.651647291 3.36032112e-25)
(-0.146009791 0.644509374 9.97089218e-26)
(0.0634561573 0.63975219 0)
(0.295569382 0.637478219 0)
(0.577715513 0.632409048 1.69629249e-25)
(0.90741592 0.624490501 4.16740056e-25)
(1.28720582 0.616847625 -1.1946429e-25)
(1.72347366 0.610420849 0)
(2.22104313 0.604856148 -4.31822407e-25)
(2.78495202 0.60014851 -8.22684832e-25)
(3.42053735 0.596484207 -1.80244187e-24)
(4.13320859 0.594046816 -2.08030946e-24)
(4.92795655 0.593374664 -2.91698348e-24)
(5.80779208 0.595459315 -2.9502237e-32)
(6.77428637 0.601008724 3.43324596e-32)
(7.82649975 0.610785448 -1.0327769e-23)
(8.96219775 0.624303916 -5.58686917e-24)
(10.1747692 0.641238552 5.78178587e-24)
(11.4522715 0.662638847 5.86006703e-24)
(12.7757009 0.692066633 0)
(14.1313732 0.720747505 6.31858913e-24)
(15.4761591 0.771520568 1.23757798e-23)
(16.7442498 0.865042934 6.94918126e-24)
(18.1322491 0.812135855 0)
(19.4498496 0.676406899 -3.80946002e-26)
(20.3183965 1.04721009 7.92966492e-24)
(21.2562963 1.294099 8.79547588e-24)
(22.5630383 0.61174015 0)
(23.3766234 0.528642725 0)
(23.5195507 1.25195754 8.66534879e-25)
(23.5866926 1.49626196 -8.95393601e-25)
(23.670426 1.06047175 1.23999135e-23)
(23.6959846 0.814297004 1.7461912e-23)
(23.7270695 0.626009016 0)
(23.6361611 0.892804069 -7.27672556e-25)
(23.5796282 0.880800946 1.62213154e-23)
(-0.0304551928 0.0230129664 5.37904338e-28)
(-0.088260221 0.0662572507 8.46089016e-28)
(-0.14427487 0.107635977 6.970168e-27)
(-0.19892557 0.147461641 -4.3925442e-27)
(-0.252542181 0.186000732 -5.68577227e-27)
(-0.305341711 0.223428406 0)
(-0.357450278 0.259850271 -7.97996372e-27)
(-0.408939162 0.295318629 -8.12874603e-27)
(-0.459793486 0.329839219 -3.55534526e-27)
(-0.509953936 0.363381352 -1.06338384e-27)
(-0.559324495 0.395891174 7.14656591e-27)
(-0.607779933 0.427299405 6.92169427e-34)
(-0.655172481 0.457527494 3.00869606e-27)
(-0.701337212 0.486492867 4.05781311e-33)
(-0.746096195 0.514113335 -3.3301497e-27)
(-0.789261582 0.540310687 2.70582275e-26)
(-0.83063768 0.565013527 -3.19741957e-26)
(-0.870022026 0.588159479 -7.71519887e-27)
(-0.907205469 0.609696968 3.46647073e-26)
(-0.941971234 0.629586619 8.49991869e-27)
(-0.974093317 0.647801761 -1.78664939e-26)
(-1.00332997 0.664323795 -5.14492874e-26)
(-1.02942134 0.679139022 -5.71840069e-26)
(-1.05209191 0.692240554 1.02811755e-26)
(-1.07104922 0.703623887 0)
(-1.08597505 0.713290281 1.12008226e-26)
(-1.09660353 0.721314675 0)
(-1.10262022 0.72780101 1.08831611e-25)
(-1.10369476 0.732899926 2.19884692e-25)
(-1.0994499 0.736875236 1.38644891e-25)
(-1.08966709 0.739659442 -9.68398822e-26)
(-1.07280167 0.741390354 -1.14319026e-25)
(-1.0480645 0.741797734 6.08139029e-26)
(-1.01436029 0.740821663 3.18398015e-26)
(-0.969992663 0.738704572 -1.36261661e-25)
(-0.914731354 0.735395333 -1.91693264e-25)
(-0.847043271 0.73134153 0)
(-0.765448271 0.726630419 2.05715888e-25)
(-0.668011739 0.72127996 1.70497986e-25)
(-0.55256212 0.715262237 7.8226321e-26)
(-0.417347413 0.708108054 8.14159498e-26)
(-0.258765681 0.699863385 0)
(-0.0749682918 0.692732749 0)
(0.130058806 0.688670353 0)
(0.367205717 0.684569947 9.12372925e-26)
(0.65297321 0.677455811 3.10791219e-25)
(0.981083172 0.669414786 3.95216522e-25)
(1.35703002 0.662940533 0)
(1.78756547 0.657999626 0)
(2.27665407 0.654198475 5.04062832e-25)
(2.8293096 0.651845261 4.97185395e-25)
(3.4510861 0.651385167 7.52436974e-25)
(4.14714876 0.653505502 9.14541332e-25)
(4.92195567 0.658821432 -2.25597565e-25)
(5.77817804 0.668068915 -1.51161957e-24)
(6.71677513 0.681790373 -1.35511772e-24)
(7.73710737 0.700335721 -3.76795721e-24)
(8.83636277 0.724098347 -4.36234051e-24)
(10.0117354 0.751898965 0)
(11.2541211 0.784230966 8.83902099e-26)
(12.5474791 0.823031442 -5.47426059e-24)
(13.8729811 0.868523129 -1.14939194e-23)
(15.2131618 0.916210843 3.35059912e-26)
(16.5380514 0.974827102 7.48944578e-26)
(17.8201303 1.03832069 -6.64433598e-24)
(19.0544242 1.0971134 6.2693878e-24)
(20.1287746 1.19713155 6.16947309e-24)
(21.1339474 1.3188983 -4.67991558e-25)
(22.1245709 1.19452843 -5.92091064e-24)
(23.020171 1.1148375 -1.12661973e-23)
(23.4650987 1.32966621 7.2300499e-26)
(23.7335741 1.4338159 -1.40998841e-23)
(23.7862863 1.25638339 -1.41870628e-23)
(23.8367782 1.18183829 0)
(23.815034 1.31532965 -1.21979233e-23)
(23.725564 1.45065807 -2.26645451e-23)
(23.6907586 1.32392654 6.09946724e-25)
(23.7015551 1.28122404 7.58324028e-24)
(23.7121383 1.16735031 8.81412019e-24)
(23.6888078 1.12984259 1.04432872e-23)
(-0.0332865744 0.0231619816 2.48235675e-27)
(-0.0963563486 0.0666747714 0)
(-0.157327391 0.108296686 0)
(-0.21663992 0.148335443 1.4825177e-30)
(-0.274634611 0.187057766 0)
(-0.331551079 0.224651423 0)
(-0.387529263 0.261225181 0)
(-0.442580732 0.296822212 -4.99887403e-27)
(-0.496686933 0.331448903 0)
(-0.549772569 0.365082735 2.77820444e-27)
(-0.601701859 0.397674451 1.46068078e-26)
(-0.65230695 0.429153759 3.85334908e-33)
(-0.701390922 0.459439995 -1.39476459e-26)
(-0.748733628 0.488447827 0)
(-0.794096515 0.516091688 -3.58165862e-27)
(-0.837225984 0.542289469 7.53800249e-27)
(-0.877855606 0.566965563 0)
(-0.915706587 0.590053089 4.59838663e-26)
(-0.950482106 0.611491712 8.75475784e-27)
(-0.981865898 0.63122477 -1.07767793e-25)
(-1.00955361 0.649167138 -7.23716025e-26)
(-1.03319535 0.665383979 1.00048757e-26)
(-1.05251039 0.679859214 0)
(-1.06717326 0.692647582 -1.01602498e-25)
(-1.07684583 0.703839378 -1.13735648e-25)
(-1.0811893 0.713555958 -1.1208572e-25)
(-1.07937041 0.721610577 -1.32038727e-25)
(-1.07072807 0.728040815 1.39066181e-25)
(-1.0545043 0.732829495 1.32831631e-25)
(-1.02978502 0.735961712 0)
(-0.99534954 0.737524139 -1.65727155e-25)
(-0.950720518 0.73773994 -1.815432e-25)
(-0.894724646 0.736806625 3.19246355e-26)
(-0.826035661 0.73480192 -1.6618014e-25)
(-0.743157641 0.731798968 -2.09754343e-25)
(-0.644221834 0.727859251 -7.16741771e-26)
(-0.527140793 0.72302539 3.69689635e-26)
(-0.390121701 0.716959682 -2.31204269e-25)
(-0.22994096 0.709795347 -3.38544318e-25)
(-0.0446430317 0.70390846 3.88386819e-25)
(0.159447935 0.700308753 5.21240023e-25)
(0.404257097 0.695648482 2.89806537e-25)
(0.687458502 0.689194367 0)
(1.01343824 0.683161937 -9.6162466e-26)
(1.38646981 0.678658889 -4.0954214e-25)
(1.81128906 0.675777555 -9.89991984e-26)
(2.29217492 0.674606209 1.95924888e-32)
(2.83442357 0.675755048 -4.31936421e-25)
(3.44343516 0.679847382 0)
(4.12388354 0.687543616 -1.0766059e-25)
(4.87974908 0.699439934 -1.04000972e-24)
(5.71346635 0.716266593 -9.70966747e-25)
(6.62602727 0.738663232 -3.90718189e-25)
(7.61669652 0.767246829 -1.77056657e-24)
(8.68293135 0.802580733 -1.69462414e-24)
(9.81960006 0.845160884 -2.03821135e-24)
(11.020912 0.893812446 -6.59180529e-24)
(12.275207 0.947637441 -4.71874192e-24)
(13.5674466 1.0053846 -5.14791803e-24)
(14.8786472 1.06602517 -5.60108841e-24)
(16.1848713 1.1308033 0)
(17.4577873 1.20163467 7.97288671e-26)
(18.6815341 1.26742068 -6.90219731e-24)
(19.8304033 1.32719787 -7.64871277e-24)
(20.862672 1.39526946 -4.01045364e-26)
(21.7675261 1.45770404 0)
(22.5481598 1.50262809 1.02017309e-23)
(23.1367571 1.55546793 1.05415098e-23)
(23.6489779 1.60226361 6.66313886e-25)
(23.7788373 1.53364639 -6.94803165e-25)
(23.8103263 1.54613759 -2.58384031e-26)
(23.8311429 1.48876398 -1.19387686e-24)
(23.825631 1.50612347 -8.23613314e-24)
(23.7959102 1.48145806 -1.23353675e-23)
(23.7986784 1.3997411 -5.3482926e-25)
(23.7902221 1.38797282 0)
(23.7513543 1.46701319 -9.37504157e-24)
(23.7264976 1.4563518 -1.3115248e-23)
(23.7210112 1.44739937 0)
(23.7166653 1.40291234 -1.32149653e-23)
(-0.0360937171 0.0230667957 -3.74385532e-27)
(-0.104326712 0.0663074698 -4.85265076e-27)
(-0.170100168 0.107565999 -6.39773436e-27)
(-0.233865432 0.147143338 -1.09362983e-27)
(-0.295969322 0.18530366 2.9780009e-27)
(-0.356650244 0.222236043 -2.43276662e-27)
(-0.416033596 0.258058673 2.25192687e-27)
(-0.47414938 0.292826487 -1.67040055e-27)
(-0.530924329 0.326540066 2.85300517e-27)
(-0.58620254 0.359176914 6.01717674e-27)
(-0.639848264 0.39068401 -4.7722252e-27)
(-0.691626387 0.421006777 -3.17533617e-26)
(-0.741275026 0.450067487 -2.69023436e-26)
(-0.788503588 0.477783137 -2.95110438e-26)
(-0.832995161 0.504070048 3.89586636e-27)
(-0.874411536 0.528851455 5.59238308e-26)
(-0.912395833 0.552060603 0)
(-0.946596737 0.573596485 0)
(-0.976641311 0.593501191 6.78520106e-26)
(-1.00217624 0.611756628 1.74904996e-25)
(-1.02269353 0.62829972 9.80246725e-26)
(-1.0377545 0.643066325 1.10648918e-25)
(-1.04678585 0.656086675 3.45474471e-33)
(-1.04917733 0.667342125 -1.44197179e-25)
(-1.04421958 0.676821469 1.31735615e-25)
(-1.03109306 0.684511904 3.13834987e-25)
(-1.00922724 0.690658524 1.56552845e-25)
(-0.977723449 0.69529756 -1.42001549e-26)
(-0.935545939 0.698492113 1.4799112e-26)
(-0.881535418 0.700310817 -3.0814953e-26)
(-0.814393921 0.700830036 0)
(-0.732620078 0.70014367 2.72167205e-25)
(-0.634381618 0.698359833 -3.48241804e-26)
(-0.517695234 0.695572744 -2.47858928e-25)
(-0.38074463 0.691569341 0)
(-0.220604521 0.686518242 -4.01983465e-25)
(-0.035122439 0.682500993 -3.32668029e-25)
(0.170092712 0.680272515 0)
(0.415047028 0.677216602 0)
(0.697262025 0.672860276 -3.29943434e-25)
(1.02073418 0.669418028 -4.24129629e-25)
(1.38966001 0.667742504 1.89904797e-25)
(1.80823284 0.667991414 0)
(2.2811081 0.670626353 3.88225276e-25)
(2.81324287 0.676239277 9.6659156e-25)
(3.40945124 0.685458898 4.85243765e-25)
(4.07402456 0.698981787 1.07377467e-25)
(4.8107025 0.717443647 -1.81862741e-27)
(5.62193585 0.741619019 0)
(6.50892753 0.772295044 -1.09240436e-24)
(7.47124948 0.81021442 -1.90291904e-25)
(8.5065181 0.856001523 1.39200811e-24)
(9.61020051 0.910145102 -1.50572739e-25)
(10.7751967 0.972973214 -2.08719719e-24)
(11.9932387 1.04360075 -4.1972376e-24)
(13.2506811 1.1213146 -7.13223379e-33)
(14.5290702 1.20602641 2.36018035e-24)
(15.8060121 1.2956811 0)
(17.0617367 1.38580964 0)
(18.2730994 1.46968188 3.93371968e-26)
(19.4216242 1.54749799 5.24541914e-26)
(20.4701967 1.6258869 0)
(21.4059904 1.70117197 8.03095264e-24)
(22.2201438 1.75385078 7.507047e-24)
(22.8964414 1.78371194 -7.77876339e-24)
(23.4074409 1.83632954 -2.05569638e-23)
(23.7730053 1.83977625 -1.05214851e-23)
(23.9156602 1.86282125 -1.05377173e-23)
(23.8734019 1.87054292 -5.26569406e-24)
(23.8015828 1.89897433 -7.66716329e-25)
(23.775197 1.84096942 1.28160161e-23)
(23.7848765 1.76339827 6.89298024e-24)
(23.7912998 1.66319985 -1.30884831e-23)
(23.7921895 1.61782521 -8.02878722e-24)
(23.7652207 1.57338752 -1.23981921e-23)
(23.7491037 1.5186082 -1.08139248e-23)
(23.7462919 1.48260979 -1.21377482e-23)
(23.7380461 1.44779916 6.72918058e-32)
(23.7396411 1.42893958 2.11444986e-23)
(23.7214019 1.3890569 2.71801535e-23)
(-0.0391039257 0.0228767467 1.94417366e-27)
(-0.11276846 0.0655933681 1.08039071e-27)
(-0.183480123 0.106169868 4.0865285e-27)
(-0.251698534 0.144901547 -1.88668106e-33)
(-0.317769477 0.182050567 -2.11777717e-27)
(-0.381920625 0.21780523 -3.07598718e-27)
(-0.444255618 0.252284736 3.14613807e-27)
(-0.504766531 0.285552668 8.03304728e-28)
(-0.563354058 0.317629605 5.92762951e-27)
(-0.619854971 0.348488889 8.04215197e-27)
(-0.673971579 0.378082933 1.07763653e-26)
(-0.725413158 0.406350306 1.04716909e-26)
(-0.773860522 0.433216329 1.75345089e-26)
(-0.818942717 0.458616196 2.56090395e-26)
(-0.860249548 0.482530004 4.25591904e-27)
(-0.897360312 0.504833071 4.47111725e-27)
(-0.929790808 0.525493532 7.59306865e-26)
(-0.95701838 0.544504389 8.99827839e-26)
(-0.978547394 0.561774473 -1.02946759e-26)
(-0.993763207 0.577283076 -1.08829946e-26)
(-1.00204806 0.591088416 1.12347832e-25)
(-1.00274972 0.603200995 1.25565425e-25)
(-0.995121024 0.61362898 0)
(-0.97831211 0.622423674 1.31312417e-26)
(-0.951398463 0.629618684 0)
(-0.913349274 0.635272225 0)
(-0.863008621 0.639465684 1.50088826e-26)
(-0.799064398 0.642306802 -2.64823995e-25)
(-0.720022799 0.643915194 -2.35856493e-25)
(-0.624136646 0.644419757 2.34017369e-25)
(-0.509500103 0.643950688 2.73037337e-25)
(-0.374293024 0.642396501 3.65135731e-26)
(-0.215849732 0.639955326 -3.81257955e-26)
(-0.0319158205 0.638363865 0)
(0.172973796 0.638153513 4.07074935e-26)
(0.416344892 0.6374496 0)
(0.69600862 0.63599439 0)
(1.01549789 0.635847521 4.68323465e-26)
(1.37905763 0.637763668 0)
(1.79059483 0.641941535 0)
(2.25447526 0.648905795 5.16490766e-25)
(2.77530605 0.659273045 6.59552851e-25)
(3.35747524 0.67373778 0)
(4.00501714 0.693019062 0)
(4.72152992 0.717828436 0)
(5.50949895 0.749021147 1.10713356e-25)
(6.3702641 0.787426376 1.06523647e-25)
(7.30367864 0.833787037 9.70780203e-25)
(8.30778518 0.888705542 1.24771437e-24)
(9.37857773 0.952601821 1.46361009e-24)
(10.5097793 1.02567343 1.72863176e-24)
(11.6928222 1.10786778 1.95262692e-24)
(12.9173407 1.19832741 2.17590622e-24)
(14.1691595 1.29593858 0)
(15.4295748 1.40025571 0)
(16.676581 1.50972234 -2.5318063e-24)
(17.8854645 1.62397268 -5.20014662e-24)
(19.0281179 1.74090428 -2.72835411e-24)
(20.0873086 1.85654415 -2.71999022e-24)
(21.0396229 1.95359804 -2.45670894e-24)
(21.9043752 2.03176167 5.55348839e-24)
(22.6274881 2.09068696 1.20521587e-23)
(23.2456058 2.15364755 2.81880499e-25)
(23.6521326 2.20626972 -1.1823491e-23)
(23.8936248 2.21683763 2.18435687e-25)
(23.9837962 2.22336008 -5.10094326e-25)
(23.9967544 2.2301316 5.52640415e-24)
(23.960478 2.22365097 -4.45255537e-32)
(23.85826 2.22305257 -1.0953036e-23)
(23.7922998 2.24540138 -5.59213947e-25)
(23.7674392 2.14640995 1.02939478e-23)
(23.7555941 2.10028711 8.18890384e-24)
(23.7437778 2.01627592 0)
(23.7347363 1.94494048 4.94160097e-25)
(23.7381278 1.85695944 0)
(23.7352814 1.72574855 1.0499629e-23)
(23.727091 1.68151109 2.00493548e-23)
(23.7198197 1.61662411 1.44358728e-23)
(23.7321014 1.58267075 8.95233841e-24)
(23.7199035 1.54008599 2.30203823e-23)
(-0.0422987582 0.0225655824 1.87044086e-27)
(-0.12157695 0.0644909254 5.61910766e-27)
(-0.197220633 0.1040928 -1.27320022e-27)
(-0.269691938 0.141660382 -2.69963345e-27)
(-0.339325727 0.177451624 -7.19152407e-28)
(-0.406324612 0.211651931 -5.61997299e-29)
(-0.470753233 0.244379334 -3.15018387e-27)
(-0.532551389 0.27569716 -9.94740114e-27)
(-0.591554931 0.305627567 -1.31902301e-26)
(-0.647514561 0.334162993 -1.67556332e-26)
(-0.70011372 0.361274721 0)
(-0.748973192 0.386933519 -8.16157007e-27)
(-0.793628635 0.411063343 4.29871117e-27)
(-0.833579131 0.43362874 0)
(-0.868305738 0.454543171 0)
(-0.897181182 0.473812613 0)
(-0.919594783 0.491383154 0)
(-0.934872505 0.507245762 -5.51302537e-27)
(-0.942283727 0.521403525 0)
(-0.94102683 0.533875218 -8.12176346e-26)
(-0.930257664 0.544680503 -8.95599805e-26)
(-0.909001952 0.55389475 1.57528078e-25)
(-0.876218442 0.561570364 1.8863624e-25)
(-0.830736759 0.567804893 -1.92479615e-25)
(-0.771255256 0.57270858 -2.41388993e-25)
(-0.696313065 0.576410056 -2.46117045e-25)
(-0.604233421 0.5790576 -2.48083527e-25)
(-0.493177413 0.580811856 -3.1005459e-25)
(-0.361326323 0.581643506 -6.02315917e-25)
(-0.206218028 0.581765202 -3.65966156e-25)
(-0.0254857835 0.58260385 0)
(0.177133462 0.584592985 -4.06943648e-26)
(0.416936211 0.586462588 -4.30643584e-26)
(0.692141065 0.588119486 0)
(1.00585437 0.59139677 4.6412702e-26)
(1.36228284 0.596945395 0)
(1.76504899 0.605012928 0)
(2.21820924 0.616184619 5.88661735e-25)
(2.72602293 0.631124729 -5.401313e-26)
(3.29257041 0.650569483 -6.21419085e-25)
(3.92165298 0.675293962 7.34251407e-25)
(4.61667778 0.706064343 7.38783914e-25)
(5.38012036 0.743731739 5.84798613e-26)
(6.21342854 0.789120285 0)
(7.11673105 0.842965605 9.07937687e-25)
(8.08853626 0.905870589 1.27754081e-24)
(9.12544538 0.978257711 0)
(10.2218947 1.06030209 0)
(11.3699544 1.15185067 -1.92550501e-24)
(12.5595183 1.25235513 -2.22188735e-24)
(13.778309 1.36065829 2.4188539e-24)
(15.0124435 1.47475153 2.51985882e-24)
(16.2426382 1.59298771 -2.70843271e-24)
(17.4480043 1.71311826 1.71232117e-34)
(18.6065406 1.83379754 3.03098188e-24)
(19.6968457 1.95283674 1.56187192e-26)
(20.6930354 2.06866906 0)
(21.5704791 2.18328893 1.51020019e-25)
(22.3142557 2.29522343 -3.37838313e-24)
(22.9122632 2.37677381 2.68905468e-25)
(23.4287263 2.42513427 5.75253773e-24)
(23.8027626 2.4483776 0)
(23.9184514 2.45496592 2.96572959e-25)
(23.9627802 2.44578115 0)
(23.9961585 2.43467616 2.888874e-25)
(24.005398 2.4109087 -1.63281393e-25)
(23.9986926 2.37108695 -5.26985178e-25)
(23.9415536 2.42636481 -1.18926534e-23)
(23.8575738 2.46239484 -1.09066314e-23)
(23.7895425 2.44884967 -4.52780102e-25)
(23.7269235 2.47074709 -8.28195604e-24)
(23.6926728 2.44894153 -1.02217011e-23)
(23.6928563 2.35313801 -7.81260442e-24)
(23.6968534 2.25126993 -8.62404478e-24)
(23.6870973 2.18984793 -1.20340413e-23)
(23.7029671 2.14902938 -7.57862204e-24)
(23.7393466 2.03992362 1.07797984e-23)
(23.7626402 1.9668057 1.10542368e-23)
(23.832165 1.9127416 -1.46330242e-24)
(23.8149774 1.83344339 1.26814833e-24)
(-0.0454229951 0.0219901544 1.50175513e-27)
(-0.129980688 0.0626176344 -5.65302497e-27)
(-0.210012044 0.100758759 -1.43512401e-27)
(-0.285968285 0.136697177 -1.47665614e-33)
(-0.358158996 0.170685118 1.79812396e-27)
(-0.426745513 0.202905123 -1.67998951e-27)
(-0.491736447 0.233475879 7.60284841e-27)
(-0.552997961 0.262473784 2.82567838e-33)
(-0.610278791 0.289914514 -2.68541132e-26)
(-0.663215882 0.31580571 -1.97097878e-26)
(-0.711359594 0.340129768 4.36000411e-27)
(-0.75418872 0.362840208 -3.31036027e-26)
(-0.791089663 0.383930698 -2.88181317e-26)
(-0.821417666 0.40335949 -3.95360308e-26)
(-0.84445783 0.421109691 -4.59028085e-26)
(-0.85943762 0.437176394 5.27156423e-26)
(-0.865526338 0.451569549 6.016036e-26)
(-0.861816685 0.464325497 -6.14165784e-27)
(-0.8473648 0.475475066 0)
(-0.82104973 0.485115757 -7.7817059e-26)
(-0.781715562 0.493311291 -9.39980911e-26)
(-0.728064517 0.500186679 -1.4974832e-26)
(-0.658664575 0.505881397 1.13903084e-25)
(-0.571899008 0.510558923 1.40316687e-25)
(-0.465994769 0.514405069 -3.41634472e-26)
(-0.339153988 0.517465879 0)
(-0.189092146 0.51997163 1.88351427e-26)
(-0.0133795556 0.523087171 2.21620028e-28)
(0.185015615 0.527189608 -3.52932869e-25)
(0.419220186 0.53152036 -3.5825074e-25)
(0.687824537 0.536112431 4.26130498e-25)
(0.993915695 0.542514919 3.91079399e-25)
(1.34131347 0.551351156 -9.65885247e-26)
(1.73342494 0.562947522 -4.54747961e-25)
(2.17403347 0.577934357 -3.72059237e-32)
(2.667083 0.597014683 5.79513561e-25)
(3.21636577 0.620945351 -6.80308689e-25)
(3.8254475 0.650521915 -6.75448369e-25)
(4.49754861 0.686538955 -1.18753651e-25)
(5.23512907 0.729842426 6.07872639e-26)
(6.03974494 0.781257999 6.02756e-26)
(6.91180192 0.841531748 -9.7694577e-25)
(7.85026734 0.911286292 -2.13724795e-24)
(8.8523844 0.990975954 -1.24772865e-24)
(9.91339529 1.08082372 -1.54146491e-24)
(11.0263083 1.1807513 -1.64984054e-24)
(12.1817612 1.29031348 0)
(13.3680153 1.40864248 2.13068808e-24)
(14.571029 1.53447234 2.49724115e-24)
(15.7762196 1.66518113 2.67949931e-24)
(16.9642758 1.79830834 5.75257291e-24)
(18.1145835 1.93134974 6.18926847e-24)
(19.2056092 2.06057229 6.65427666e-24)
(20.2189095 2.18050918 7.15604267e-24)
(21.1350518 2.28804037 4.01460754e-24)
(21.9499814 2.38881725 -3.0215614e-26)
(22.6319757 2.47501013 0)
(23.174724 2.5508869 -4.35678643e-24)
(23.5766248 2.63048331 -4.54660808e-24)
(23.8346485 2.64844516 0)
(23.9064258 2.72132456 -4.6092899e-24)
(23.8884324 2.70216122 -3.76925851e-24)
(23.9108415 2.65995086 0)
(23.9262146 2.62660103 -1.09369022e-25)
(23.9317054 2.57898928 0)
(23.9374715 2.52291736 -1.21569566e-23)
(23.9525679 2.48377518 -5.13750046e-25)
(23.9477258 2.42272446 1.43751275e-23)
(23.8943882 2.46309207 -2.81020405e-25)
(23.7873682 2.48674514 -3.30035056e-25)
(23.7033195 2.52838836 -1.06707889e-23)
(23.6606338 2.5198965 -1.16929017e-23)
(23.6537726 2.53501052 -1.7432762e-25)
(23.6829079 2.50097775 -3.27407614e-25)
(23.7030899 2.4560666 -5.73752834e-26)
(23.7042344 2.44975363 -5.41769907e-25)
(23.7750579 2.39626432 1.35989677e-23)
(23.8469075 2.31862145 2.75074188e-23)
(23.9620016 2.28482191 1.54750731e-23)
(23.9657855 2.2342634 -1.39533406e-24)
(-0.0481180745 0.0210127284 0)
(-0.136871422 0.0595856982 -1.54231195e-27)
(-0.219948847 0.0955565001 1.62569849e-27)
(-0.297773052 0.129208455 -4.90578329e-27)
(-0.370607324 0.160785345 1.80713962e-27)
(-0.438541418 0.190469994 1.90424021e-27)
(-0.501489998 0.218384369 -1.32745242e-26)
(-0.559210602 0.244594082 0)
(-0.611308568 0.269147184 4.43942583e-27)
(-0.657288247 0.292053608 -2.64143915e-26)
(-0.696548591 0.313317547 -2.68955525e-26)
(-0.728397257 0.332937581 3.7645527e-26)
(-0.752059939 0.350913883 5.45546522e-27)
(-0.766684979 0.367256341 -9.59701014e-26)
(-0.771345814 0.381984556 -1.16771266e-25)
(-0.765022921 0.395158812 -5.97458281e-26)
(-0.746681427 0.406808683 -6.63582061e-27)
(-0.715048745 0.417062476 -8.29501603e-26)
(-0.668866707 0.425994653 -8.52724547e-26)
(-0.606712068 0.433759726 7.61660594e-27)
(-0.527021751 0.440530743 -8.050459e-27)
(-0.428088223 0.446509246 -3.35397816e-26)
(-0.308146215 0.451801707 -1.33005829e-25)
(-0.165061642 0.456652793 -3.13254974e-25)
(0.00360761058 0.462010516 -1.66492404e-25)
(0.195650706 0.468211772 -2.00052561e-26)
(0.422141497 0.474912011 -1.31474406e-25)
(0.682073882 0.482244651 2.19574861e-26)
(0.97850327 0.491511187 -2.29321867e-26)
(1.31488833 0.503320157 -2.05535387e-25)
(1.69443822 0.518074089 0)
(2.12066787 0.5364327 -5.51908521e-25)
(2.59721705 0.559118739 -5.40242652e-26)
(3.12761675 0.586904161 6.64672163e-25)
(3.71521767 0.62059845 7.17300291e-25)
(4.36307517 0.661016396 7.73046759e-25)
(5.07363292 0.709002086 -6.12073065e-26)
(5.84854614 0.765384864 0)
(6.68847494 0.8309232 -1.26812701e-25)