/*--------------------------------*- C++ -*----------------------------------*\
  =========                 |
  \\      /  F ield         | OpenFOAM: The Open Source CFD Toolbox
   \\    /   O peration     | Website:  https://openfoam.org
    \\  /    A nd           | Version:  8
     \\/     M anipulation  |
\*---------------------------------------------------------------------------*/
FoamFile
{
    version     2.0;
    format      ascii;
    class       volScalarField;
    location    "0.023";
    object      p_rgh;
}
// * * * * * * * * * * * * * * * * * * * * * * * * * * * * * * * * * * * * * //

dimensions      [1 -1 -2 0 0 0 0];

internalField   nonuniform List<scalar> 
42400
(
101376.688
101376.675
101376.662
101376.649
101376.638
101376.629
101376.62
101376.612
101376.605
101376.6
101376.596
101376.593
101376.591
101376.591
101376.592
101376.594
101376.598
101376.602
101376.608
101376.615
101376.624
101376.633
101376.644
101376.656
101376.669
101376.683
101376.697
101376.713
101376.73
101376.747
101376.765
101376.784
101376.804
101376.825
101376.846
101376.867
101376.889
101376.911
101376.944
101376.989
101377.039
101377.072
101377.082
101377.089
101377.096
101377.115
101377.153
101377.198
101377.246
101377.297
101377.348
101377.395
101377.466
101377.566
101377.68
101377.77
101377.828
101377.913
101378.041
101378.198
101378.361
101378.538
101378.739
101378.973
101379.242
101379.542
101379.844
101380.245
101380.728
101380.833
101381.492
101382.932
101383.361
101383.038
101385.443
101387.035
101387.065
101387.148
101388.727
101389.636
101375.855
101375.845
101375.834
101375.825
101375.816
101375.809
101375.802
101375.797
101375.792
101375.789
101375.786
101375.785
101375.786
101375.787
101375.789
101375.793
101375.798
101375.805
101375.812
101375.821
101375.83
101375.841
101375.853
101375.866
101375.88
101375.895
101375.911
101375.928
101375.946
101375.965
101375.984
101376.004
101376.024
101376.045
101376.068
101376.099
101376.138
101376.181
101376.206
101376.212
101376.217
101376.235
101376.267
101376.303
101376.339
101376.377
101376.415
101376.451
101376.482
101376.536
101376.625
101376.704
101376.731
101376.765
101376.844
101376.948
101377.052
101377.161
101377.282
101377.425
101377.594
101377.791
101378.014
101378.266
101378.568
101378.952
101379.331
101379.776
101380.488
101380.903
101381.163
101382.621
101383.379
101383.597
101386.467
101386.89
101388.45
101392.439
101394.625
101396.849
101374.907
101374.899
101374.891
101374.884
101374.878
101374.873
101374.868
101374.865
101374.863
101374.862
101374.862
101374.864
101374.866
101374.87
101374.875
101374.882
101374.889
101374.898
101374.909
101374.92
101374.933
101374.947
101374.963
101374.979
101374.997
101375.016
101375.036
101375.057
101375.079
101375.102
101375.125
101375.151
101375.183
101375.219
101375.255
101375.281
101375.296
101375.311
101375.335
101375.37
101375.405
101375.442
101375.479
101375.515
101375.545
101375.587
101375.65
101375.732
101375.785
101375.805
101375.85
101375.921
101375.998
101376.072
101376.15
101376.242
101376.348
101376.469
101376.608
101376.765
101376.945
101377.157
101377.42
101377.733
101378.101
101378.59
101379.142
101379.706
101380.507
101381.369
101382.027
101383.01
101385.516
101388.168
101388.397
101389.48
101393.077
101394.42
101396.093
101397.428
101373.864
101373.857
101373.851
101373.846
101373.842
101373.838
101373.836
101373.835
101373.835
101373.836
101373.839
101373.842
101373.848
101373.854
101373.862
101373.872
101373.883
101373.896
101373.91
101373.925
101373.943
101373.962
101373.982
101374.004
101374.027
101374.052
101374.078
101374.106
101374.137
101374.171
101374.208
101374.241
101374.27
101374.298
101374.327
101374.362
101374.405
101374.448
101374.491
101374.535
101374.578
101374.615
101374.667
101374.748
101374.817
101374.842
101374.871
101374.928
101375.001
101375.069
101375.136
101375.208
101375.288
101375.376
101375.472
101375.58
101375.704
101375.847
101376.012
101376.206
101376.436
101376.698
101377.026
101377.426
101377.934
101378.576
101379.427
101380.306
101381.018
101382.013
101384.096
101386.556
101387.89
101388.925
101390.088
101391.806
101393.616
101394.662
101395.588
101397.158
101372.727
101372.722
101372.717
101372.712
101372.709
101372.707
101372.706
101372.707
101372.709
101372.712
101372.717
101372.724
101372.732
101372.741
101372.753
101372.766
101372.782
101372.799
101372.818
101372.839
101372.862
101372.886
101372.912
101372.94
101372.97
101373.003
101373.039
101373.075
101373.113
101373.152
101373.192
101373.236
101373.284
101373.333
101373.383
101373.434
101373.487
101373.539
101373.586
101373.646
101373.73
101373.794
101373.829
101373.881
101373.951
101374.023
101374.09
101374.159
101374.232
101374.309
101374.391
101374.478
101374.574
101374.681
101374.805
101374.949
101375.114
101375.309
101375.543
101375.807
101376.119
101376.454
101376.871
101377.315
101377.898
101378.382
101379.028
101380.914
101383.645
101385.568
101386.222
101386.816
101388.138
101389.541
101390.971
101392.37
101393.656
101395.003
101396.528
101398.052
101371.485
101371.48
101371.474
101371.471
101371.468
101371.467
101371.468
101371.469
101371.472
101371.478
101371.485
101371.494
101371.505
101371.518
101371.533
101371.55
101371.57
101371.592
101371.615
101371.64
101371.668
101371.701
101371.737
101371.775
101371.816
101371.859
101371.904
101371.952
101372.002
101372.054
101372.109
101372.165
101372.222
101372.283
101372.343
101372.399
101372.467
101372.557
101372.627
101372.674
101372.738
101372.817
101372.894
101372.969
101373.046
101373.124
101373.205
101373.289
101373.378
101373.474
101373.58
101373.699
101373.834
101373.989
101374.168
101374.377
101374.624
101374.913
101375.262
101375.665
101376.131
101376.62
101377.187
101377.738
101378.634
101380.913
101383.187
101383.955
101384.1
101384.721
101386.119
101387.82
101389.185
101390.585
101392.002
101393.536
101394.801
101396.07
101397.432
101399.055
101370.108
101370.103
101370.097
101370.094
101370.092
101370.092
101370.093
101370.097
101370.102
101370.108
101370.118
101370.13
101370.144
101370.161
101370.18
101370.201
101370.226
101370.253
101370.285
101370.32
101370.358
101370.398
101370.441
101370.487
101370.535
101370.587
101370.641
101370.699
101370.759
101370.821
101370.887
101370.954
101371.018
101371.092
101371.185
101371.262
101371.32
101371.395
101371.483
101371.567
101371.65
101371.735
101371.821
101371.909
101372.001
101372.097
101372.199
101372.308
101372.428
101372.562
101372.713
101372.888
101373.088
101373.323
101373.596
101373.917
101374.297
101374.758
101375.32
101376.046
101376.835
101377.615
101378.407
101379.963
101381.622
101382.337
101382.782
101383.76
101385.048
101386.256
101387.466
101388.703
101390.017
101391.42
101392.906
101394.005
101395.27
101396.96
101398.691
101400.256
101368.561
101368.556
101368.551
101368.548
101368.547
101368.548
101368.551
101368.556
101368.564
101368.573
101368.585
101368.6
101368.618
101368.639
101368.664
101368.692
101368.722
101368.756
101368.793
101368.834
101368.878
101368.925
101368.976
101369.03
101369.088
101369.149
101369.213
101369.28
101369.35
101369.418
101369.496
101369.59
101369.672
101369.738
101369.821
101369.915
101370.006
101370.096
101370.188
101370.283
101370.38
101370.48
101370.584
101370.693
101370.809
101370.934
101371.071
101371.223
101371.395
101371.591
101371.814
101372.069
101372.361
101372.69
101373.056
101373.463
101373.91
101374.386
101374.844
101375.534
101376.996
101378.949
101380.388
101380.867
101381.36
101382.154
101383.252
101384.446
101385.551
101386.855
101388.001
101389.308
101390.854
101392.4
101394.096
101395.372
101396.617
101398.249
101400.019
101401.489
101366.798
101366.793
101366.79
101366.788
101366.789
101366.792
101366.797
101366.806
101366.817
101366.831
101366.849
101366.869
101366.892
101366.918
101366.948
101366.981
101367.018
101367.059
101367.103
101367.151
101367.203
101367.258
101367.318
101367.381
101367.447
101367.517
101367.587
101367.665
101367.758
101367.841
101367.913
101368.001
101368.097
101368.192
101368.288
101368.386
101368.487
101368.591
101368.698
101368.809
101368.926
101369.049
101369.18
101369.322
101369.478
101369.653
101369.849
101370.073
101370.33
101370.624
101370.961
101371.347
101371.788
101372.295
101372.871
101373.518
101374.268
101375.044
101376.075
101377.503
101378.267
101378.629
101379.343
101380.564
101381.903
101383.007
101384.388
101385.688
101387.037
101388.271
101389.461
101390.925
101392.583
101393.946
101395.27
101396.664
101398.203
101399.657
101401.265
101402.885
101364.789
101364.787
101364.785
101364.787
101364.791
101364.797
101364.807
101364.82
101364.836
101364.854
101364.876
101364.902
101364.931
101364.964
101365.001
101365.042
101365.086
101365.135
101365.187
101365.244
101365.305
101365.37
101365.437
101365.507
101365.584
101365.674
101365.757
101365.834
101365.923
101366.021
101366.118
101366.217
101366.32
101366.425
101366.534
101366.647
101366.763
101366.885
101367.013
101367.149
101367.295
101367.454
101367.63
101367.825
101368.047
101368.299
101368.589
101368.923
101369.307
101369.744
101370.242
101370.812
101371.454
101372.173
101372.974
101373.886
101374.817
101375.881
101377.061
101378.005
101378.865
101379.775
101380.69
101381.78
101383.096
101384.64
101386.072
101387.366
101388.618
101389.853
101391.129
101392.332
101393.418
101394.529
101395.831
101397.301
101398.917
101400.315
101402.118
101404.275
101362.493
101362.494
101362.497
101362.503
101362.511
101362.522
101362.537
101362.555
101362.577
101362.602
101362.631
101362.664
101362.701
101362.742
101362.787
101362.836
101362.89
101362.948
101363.011
101363.076
101363.147
101363.229
101363.312
101363.39
101363.472
101363.564
101363.662
101363.761
101363.863
101363.968
101364.078
101364.19
101364.307
101364.428
101364.554
101364.686
101364.825
101364.973
101365.133
101365.306
101365.497
101365.708
101365.946
101366.215
101366.521
101366.872
101367.272
101367.727
101368.243
101368.831
101369.494
101370.285
101371.126
101371.966
101372.838
101373.779
101374.828
101375.761
101376.82
101377.868
101378.867
101380.095
101381.321
101382.354
101383.669
101385.147
101386.362
101387.589
101388.779
101389.873
101391.006
101392.317
101393.741
101395.512
101397.413
101399.167
101400.965
101402.996
101404.955
101406.647
101359.875
101359.881
101359.889
101359.9
101359.915
101359.933
101359.954
101359.98
101360.009
101360.043
101360.08
101360.123
101360.169
101360.22
101360.276
101360.336
101360.399
101360.469
101360.548
101360.627
101360.705
101360.792
101360.886
101360.984
101361.085
101361.189
101361.298
101361.411
101361.528
101361.65
101361.776
101361.909
101362.047
101362.193
101362.348
101362.514
101362.693
101362.889
101363.104
101363.342
101363.607
101363.903
101364.235
101364.607
101365.021
101365.478
101365.971
101366.496
101367.051
101367.609
101368.124
101368.919
101370.293
101371.697
101372.992
101374.215
101375.376
101376.641
101377.871
101378.823
101379.831
101380.72
101381.555
101382.669
101383.642
101384.744
101386.41
101388.033
101389.536
101391.09
101392.874
101394.71
101396.455
101397.942
101399.478
101401.152
101403.011
101404.747
101406.565
101408.45
101356.888
101356.9
101356.916
101356.934
101356.957
101356.983
101357.014
101357.048
101357.088
101357.131
101357.18
101357.233
101357.291
101357.353
101357.421
101357.497
101357.575
101357.654
101357.741
101357.835
101357.933
101358.034
101358.141
101358.252
101358.368
101358.489
101358.615
101358.746
101358.884
101359.029
101359.181
101359.343
101359.517
101359.704
101359.908
101360.132
101360.38
101360.657
101360.966
101361.315
101361.707
101362.148
101362.645
101363.202
101363.826
101364.524
101365.303
101366.167
101367.142
101368.189
101369.373
101370.677
101371.566
101372.184
101372.99
101374.052
101375.342
101376.661
101377.527
101378.63
101380.396
101381.833
101383.239
101385.143
101387.004
101388.207
101389.052
101390.121
101391.292
101392.648
101394.215
101395.749
101397.395
101398.974
101400.546
101402.378
101404.429
101406.554
101408.275
101409.669
101353.491
101353.511
101353.536
101353.564
101353.596
101353.633
101353.674
101353.72
101353.77
101353.825
101353.885
101353.951
101354.024
101354.1
101354.179
101354.265
101354.358
101354.454
101354.556
101354.663
101354.775
101354.892
101355.014
101355.141
101355.275
101355.415
101355.562
101355.717
101355.881
101356.056
101356.245
101356.449
101356.672
101356.918
101357.191
101357.494
101357.834
101358.214
101358.641
101359.12
101359.654
101360.249
101360.907
101361.63
101362.418
101363.269
101364.183
101365.152
101366.16
101367.276
101368.429
101369.584
101370.788
101371.929
101372.96
101374.259
101375.652
101376.878
101378.281
101379.931
101381.391
101382.773
101384.042
101385.143
101386.145
101387.554
101389.3
101391.013
101393.003
101394.569
101395.777
101397.113
101398.672
101400.355
101401.993
101403.677
101405.829
101408.238
101410.701
101412.185
101349.64
101349.67
101349.706
101349.746
101349.789
101349.838
101349.891
101349.949
101350.013
101350.082
101350.155
101350.234
101350.319
101350.409
101350.504
101350.605
101350.71
101350.821
101350.938
101351.059
101351.187
101351.32
101351.46
101351.606
101351.76
101351.923
101352.096
101352.282
101352.482
101352.699
101352.936
101353.197
101353.487
101353.809
101354.169
101354.571
101355.02
101355.521
101356.078
101356.695
101357.376
101358.12
101358.931
101359.805
101360.73
101361.72
101362.746
101363.769
101365.04
101366.579
101368.064
101369.298
101370.57
101372.044
101373.197
101374.36
101375.886
101377.198
101378.33
101379.608
101381.366
101382.97
101384.126
101385.463
101386.907
101388.473
101390.081
101391.57
101392.903
101394.408
101396.316
101398.291
101400.073
101402.131
101404.724
101406.996
101408.64
101409.861
101411.407
101413.481
101345.314
101345.356
101345.406
101345.459
101345.516
101345.578
101345.645
101345.717
101345.795
101345.878
101345.966
101346.06
101346.159
101346.264
101346.374
101346.49
101346.612
101346.739
101346.873
101347.013
101347.161
101347.316
101347.48
101347.655
101347.842
101348.043
101348.261
101348.499
101348.76
101349.048
101349.368
101349.725
101350.124
101350.569
101351.065
101351.618
101352.231
101352.908
101353.65
101354.458
101355.333
101356.271
101357.267
101358.31
101359.396
101360.8
101362.705
101364.73
101366.123
101367.09
101368.008
101368.921
101370.163
101371.723
101373.382
101374.486
101375.25
101376.245
101377.515
101379.654
101381.46
101382.571
101383.91
101385.451
101387.166
101388.857
101390.626
101392.434
101394.269
101396.194
101398.171
101400.193
101402.062
101404.231
101406.04
101407.769
101410.088
101412.015
101413.703
101415.337
101340.52
101340.575
101340.641
101340.709
101340.782
101340.859
101340.942
101341.03
101341.123
101341.221
101341.326
101341.436
101341.551
101341.673
101341.801
101341.935
101342.077
101342.225
101342.382
101342.548
101342.725
101342.914
101343.116
101343.336
101343.574
101343.836
101344.124
101344.443
101344.798
101345.193
101345.635
101346.129
101346.679
101347.292
101347.971
101348.721
101349.545
101350.445
101351.424
101352.479
101353.613
101354.802
101356.063
101357.425
101359.193
101361.021
101362.052
101362.859
101363.862
101365.166
101366.694
101368.174
101369.336
101370.594
101372.03
101373.596
101375.282
101376.589
101377.793
101378.559
101379.819
101382.007
101384.11
101386.135
101388.126
101390.116
101392.082
101394.072
101396.086
101398.017
101399.991
101402.067
101404.029
101405.641
101407.537
101410.049
101412.129
101413.652
101415.158
101416.967
101335.272
101335.342
101335.425
101335.51
101335.598
101335.692
101335.79
101335.894
101336.004
101336.119
101336.24
101336.367
101336.5
101336.641
101336.789
101336.945
101337.11
101337.285
101337.471
101337.672
101337.888
101338.122
101338.377
101338.658
101338.967
101339.31
101339.692
101340.116
101340.589
101341.116
101341.702
101342.35
101343.065
101343.85
101344.707
101345.637
101346.64
101347.714
101348.862
101350.073
101351.339
101352.617
101354.19
101356.164
101357.721
101358.623
101359.677
101361.181
101362.729
101364.257
101365.738
101367.259
101368.695
101370.284
101372.065
101373.685
101375.405
101377.239
101379.058
101380.882
101382.767
101384.629
101386.418
101388.215
101390.085
101392.018
101393.988
101395.939
101397.947
101399.95
101401.932
101404.209
101406.841
101409.543
101411.298
101412.473
101414.103
101416.868
101419.05
101420.721
101329.631
101329.717
101329.818
101329.919
101330.024
101330.133
101330.247
101330.367
101330.492
101330.624
101330.762
101330.907
101331.06
101331.221
101331.393
101331.576
101331.771
101331.982
101332.211
101332.46
101332.733
101333.034
101333.367
101333.738
101334.15
101334.611
101335.124
101335.696
101336.331
101337.033
101337.806
101338.653
101339.573
101340.566
101341.628
101342.755
101343.931
101345.139
101346.386
101347.87
101349.815
101352.096
101354.173
101355.345
101356.217
101357.541
101359.279
101360.975
101362.707
101364.464
101366.228
101367.988
101369.865
101371.497
101372.924
101374.918
101377.112
101378.947
101380.694
101382.365
101383.966
101385.717
101387.848
101390.011
101392.06
101394.094
101396.157
101398.272
101400.563
101403.075
101405.59
101407.665
101409.233
101410.363
101412.275
101415.216
101418.174
101421.152
101422.801
101423.872
101323.717
101323.819
101323.937
101324.055
101324.176
101324.301
101324.432
101324.568
101324.711
101324.861
101325.019
101325.186
101325.363
101325.553
101325.757
101325.977
101326.217
101326.479
101326.768
101327.088
101327.443
101327.84
101328.283
101328.778
101329.332
101329.95
101330.639
101331.403
101332.248
101333.177
101334.193
101335.299
101336.495
101337.784
101339.164
101340.634
101342.174
101343.793
101345.845
101348.21
101349.947
101351.153
101352.155
101353.523
101355.426
101357.279
101359.01
101360.956
101363.106
101365.124
101367.157
101369.213
101371.159
101373.241
101375.308
101376.995
101378.857
101381.003
101382.688
101384.213
101385.948
101387.71
101389.585
101391.651
101393.898
101396.202
101398.271
101400.274
101402.29
101404.349
101406.353
101408.198
101410.204
101412.737
101415.321
101417.921
101420.285
101421.881
101423.738
101425.611
101357.617
101357.62
101357.625
101357.632
101357.64
101357.65
101357.662
101357.676
101357.693
101357.711
101357.731
101357.753
101357.778
101357.804
101357.834
101357.865
101357.899
101357.936
101357.975
101358.017
101358.062
101358.109
101358.16
101358.214
101358.272
101358.333
101358.397
101358.465
101358.538
101358.614
101358.695
101358.78
101358.87
101358.965
101359.065
101359.171
101359.283
101359.4
101359.523
101359.653
101359.79
101359.933
101360.084
101360.243
101360.414
101360.595
101360.787
101360.986
101361.195
101361.415
101361.647
101361.891
101362.146
101362.413
101362.693
101362.984
101363.285
101363.597
101363.917
101364.247
101364.583
101364.922
101365.26
101365.59
101365.902
101366.181
101366.414
101366.592
101366.702
101366.719
101366.654
101366.52
101366.155
101365.33
101364.371
101363.7
101363.034
101362.108
101361.638
101361.324
101360.509
101360.513
101360.518
101360.525
101360.534
101360.545
101360.558
101360.573
101360.59
101360.61
101360.631
101360.654
101360.68
101360.708
101360.738
101360.771
101360.806
101360.844
101360.885
101360.928
101360.975
101361.024
101361.077
101361.132
101361.191
101361.254
101361.32
101361.39
101361.463
101361.541
101361.623
101361.71
101361.801
101361.897
101361.998
101362.105
101362.216
101362.334
101362.458
101362.588
101362.724
101362.867
101363.017
101363.174
101363.338
101363.51
101363.689
101363.877
101364.079
101364.293
101364.516
101364.746
101364.984
101365.233
101365.491
101365.759
101366.035
101366.318
101366.609
101366.908
101367.211
101367.515
101367.824
101368.151
101368.502
101368.836
101369.125
101369.369
101369.532
101369.598
101369.572
101369.452
101369.239
101368.946
101368.405
101367.422
101366.157
101365.284
101364.904
101363.94
101363.156
101363.16
101363.166
101363.174
101363.183
101363.195
101363.208
101363.224
101363.241
101363.261
101363.283
101363.306
101363.333
101363.361
101363.392
101363.425
101363.461
101363.499
101363.541
101363.584
101363.631
101363.681
101363.734
101363.789
101363.849
101363.911
101363.977
101364.047
101364.121
101364.198
101364.28
101364.365
101364.456
101364.551
101364.65
101364.755
101364.865
101364.98
101365.101
101365.228
101365.361
101365.5
101365.646
101365.799
101365.959
101366.125
101366.298
101366.479
101366.667
101366.863
101367.064
101367.275
101367.498
101367.734
101367.977
101368.227
101368.484
101368.749
101369.028
101369.319
101369.607
101369.889
101370.172
101370.445
101370.698
101370.94
101371.163
101371.371
101371.605
101371.826
101371.991
101371.998
101371.815
101371.484
101371.032
101370.495
101369.901
101369.097
101367.884
101366.513
101365.555
101365.559
101365.566
101365.573
101365.583
101365.595
101365.608
101365.624
101365.641
101365.661
101365.683
101365.707
101365.733
101365.761
101365.792
101365.825
101365.861
101365.899
101365.94
101365.983
101366.029
101366.078
101366.13
101366.185
101366.243
101366.305
101366.37
101366.438
101366.51
101366.586
101366.665
101366.749
101366.837
101366.929
101367.025
101367.127
101367.233
101367.344
101367.461
101367.583
101367.711
101367.845
101367.985
101368.131
101368.284
101368.443
101368.611
101368.785
101368.967
101369.156
101369.351
101369.556
101369.769
101369.99
101370.217
101370.452
101370.693
101370.942
101371.197
101371.457
101371.721
101371.991
101372.263
101372.533
101372.788
101373.021
101373.233
101373.4
101373.51
101373.574
101373.608
101373.671
101373.759
101373.784
101373.496
101372.916
101372.144
101371.234
101370.292
101369.15
101367.711
101367.716
101367.722
101367.73
101367.739
101367.751
101367.764
101367.78
101367.797
101367.817
101367.838
101367.862
101367.887
101367.915
101367.945
101367.978
101368.012
101368.05
101368.089
101368.132
101368.177
101368.224
101368.275
101368.328
101368.385
101368.444
101368.507
101368.573
101368.642
101368.716
101368.792
101368.873
101368.957
101369.046
101369.138
101369.236
101369.337
101369.444
101369.555
101369.671
101369.793
101369.92
101370.053
101370.192
101370.337
101370.488
101370.646
101370.811
101370.983
101371.162
101371.348
101371.543
101371.745
101371.953
101372.167
101372.389
101372.617
101372.852
101373.093
101373.336
101373.583
101373.837
101374.094
101374.353
101374.61
101374.863
101375.108
101375.34
101375.525
101375.641
101375.661
101375.599
101375.418
101375.233
101375.148
101375.056
101374.71
101374.05
101373.189
101372.337
101369.63
101369.635
101369.641
101369.648
101369.658
101369.669
101369.682
101369.697
101369.714
101369.733
101369.754
101369.777
101369.802
101369.829
101369.858
101369.889
101369.922
101369.958
101369.997
101370.037
101370.08
101370.126
101370.175
101370.226
101370.28
101370.337
101370.397
101370.46
101370.527
101370.597
101370.67
101370.747
101370.827
101370.911
101371
101371.092
101371.189
101371.29
101371.395
101371.506
101371.621
101371.742
101371.867
101371.999
101372.136
101372.279
101372.428
101372.584
101372.746
101372.915
101373.091
101373.274
101373.464
101373.661
101373.866
101374.078
101374.298
101374.526
101374.76
101375.001
101375.249
101375.503
101375.763
101376.027
101376.293
101376.558
101376.817
101377.067
101377.297
101377.499
101377.659
101377.72
101377.656
101377.427
101377.054
101376.577
101376.108
101375.665
101375.183
101374.551
101371.324
101371.328
101371.334
101371.341
101371.35
101371.361
101371.374
101371.388
101371.404
101371.422
101371.442
101371.464
101371.488
101371.513
101371.541
101371.571
101371.603
101371.637
101371.674
101371.712
101371.754
101371.797
101371.843
101371.892
101371.943
101371.998
101372.055
101372.115
101372.178
101372.244
101372.313
101372.386
101372.462
101372.542
101372.626
101372.713
101372.805
101372.9
101373
101373.105
101373.214
101373.329
101373.448
101373.573
101373.703
101373.839
101373.981
101374.129
101374.284
101374.446
101374.614
101374.79
101374.974
101375.165
101375.364
101375.571
101375.787
101376.011
101376.244
101376.486
101376.737
101376.996
101377.264
101377.54
101377.822
101378.109
101378.396
101378.679
101378.952
101379.206
101379.43
101379.609
101379.723
101379.747
101379.591
101379.207
101378.692
101378.038
101377.212
101376.591
101372.802
101372.806
101372.811
101372.818
101372.826
101372.836
101372.848
101372.862
101372.877
101372.894
101372.913
101372.933
101372.956
101372.98
101373.006
101373.034
101373.064
101373.096
101373.131
101373.167
101373.206
101373.247
101373.29
101373.336
101373.385
101373.436
101373.489
101373.546
101373.605
101373.667
101373.733
101373.801
101373.873
101373.948
101374.027
101374.11
101374.196
101374.287
101374.382
101374.481
101374.585
101374.693
101374.807
101374.926
101375.051
101375.181
101375.317
101375.46
101375.61
101375.767
101375.931
101376.102
101376.282
101376.47
101376.667
101376.873
101377.089
101377.314
101377.55
101377.797
101378.055
101378.325
101378.606
101378.9
101379.205
101379.519
101379.841
101380.168
101380.494
101380.812
101381.115
101381.391
101381.628
101381.805
101381.906
101381.913
101381.726
101381.33
101380.668
101379.969
101374.079
101374.082
101374.087
101374.093
101374.101
101374.11
101374.121
101374.133
101374.147
101374.163
101374.18
101374.199
101374.22
101374.242
101374.267
101374.293
101374.321
101374.351
101374.383
101374.417
101374.453
101374.491
101374.531
101374.574
101374.619
101374.667
101374.717
101374.769
101374.825
101374.883
101374.944
101375.008
101375.076
101375.147
101375.221
101375.298
101375.38
101375.465
101375.555
101375.649
101375.747
101375.851
101375.959
101376.073
101376.193
101376.319
101376.451
101376.59
101376.735
101376.889
101377.05
101377.22
101377.398
101377.585
101377.783
101377.991
101378.209
101378.44
101378.682
101378.938
101379.208
101379.491
101379.79
101380.104
101380.435
101380.781
101381.141
101381.514
101381.895
101382.281
101382.663
101383.033
101383.379
101383.686
101383.933
101384.098
101384.151
101384.08
101383.871
101383.358
101375.167
101375.17
101375.173
101375.179
101375.185
101375.193
101375.203
101375.214
101375.226
101375.24
101375.256
101375.273
101375.292
101375.312
101375.334
101375.358
101375.384
101375.411
101375.44
101375.471
101375.504
101375.54
101375.577
101375.616
101375.658
101375.702
101375.748
101375.797
101375.848
101375.902
101375.959
101376.018
101376.081
101376.146
101376.215
101376.288
101376.365
101376.445
101376.53
101376.618
101376.712
101376.811
101376.914
101377.023
101377.139
101377.26
101377.388
101377.524
101377.667
101377.818
101377.978
101378.148
101378.326
101378.516
101378.716
101378.928
101379.152
101379.39
101379.642
101379.909
101380.192
101380.491
101380.809
101381.146
101381.501
101381.878
101382.275
101382.693
101383.128
101383.577
101384.036
101384.497
101384.951
101385.386
101385.786
101386.131
101386.398
101386.565
101386.624
101386.52
101376.084
101376.086
101376.088
101376.092
101376.097
101376.104
101376.111
101376.12
101376.131
101376.143
101376.157
101376.172
101376.188
101376.206
101376.226
101376.247
101376.27
101376.294
101376.32
101376.348
101376.378
101376.41
101376.443
101376.479
101376.517
101376.556
101376.598
101376.642
101376.689
101376.738
101376.79
101376.845
101376.903
101376.964
101377.028
101377.095
101377.166
101377.24
101377.319
101377.403
101377.492
101377.586
101377.685
101377.79
101377.901
101378.019
101378.144
101378.277
101378.418
101378.568
101378.728
101378.897
101379.077
101379.267
101379.47
101379.685
101379.914
101380.158
101380.419
101380.697
101380.994
101381.31
101381.647
101382.005
101382.387
101382.793
101383.224
101383.68
101384.161
101384.666
101385.189
101385.728
101386.274
101386.818
101387.348
101387.848
101388.299
101388.674
101388.961
101389.119
101376.834
101376.834
101376.834
101376.836
101376.839
101376.844
101376.849
101376.856
101376.865
101376.874
101376.885
101376.897
101376.911
101376.926
101376.943
101376.961
101376.98
101377.001
101377.024
101377.049
101377.075
101377.103
101377.133
101377.165
101377.198
101377.234
101377.272
101377.313
101377.355
101377.401
101377.448
101377.498
101377.551
101377.607
101377.666
101377.729
101377.796
101377.866
101377.941
101378.019
101378.103
101378.191
101378.285
101378.385
101378.491
101378.604
101378.725
101378.853
101378.99
101379.136
101379.292
101379.459
101379.637
101379.826
101380.028
101380.242
101380.472
101380.728
101381.01
101381.307
101381.622
101381.958
101382.315
101382.695
101383.097
101383.522
101383.973
101384.453
101384.963
101385.502
101386.069
101386.66
101387.27
101387.892
101388.514
101389.122
101389.695
101390.204
101390.624
101390.892
101377.443
101377.441
101377.44
101377.439
101377.44
101377.442
101377.445
101377.449
101377.455
101377.462
101377.47
101377.479
101377.49
101377.502
101377.516
101377.531
101377.547
101377.565
101377.584
101377.605
101377.628
101377.652
101377.678
101377.706
101377.735
101377.767
101377.8
101377.835
101377.872
101377.911
101377.952
101377.997
101378.046
101378.096
101378.148
101378.204
101378.263
101378.326
101378.393
101378.464
101378.539
101378.62
101378.706
101378.799
101378.899
101379.007
101379.123
101379.248
101379.384
101379.531
101379.691
101379.866
101380.055
101380.26
101380.482
101380.717
101380.964
101381.214
101381.474
101381.758
101382.065
101382.396
101382.749
101383.126
101383.525
101383.953
101384.413
101384.931
101385.495
101386.077
101386.68
101387.304
101387.948
101388.611
101389.284
101389.953
101390.598
101391.186
101391.667
101391.984
101377.901
101377.896
101377.892
101377.888
101377.886
101377.885
101377.886
101377.887
101377.889
101377.893
101377.898
101377.904
101377.912
101377.921
101377.931
101377.943
101377.956
101377.97
101377.986
101378.004
101378.023
101378.043
101378.065
101378.088
101378.114
101378.14
101378.169
101378.2
101378.233
101378.269
101378.306
101378.346
101378.388
101378.432
101378.479
101378.529
101378.583
101378.639
101378.7
101378.764
101378.833
101378.907
101378.986
101379.071
101379.162
101379.261
101379.367
101379.481
101379.604
101379.737