/*--------------------------------*- C++ -*----------------------------------*\
  =========                 |
  \\      /  F ield         | OpenFOAM: The Open Source CFD Toolbox
   \\    /   O peration     | Website:  https://openfoam.org
    \\  /    A nd           | Version:  8
     \\/     M anipulation  |
\*---------------------------------------------------------------------------*/
FoamFile
{
    version     2.0;
    format      ascii;
    class       volVectorField;
    location    "0.023";
    object      U;
}
// * * * * * * * * * * * * * * * * * * * * * * * * * * * * * * * * * * * * * //

dimensions      [0 1 -1 0 0 0 0];

internalField   nonuniform List<vector> 
42400
(
(-0.0209102739 0.0200115622 -9.84632547e-27)
(-0.0609927305 0.0572988211 3.23503462e-26)
(-0.100228506 0.092490477 3.2133914e-26)
(-0.138872937 0.125778282 0)
(-0.177157921 0.157405356 0)
(-0.215294925 0.187569003 -1.46380219e-27)
(-0.253447006 0.216411153 0)
(-0.291722808 0.244022226 1.62413993e-27)
(-0.330183736 0.270448737 0)
(-0.368854705 0.295703401 1.80186808e-27)
(-0.407734091 0.319775336 1.89779503e-27)
(-0.446801805 0.342638838 -1.99873913e-27)
(-0.486025433 0.364260388 -3.33558033e-27)
(-0.52536467 0.384604031 9.32004236e-28)
(-0.564774346 0.403635366 -2.33416414e-27)
(-0.604206379 0.421324453 0)
(-0.643610976 0.437647886 0)
(-0.682937317 0.452590296 0)
(-0.722133908 0.466145433 0)
(-0.761148701 0.478316958 0)
(-0.799929005 0.489118999 0)
(-0.838421209 0.498576507 -6.687292e-27)
(-0.87657027 0.506725418 4.2755548e-26)
(-0.914318925 0.513612623 1.04823015e-25)
(-0.951606585 0.519295725 6.25533884e-26)
(-0.988367822 0.523842588 -8.19722901e-27)
(-1.02453042 0.52733067 -8.62362261e-27)
(-1.06001288 0.529846133 1.81431512e-26)
(-1.09472123 0.531482731 0)
(-1.12854502 0.532340362 0)
(-1.16135261 0.532523058 -1.03264869e-25)
(-1.19298567 0.53213582 -1.10289163e-25)
(-1.22325367 0.531278487 2.33584526e-26)
(-1.25192255 0.530035595 1.24524676e-25)
(-1.27871402 0.528490692 1.06307849e-25)
(-1.30332627 0.526743089 0)
(-1.32550667 0.524921573 0)
(-1.3450773 0.523172397 0)
(-1.36119264 0.522367524 0)
(-1.37374881 0.521064 3.35829871e-25)
(-1.38132848 0.520135075 2.91532993e-25)
(-1.38486447 0.518500262 1.5716434e-25)
(-1.38198662 0.519790908 2.10231657e-25)
(-1.37155367 0.521890025 -8.30278481e-26)
(-1.35175332 0.524304778 -1.46437658e-26)
(-1.31919537 0.527614685 -3.32760391e-25)
(-1.27297032 0.530180676 9.98178262e-26)
(-1.21070023 0.532967295 3.06151779e-25)
(-1.12972733 0.536382438 1.09115761e-25)
(-1.02703277 0.540171823 4.7278814e-25)
(-0.899837657 0.544216148 5.98487935e-33)
(-0.746370539 0.54809947 -9.23284321e-25)
(-0.560779765 0.552592468 -1.10995173e-24)
(-0.347556998 0.558173807 2.77404651e-25)
(-0.093014171 0.567704635 0)
(0.193068494 0.580428689 0)
(0.538817498 0.591365873 0)
(0.946747957 0.598614135 -3.44518207e-25)
(1.41922239 0.604791894 -3.72202692e-25)
(1.9593697 0.612139609 0)
(2.57642806 0.620396269 4.20709134e-24)
(3.27449901 0.628819706 5.194393e-24)
(4.0577316 0.637418956 -5.65963592e-24)
(4.93358126 0.645936224 -6.55916725e-24)
(5.90825308 0.653612641 0)
(6.9898462 0.664934665 0)
(8.15451797 0.680201773 -6.98172879e-24)
(9.47064537 0.641600903 -7.56969126e-24)
(10.8167548 0.688824974 -3.22144105e-25)
(11.9645488 0.957457325 0)
(13.7833922 0.525847481 0)
(15.5736383 -0.045792985 -1.4713487e-25)
(16.0639521 1.49335063 2.27571422e-25)
(17.173107 1.96134295 0)
(19.7802145 -0.194475464 -4.3550104e-25)
(21.6422383 -1.41464935 5.69735587e-24)
(22.0152774 0.515998983 3.06501117e-25)
(21.8690498 2.4306043 -1.35800693e-24)
(22.8418448 1.86205895 -6.84519021e-24)
(23.3528457 0.544629519 -1.74238157e-23)
(-0.0255945179 0.0226707246 0)
(-0.074468445 0.0651247755 2.61221469e-26)
(-0.122061281 0.105441964 2.4811287e-26)
(-0.168638492 0.14381813 0)
(-0.214457053 0.18049545 0)
(-0.259742248 0.215671218 1.75164102e-26)
(-0.304668553 0.249489732 1.69891556e-26)
(-0.349352629 0.282045101 1.90672765e-27)
(-0.393859423 0.313387453 0)
(-0.438212254 0.343531837 2.11185922e-27)
(-0.482402488 0.372467467 2.22228313e-27)
(-0.526397641 0.400165913 -1.44305195e-27)
(-0.570147822 0.426587943 7.47445652e-27)
(-0.613590681 0.451689061 6.73226578e-27)
(-0.656655077 0.475423924 -1.39499015e-26)
(-0.69926368 0.497749791 -1.02509152e-26)
(-0.741334744 0.518629202 0)
(-0.782783237 0.538032038 6.34515326e-27)
(-0.823521466 0.55593711 0)
(-0.86345928 0.572333356 0)
(-0.902503878 0.587220707 0)
(-0.940559236 0.600610663 4.15598672e-26)
(-0.977525111 0.612526585 1.02794821e-25)
(-1.01329561 0.62300374 6.17900881e-26)
(-1.04775721 0.632089112 0)
(-1.08078619 0.63984099 -1.87997939e-26)
(-1.1122454 0.646328335 -9.83822011e-27)
(-1.14198041 0.651629638 2.06391958e-26)
(-1.169815 0.655831173 9.49224265e-26)
(-1.19554814 0.659026013 1.01941541e-25)
(-1.21894567 0.66131383 -2.39485219e-26)
(-1.23973403 0.662794971 -2.50686305e-26)
(-1.2576489 0.663571783 1.72867348e-25)
(-1.27237573 0.663844049 1.32812602e-25)
(-1.28375661 0.663458991 -1.94231729e-25)
(-1.29077388 0.663303299 -2.45995139e-25)
(-1.29383747 0.662561379 0)
(-1.29187823 0.662219655 3.27838262e-26)
(-1.28520589 0.660993733 0)
(-1.27066536 0.661249625 7.27967782e-26)
(-1.24787373 0.661286374 1.58096966e-25)
(-1.21394971 0.661728105 1.87307877e-25)
(-1.16838411 0.661239517 8.3898731e-26)
(-1.10901687 0.660880763 -8.63806642e-26)
(-1.03397871 0.660833994 1.79204824e-25)
(-0.941013438 0.66115612 -9.21376886e-26)
(-0.827772715 0.661850904 9.50228418e-26)
(-0.691737905 0.662796109 1.99668597e-25)
(-0.531062563 0.663249574 4.83457712e-25)
(-0.340215285 0.663533575 0)
(-0.118404491 0.666473499 -1.11870524e-25)
(0.130548379 0.674253905 2.23029941e-25)
(0.420257512 0.682042008 6.15833881e-26)
(0.773486731 0.686441198 8.33422587e-25)
(1.18104056 0.689357809 2.81949746e-25)
(1.64767889 0.694184138 2.56332087e-24)
(2.18173902 0.700962606 2.67454309e-24)
(2.78739295 0.709003602 -2.97504591e-25)
(3.4688423 0.718364181 -3.0779647e-25)
(4.23114381 0.729318784 3.75463879e-24)
(5.08094374 0.741706232 4.40661158e-24)
(6.02291665 0.755833906 3.16076362e-25)
(7.05909114 0.771936459 -3.16253996e-25)
(8.19502454 0.787718121 0)
(9.42538481 0.796730545 -6.49383847e-24)
(10.7484655 0.806175087 -1.17986906e-23)
(12.0758129 0.866133597 -5.82277553e-24)
(13.5144467 0.858257574 0)
(15.0658171 0.7330181 2.97633079e-26)
(16.1648647 1.10803546 1.07161295e-25)
(17.4060168 1.39067054 7.5004096e-24)
(19.4430491 0.382850617 8.89229381e-24)
(20.5649993 0.249172424 -3.22252897e-24)
(20.9166591 1.85814383 -8.88431914e-24)
(21.9384045 1.93719931 4.56977375e-26)
(23.1561236 0.425089453 5.98798613e-24)
(23.4915088 0.156112369 1.65001752e-23)
(23.4588107 0.674619953 -2.71266426e-24)
(23.480559 1.2298074 -1.09891258e-23)
(23.4100333 1.19237032 -1.7963779e-23)
(-0.0296305567 0.0242613883 3.02658986e-27)
(-0.0860674477 0.0698424957 7.80378604e-28)
(-0.140837112 0.113309974 -8.25215319e-28)
(-0.194229522 0.154871115 8.66765652e-28)
(-0.246499965 0.194755104 0)
(-0.297895687 0.233160834 -1.26988667e-26)
(-0.348595237 0.270234479 1.89157104e-33)
(-0.398716813 0.306071569 7.57041756e-27)
(-0.448322752 0.340723645 4.5531661e-27)
(-0.497428383 0.374206446 2.44895047e-27)
(-0.546011454 0.406508307 7.57224246e-29)
(-0.594020249 0.437597754 2.62586378e-27)
(-0.641380263 0.467430073 2.76224963e-27)
(-0.687999554 0.495952873 -1.53031776e-26)
(-0.733772928 0.523110728 -2.02529649e-26)
(-0.778585074 0.548848975 9.63959947e-27)
(-0.822312792 0.573116783 2.43557954e-26)
(-0.864826465 0.595869596 7.40333515e-26)
(-0.905990853 0.617071059 4.32336532e-26)
(-0.945665296 0.636694499 7.84445726e-27)
(-0.983703373 0.654724039 -8.23421024e-27)
(-1.01995196 0.671155405 -8.63963228e-27)
(-1.05424953 0.685996509 0)
(-1.08642353 0.699267668 1.89501637e-26)
(-1.11628701 0.71100149 -8.61620215e-26)
(-1.14363411 0.721242294 5.77904916e-29)
(-1.16823425 0.730044973 1.0226896e-25)
(-1.18983001 0.737474589 1.0981094e-25)
(-1.20815022 0.743594072 1.15981007e-25)
(-1.22289885 0.748468502 -9.66274454e-26)
(-1.23377904 0.752131218 -2.57618498e-26)
(-1.24026378 0.754854116 2.77232226e-25)
(-1.24235704 0.756532413 2.50889422e-25)
(-1.23952908 0.75758856 0)
(-1.23106948 0.758602515 0)
(-1.21742605 0.758682575 -3.20429116e-26)
(-1.1953296 0.75915434 0)
(-1.16412048 0.75869919 7.06732743e-26)
(-1.1212645 0.757939273 2.03932631e-25)
(-1.06677645 0.756149122 1.5242344e-25)
(-0.99869698 0.754288183 -1.84282553e-25)
(-0.915417481 0.752520727 0)
(-0.814660992 0.750800879 0)
(-0.69392459 0.749008682 2.59642949e-25)
(-0.551414232 0.746552005 3.804634e-25)
(-0.383154076 0.743633827 9.29026823e-26)
(-0.190787513 0.741406754 0)
(0.0355153161 0.742821696 0)
(0.282626539 0.7478538 3.21801132e-25)
(0.584026126 0.751546953 2.96085022e-25)
(0.934953304 0.752513862 -1.12654175e-25)
(1.34000472 0.754122026 0)
(1.80386441 0.757881563 -5.14312761e-25)
(2.33142689 0.763896144 -7.83122126e-25)
(2.92636003 0.772095122 -1.55222556e-24)
(3.59401983 0.78297671 -1.62241458e-24)
(4.34016991 0.796983232 -2.25387776e-24)
(5.16988787 0.814404425 -3.21396388e-32)
(6.0860524 0.835919834 3.93473455e-32)
(7.08988179 0.862049135 -7.44214885e-24)
(8.18170677 0.892097302 -4.13244329e-24)
(9.36144916 0.922630015 4.36580798e-24)
(10.6222531 0.952499651 4.49149735e-24)
(11.9443918 0.987549293 0)
(13.3101089 1.02156563 5.25116489e-24)
(14.7382064 1.02733016 1.17259316e-23)
(16.0998811 1.08744607 5.67493545e-24)
(17.3825643 1.23374838 0)
(18.812879 1.11397062 -3.41410743e-26)
(20.0576949 1.03235525 6.07201543e-24)
(20.8086345 1.59964961 6.31050622e-24)
(21.7978447 1.64631809 0)
(23.0448713 0.885180529 0)
(23.5053066 0.908846221 7.27897171e-25)
(23.55054 1.34749018 -7.73738487e-25)
(23.5381074 1.70175347 8.02071075e-24)
(23.505425 1.31699335 1.51130933e-23)
(23.5099325 1.11466847 0)
(23.4848946 1.10369017 -3.10987714e-25)
(23.4222962 1.17444328 1.16772029e-23)
(-0.0330976054 0.0250089915 5.4511779e-28)
(-0.0960149024 0.0720594516 8.57531775e-28)
(-0.156923727 0.117017077 7.21485223e-27)
(-0.21613047 0.160098985 -4.21283642e-27)
(-0.273919116 0.201537317 -5.09110657e-27)
(-0.330515836 0.241516655 0)
(-0.386099922 0.28018088 -4.75291404e-27)
(-0.440801968 0.317632134 -3.83052341e-27)
(-0.49467111 0.353926007 1.98251784e-27)
(-0.547707491 0.389078735 5.79983549e-27)
(-0.599867912 0.42307839 1.55122715e-26)
(-0.651073705 0.455892106 7.00853095e-34)
(-0.701217682 0.487472197 3.04753195e-27)
(-0.750169843 0.517761578 4.10683253e-33)
(-0.797781924 0.546698493 -3.37176427e-27)
(-0.843890889 0.574220508 4.43813468e-26)
(-0.88832147 0.600267817 -5.14821607e-26)
(-0.930887769 0.624785986 -7.79179067e-27)
(-0.971393904 0.647728271 5.89227627e-26)
(-1.00963385 0.669057701 8.57562351e-27)
(-1.04539028 0.688748742 -1.80269898e-26)
(-1.07843289 0.706787979 -8.44630407e-26)
(-1.10851113 0.72316849 -9.36359709e-26)
(-1.13535262 0.737886468 1.03448963e-26)
(-1.15866707 0.750943277 0)
(-1.17814589 0.762340144 1.13150991e-26)
(-1.1934426 0.772095908 0)
(-1.20430369 0.780290496 1.61697764e-25)
(-1.21038603 0.787076956 3.36325442e-25)
(-1.21135443 0.792640003 2.15558289e-25)
(-1.20681164 0.797335146 -1.94075726e-25)
(-1.19661938 0.801022364 -2.05180801e-25)
(-1.17872233 0.803888021 6.06111946e-26)
(-1.15234132 0.805546804 3.17169436e-26)
(-1.11618103 0.805921607 -1.96017514e-25)
(-1.06824362 0.805370299 -2.8139563e-25)
(-1.00849748 0.803837848 0)
(-0.935206119 0.801894781 3.25870969e-25)
(-0.846756011 0.799631012 3.02897638e-25)
(-0.74099757 0.797046585 7.7940477e-26)
(-0.615540248 0.794101311 8.02192514e-26)
(-0.468676508 0.790217312 0)
(-0.29648186 0.785568574 0)
(-0.097611139 0.783153448 0)
(0.121934313 0.784907007 8.82159442e-26)
(0.377560761 0.786982753 3.1284541e-25)
(0.684577012 0.786422321 3.66421339e-25)
(1.03670734 0.785536276 0)
(1.43936576 0.787146265 0)
(1.89894815 0.791508427 6.25006273e-25)
(2.41940452 0.798322969 5.49403065e-25)
(3.00537092 0.808018634 7.43637308e-25)
(3.66206689 0.821285549 8.36582283e-25)
(4.39445844 0.838689472 -2.43265807e-25)
(5.2066638 0.860715197 -1.29439489e-24)
(6.10082017 0.88801919 -9.63356315e-25)
(7.07797713 0.921130326 -2.74422905e-24)
(8.13745084 0.960440406 -2.93644299e-24)
(9.27829235 1.00577314 0)
(10.4942739 1.05629832 1.56738697e-25)
(11.7727717 1.11325868 -3.67027531e-24)
(13.0927335 1.17346876 -7.91339652e-24)
(14.4449564 1.23206533 -6.9808293e-26)
(15.7951818 1.28844204 -5.08766716e-26)
(17.1137387 1.35723526 -5.4984716e-24)
(18.4135739 1.395749 6.57720537e-24)
(19.6634763 1.3923444 6.98086161e-24)
(20.7101319 1.52735112 -1.80218295e-25)
(21.6138089 1.65416674 -4.9980245e-24)
(22.5907766 1.50348556 -9.75752708e-24)
(23.2874044 1.45301595 6.09099221e-26)
(23.5463441 1.70620767 -1.08290808e-23)
(23.5785243 1.73409123 -7.96597089e-24)
(23.5711397 1.57223715 0)
(23.5629798 1.49762367 -7.17099266e-24)
(23.5432039 1.50174388 -2.52191066e-23)
(23.5143886 1.52623423 9.904576e-26)
(23.4777635 1.4557606 6.41965764e-24)
(23.4716341 1.40618131 6.96854457e-24)
(23.462434 1.35334354 1.01208658e-23)
(-0.0362832377 0.0252464224 2.68905979e-27)
(-0.105113725 0.07271093 0)
(-0.171587683 0.118044464 0)
(-0.236030398 0.161471799 1.41694334e-30)
(-0.298733663 0.20322814 0)
(-0.359946329 0.24350735 0)
(-0.419845692 0.282448113 0)
(-0.478503181 0.32014218 -5.15858231e-27)
(-0.535988972 0.356646955 0)
(-0.592273074 0.391988507 2.86630329e-27)
(-0.647282736 0.426157241 2.38485928e-26)
(-0.700904122 0.459122003 3.97331194e-33)
(-0.75298837 0.490836477 -2.6421745e-26)
(-0.803357527 0.521244244 0)
(-0.851809325 0.550283383 -3.68946371e-27)
(-0.898120686 0.577890635 7.76894794e-27)
(-0.942049865 0.604004581 0)
(-0.983337037 0.628567766 6.98517763e-26)
(-1.02170428 0.651528085 9.01862195e-27)
(-1.05684989 0.672837327 -1.70197659e-25)
(-1.08844897 0.692448207 -1.08455739e-25)
(-1.11618871 0.710278148 1.02929098e-26)
(-1.13971193 0.726422366 0)
(-1.15873578 0.740881217 -1.42876296e-25)
(-1.17292428 0.753737204 -1.59815192e-25)
(-1.18192727 0.765116004 -1.64348114e-25)
(-1.18541599 0.775161096 -1.90300433e-25)
(-1.18237039 0.783654782 2.01538298e-25)
(-1.17206852 0.790635672 1.99102159e-25)
(-1.15364956 0.796082524 0)
(-1.12606783 0.799974137 -2.30473075e-25)
(-1.08786886 0.80244091 -2.61259307e-25)
(-1.03872372 0.803752913 3.27642926e-26)
(-0.97723463 0.804159812 -2.65057185e-25)
(-0.901964362 0.803741416 -3.12685601e-25)
(-0.811288739 0.802590643 -7.33091731e-26)
(-0.703151352 0.800786685 3.8211749e-26)
(-0.57526448 0.798390733 -3.31071523e-25)
(-0.425814639 0.794979509 -3.67970539e-25)
(-0.251232137 0.790726578 5.53684413e-25)
(-0.0496531963 0.788681767 1.1365669e-24)
(0.17021919 0.789902142 4.47844275e-25)
(0.434741954 0.79069465 0)
(0.740517769 0.789832609 -9.820848e-26)
(1.09219235 0.790066063 -5.80360927e-25)
(1.49354968 0.792814686 -1.04487994e-25)
(1.94915756 0.798282752 2.04434225e-32)
(2.4631259 0.80670175 -5.14409766e-25)
(3.04055699 0.818885479 0)
(3.68654796 0.835487615 -1.16700368e-25)
(4.405446 0.857072088 -1.03340532e-24)
(5.20073723 0.884193905 -8.72909494e-25)
(6.0742252 0.917561097 -4.63051217e-25)
(7.02636248 0.957827025 -1.56215251e-24)
(8.0561099 1.00553653 -1.27216874e-24)
(9.16059409 1.06094505 -1.46837851e-24)
(10.3367812 1.12305811 -4.63618283e-24)
(11.5775873 1.19025322 -3.24437879e-24)
(12.8691429 1.26420236 -3.4793058e-24)
(14.1868713 1.34521582 -3.53849424e-24)
(15.509801 1.43763972 0)
(16.800495 1.53250706 -3.06946057e-27)
(18.0605342 1.62580491 -3.97594356e-24)
(19.2450353 1.69648334 -4.37113305e-24)
(20.369479 1.76549711 -2.06943093e-26)
(21.3552722 1.83660394 0)
(22.308756 1.83685683 9.29540881e-24)
(23.0377691 1.83506029 1.26546409e-23)
(23.4627617 1.89181624 3.99919341e-25)
(23.6301263 1.95741517 -3.11187323e-25)
(23.628163 1.91928584 -2.67619208e-26)
(23.6288571 1.92484598 -2.50303452e-25)
(23.5758561 1.92937378 -7.90866339e-24)
(23.5442273 1.89008776 -8.21895025e-24)
(23.5441431 1.78999887 -2.81568251e-25)
(23.5325671 1.75083021 0)
(23.5026586 1.7129115 -6.98591832e-24)
(23.4766654 1.67954381 -8.18943279e-24)
(23.475622 1.62368421 0)
(23.4672337 1.55598728 -1.29447296e-23)
(-0.0394809105 0.0252302077 -4.15293901e-27)
(-0.114173304 0.0725402124 -5.35472398e-27)
(-0.186090049 0.117605236 -6.70783163e-27)
(-0.255576544 0.160657275 -1.14892238e-27)
(-0.322932144 0.201934252 2.28791477e-27)
(-0.388402141 0.241632634 -2.55627369e-27)
(-0.452156162 0.279900618 4.04619039e-27)
(-0.514290574 0.316830421 5.83886867e-28)
(-0.574762517 0.352474568 3.00177748e-27)
(-0.6335534 0.386853053 6.32410763e-27)
(-0.690550693 0.419971267 -9.29470078e-27)
(-0.745590899 0.451805992 -4.8292994e-26)
(-0.798470588 0.482316147 -3.98198751e-26)
(-0.84894971 0.511451026 -4.4273578e-26)
(-0.896756013 0.539155006 4.09153076e-27)
(-0.941586007 0.56536667 7.58591833e-26)
(-0.983107041 0.590037944 0)
(-1.02097293 0.613113449 0)
(-1.05483284 0.634511648 9.49095109e-26)
(-1.08432046 0.654309401 2.2456836e-25)
(-1.10907804 0.672502514 1.26119537e-25)
(-1.12858757 0.689085717 1.46944551e-25)
(-1.14233583 0.703928654 3.62589274e-33)
(-1.14969322 0.717094565 -1.91544091e-25)
(-1.14999358 0.728566385 1.81438113e-25)
(-1.14244875 0.738343045 4.22095675e-25)
(-1.12609978 0.746414868 2.16179748e-25)
(-1.10039765 0.753082357 -1.49247724e-26)
(-1.06432398 0.758404672 1.55597656e-26)
(-1.0167335 0.762456163 -3.24094131e-26)
(-0.95634846 0.765320487 0)
(-0.881752506 0.767094104 3.58945722e-25)
(-0.791311027 0.767898096 -3.66583049e-26)
(-0.683003311 0.767869886 -3.62096789e-25)
(-0.554665707 0.767134935 0)
(-0.40443422 0.765420563 -4.34935418e-25)
(-0.229083945 0.762920087 -4.70202241e-25)
(-0.02633515 0.762271036 0)
(0.195960624 0.764249119 0)
(0.462049628 0.765947302 -3.45694915e-25)
(0.768145835 0.766544054 -5.21410052e-25)
(1.11836033 0.768793759 2.05757725e-25)
(1.51680312 0.773821514 0)
(1.96752691 0.781863898 4.91532731e-25)
(2.47498424 0.793442303 1.14722185e-24)
(3.043922 0.809208885 5.50521233e-25)
(3.67886841 0.829856512 1.20402673e-25)
(4.38375172 0.856073091 -1.85415686e-27)
(5.16174635 0.888536898 0)
(6.01459358 0.928064858 -1.02088517e-24)
(6.94265527 0.975424018 -2.39838908e-25)
(7.9446115 1.03120988 1.13371876e-24)
(9.01729988 1.09582961 -2.1704896e-25)
(10.1556055 1.16943786 -1.68148958e-24)
(11.3533697 1.25107897 -3.06902814e-24)
(12.6011231 1.3391095 -1.67502484e-32)
(13.8823625 1.43217191 1.77154895e-24)
(15.178867 1.52681225 0)
(16.4713234 1.62395193 0)
(17.7277462 1.72272601 1.69160698e-26)
(18.9216037 1.83234002 5.68563498e-26)
(20.0065986 1.94381614 0)
(20.9986029 2.05105387 4.48247651e-24)
(21.851089 2.11930673 5.07702536e-24)
(22.680792 2.14446897 -9.57400007e-24)
(23.2613017 2.14885157 -2.68044048e-23)
(23.5233872 2.18132509 -8.4091625e-24)
(23.5871054 2.16266673 -3.30972196e-24)
(23.6357687 2.15150516 -2.67972026e-24)
(23.6342829 2.11612592 -2.64644206e-25)
(23.6366004 2.13734206 6.32422877e-24)
(23.6013648 2.09646252 8.59697211e-24)
(23.557845 2.1132945 -8.21896085e-24)
(23.5167511 2.11207028 -8.02928359e-24)
(23.506362 2.08468243 -8.13274014e-24)
(23.5115519 1.9994254 -7.48207538e-24)
(23.488432 1.93597667 -8.66128816e-24)
(23.4747921 1.88779612 5.18477843e-32)
(23.4896325 1.81796647 1.54052664e-23)
(23.4882807 1.7635535 1.63869897e-23)
(-0.0428945298 0.0250940518 2.16180692e-27)
(-0.123735719 0.0719504844 1.15109626e-27)
(-0.20124047 0.116380578 4.30758664e-27)
(-0.275770436 0.158622112 -2.01020522e-33)
(-0.347626526 0.198916656 -1.41691966e-27)
(-0.417045041 0.237461954 -1.9819143e-27)
(-0.48417603 0.274408683 6.84441403e-27)
(-0.549080084 0.309863506 2.8606176e-27)
(-0.61174423 0.343882064 8.85732313e-27)
(-0.672016098 0.376493505 1.24989156e-26)
(-0.729751521 0.407692789 1.67933826e-26)
(-0.784733664 0.437468839 1.7354201e-26)
(-0.836680487 0.465798601 2.59293955e-26)
(-0.885269754 0.492644645 3.46416505e-26)
(-0.930158399 0.517929574 4.53013506e-27)
(-0.97092656 0.541714399 4.76854364e-27)
(-1.00717142 0.563851731 9.75408764e-26)
(-1.03839622 0.584353175 1.13564637e-25)
(-1.06406977 0.603237473 -1.09851718e-26)
(-1.08367219 0.62042057 -1.15976464e-26)
(-1.09654078 0.635900826 1.50440307e-25)
(-1.10199621 0.649721833 1.65153675e-25)
(-1.09935839 0.661967569 0)
(-1.08781888 0.672641894 1.40237627e-26)
(-1.06643052 0.681811124 0)
(-1.03417614 0.689519484 0)
(-0.989921752 0.695840139 1.60598919e-26)
(-0.932399452 0.700873854 -3.31658585e-25)
(-0.860172744 0.704754783 -3.03915361e-25)
(-0.771614964 0.707631823 3.08973728e-25)
(-0.664813679 0.709664594 3.65881583e-25)
(-0.537690982 0.71102275 3.91460497e-26)
(-0.388353755 0.711553285 -4.0771661e-26)
(-0.213871261 0.711468626 0)
(-0.0117208436 0.712964483 4.41123201e-26)
(0.211440189 0.716592029 0)
(0.477141795 0.720242873 0)
(0.781805158 0.723412106 5.09612137e-26)
(1.1289782 0.728674389 0)
(1.52303684 0.736955248 0)
(1.96772542 0.74846954 6.10930311e-25)
(2.46725907 0.763822522 7.54951432e-25)
(3.02607561 0.783703263 0)
(3.64829792 0.808865527 0)
(4.33763022 0.84006567 0)
(5.09707925 0.87808833 1.30676618e-25)
(5.9283351 0.923803067 1.2922263e-25)
(6.83177521 0.978005432 8.27357431e-25)
(7.80612268 1.04132603 1.05930574e-24)
(8.84824511 1.11419065 1.19197607e-24)
(9.95291568 1.19676474 1.36302676e-24)
(11.1131322 1.28884667 1.44485688e-24)
(12.3203715 1.38943004 1.62697279e-24)
(13.5639782 1.49677888 0)
(14.8244923 1.60994306 0)
(16.0801612 1.72795753 -2.12571105e-24)
(17.3064148 1.84622544 -4.49985792e-24)
(18.4874554 1.9555636 -2.47398009e-24)
(19.6027493 2.05205186 -2.87540973e-24)
(20.6341851 2.14277009 -3.17046951e-24)
(21.5394891 2.23298424 6.18549748e-24)
(22.2912929 2.32225433 1.15537179e-23)
(22.8837256 2.3877708 2.12222061e-25)
(23.3754496 2.42972021 -9.59129545e-24)
(23.5217767 2.46769395 1.60764104e-25)
(23.5446397 2.47923169 -1.70962026e-25)
(23.553503 2.43348501 5.14700991e-24)
(23.5635667 2.40598346 -1.01405506e-32)
(23.579861 2.33179097 -7.70106901e-24)
(23.5945851 2.26407443 -3.07460973e-25)
(23.5978996 2.1978521 1.07393905e-23)
(23.6049404 2.18060156 6.38254909e-24)
(23.5657198 2.16544502 0)
(23.5190456 2.19450454 2.3608586e-25)
(23.4892792 2.18235657 0)
(23.4685131 2.14682752 1.05219965e-23)
(23.4639583 2.17047147 1.54507635e-23)
(23.464682 2.12148065 8.96022661e-24)
(23.4784385 2.0942488 6.8514538e-24)
(23.4623719 2.01528366 2.24275053e-23)
(-0.0465450224 0.0248294328 2.12493535e-27)
(-0.133799398 0.0709439564 6.31819035e-27)
(-0.216946432 0.114416604 -1.37296007e-27)
(-0.29635835 0.155490667 -2.55225321e-27)
(-0.37233064 0.194410928 -1.9213125e-29)
(-0.445080753 0.231376531 1.1254974e-27)
(-0.514727646 0.266539479 -3.39703117e-27)
(-0.58128896 0.300010183 -1.29045711e-26)
(-0.644689017 0.33186388 -1.66749434e-26)
(-0.704780454 0.3621349 -2.04695204e-26)
(-0.761294846 0.390835584 0)
(-0.813909255 0.417981352 -8.8175181e-27)
(-0.862269395 0.443520754 4.64865552e-27)
(-0.905932102 0.467452711 0)
(-0.944391808 0.489790454 0)
(-0.977180067 0.51043841 0)
(-1.00364474 0.529469904 0)
(-1.02316121 0.546845459 -5.96075234e-27)
(-1.03502282 0.562577407 0)
(-1.0384493 0.57668841 -9.88370063e-26)
(-1.03257445 0.589218469 -1.08973039e-25)
(-1.01649965 0.600201886 1.95967006e-25)
(-0.989139363 0.609735738 2.31832065e-25)
(-0.949361982 0.617888187 -2.38755432e-25)
(-0.895886011 0.624782237 -2.94168254e-25)
(-0.827293515 0.630552453 -3.01290065e-25)
(-0.742001059 0.635354416 -3.0812727e-25)
(-0.638185051 0.639368854 -3.87083538e-25)
(-0.513846705 0.64280073 -7.22196037e-25)
(-0.367074716 0.645594553 -3.91581749e-25)
(-0.195167333 0.647971009 0)
(0.00463705715 0.651730383 -4.45952212e-26)
(0.226558479 0.65732954 -4.62935277e-26)
(0.489643938 0.663326263 0)
(0.790683132 0.669439418 5.11031518e-26)
(1.1328375 0.677949437 0)
(1.5205024 0.68963413 0)
(1.95714185 0.704749519 6.70043055e-25)
(2.44670728 0.72396692 -6.05134462e-26)
(2.99333568 0.748031351 -6.77905192e-25)
(3.60086934 0.777738853 7.81397781e-25)
(4.27278006 0.813892438 7.59750502e-25)
(5.01191525 0.857305261 6.85292556e-26)
(5.81996112 0.908845352 0)
(6.69740682 0.969304505 7.94390912e-25)
(7.64323085 1.03932832 1.15846602e-24)
(8.65463318 1.11936268 0)
(9.72681681 1.20960499 0)
(10.8528113 1.30990694 -1.56641215e-24)
(12.0237804 1.41977274 -1.75329255e-24)
(13.2286734 1.5382254 1.82023284e-24)
(14.4566001 1.66271976 1.79211611e-24)
(15.6887904 1.79159474 -1.99556889e-24)
(16.9041781 1.92329168 -1.33287407e-32)
(18.0775265 2.0553611 2.0011401e-24)
(19.1831633 2.18790209 1.00181499e-26)
(20.193437 2.31764639 0)
(21.1061064 2.42943641 1.68737273e-26)
(21.9118642 2.50464894 -2.18960352e-24)
(22.6413518 2.55701831 1.07949104e-25)
(23.1722601 2.6089774 5.22868499e-24)
(23.4892045 2.64369746 0)
(23.6001456 2.69484826 6.03555466e-26)
(23.5728516 2.70575248 0)
(23.5579422 2.72540239 1.74542978e-26)
(23.5241733 2.69236391 -4.31735407e-26)
(23.501601 2.68379379 -1.97975401e-25)
(23.4933113 2.60648482 -8.44605637e-24)
(23.5110784 2.54748517 -5.89492358e-24)
(23.5176134 2.46821542 -2.6017623e-25)
(23.5263141 2.37419567 -8.98790724e-24)
(23.5449611 2.3117817 -6.74875973e-24)
(23.5155943 2.25112355 -9.55293764e-24)
(23.4963796 2.23187782 -9.72770283e-24)
(23.491217 2.22114793 -9.20593383e-24)
(23.4905458 2.16736085 -8.06575513e-24)
(23.4852338 2.18904162 1.0536818e-23)
(23.4859919 2.19204125 7.86913161e-24)
(23.5022161 2.21493243 -1.00563162e-24)
(23.50806 2.19080574 9.00978974e-25)
(-0.0501688211 0.0242866455 1.75470415e-27)
(-0.143559781 0.0691261767 -6.46881466e-27)
(-0.231834301 0.111129518 -1.56422316e-27)
(-0.315365857 0.150545476 -1.60960158e-33)
(-0.394434422 0.187620771 2.56504517e-27)
(-0.46922489 0.222556401 -1.83137364e-27)
(-0.539808383 0.255506889 9.49152354e-27)
(-0.606141126 0.286586306 3.07815935e-33)
(-0.668067144 0.315888482 -3.36367299e-26)
(-0.725330157 0.343446721 -2.43761931e-26)
(-0.777572436 0.369303772 4.7551515e-27)
(-0.824369389 0.393454094 -3.9850438e-26)
(-0.865177086 0.41592958 -3.56661015e-26)
(-0.899427997 0.436719531 -4.79157794e-26)
(-0.9264736 0.455837103 -5.54868007e-26)
(-0.945590949 0.473299257 6.35729889e-26)
(-0.955984734 0.489132218 7.23154691e-26)
(-0.956780962 0.503383015 -6.70255876e-27)
(-0.947049152 0.516090492 0)
(-0.92570997 0.527359833 -9.37748032e-26)
(-0.891611073 0.537258376 -1.12127969e-25)
(-0.843471302 0.545911552 -1.63753471e-26)
(-0.779882194 0.553462025 1.35160269e-25)
(-0.699291072 0.560072996 1.65687695e-25)
(-0.599967636 0.565948894 -3.75313959e-26)
(-0.480023701 0.571315658 0)
(-0.337548813 0.576207548 2.06175966e-26)
(-0.170031525 0.580871737 2.66471603e-28)
(0.0254459733 0.58677568 -4.76680379e-25)
(0.244059334 0.594303598 -4.11988264e-25)
(0.502327645 0.602578042 4.40172128e-25)
(0.797408263 0.611492448 4.45306565e-25)
(1.13257006 0.622977299 -1.07724623e-25)
(1.51173663 0.637770728 -5.16081301e-25)
(1.93820524 0.656214858 -4.15013072e-32)
(2.41569579 0.679017376 6.33010718e-25)
(2.94806253 0.706946933 -7.32062603e-25)
(3.53888908 0.740810447 -7.06839232e-25)
(4.19143069 0.781429971 -1.36634406e-25)
(4.90840127 0.829630003 7.05551705e-26)
(5.69150779 0.886269762 7.09925563e-26)
(6.54139512 0.952134058 -9.13313817e-25)
(7.45735317 1.02787196 -1.91324099e-24)
(8.4370411 1.11394806 -1.09188829e-24)
(9.47622645 1.21058655 -1.35709092e-24)
(10.5685644 1.31769286 -1.36439783e-24)
(11.7054906 1.43477004 0)
(12.8763139 1.56087897 1.63169499e-24)
(14.0683882 1.6945435 1.88767686e-24)
(15.2694385 1.83301599 2.02893922e-24)
(16.4616423 1.97403998 4.35141446e-24)
(17.6235031 2.11512968 4.62617741e-24)
(18.7330998 2.25282641 4.88698848e-24)
(19.7697852 2.38310135 5.18171569e-24)
(20.7125008 2.50295882 2.72992076e-24)
(21.537067 2.61292114 -5.02984023e-26)
(22.2240039 2.71844555 0)
(22.7676543 2.79711203 -3.31296821e-24)
(23.232042 2.84187669 -4.17349914e-24)
(23.4848299 2.86560336 0)
(23.5536875 2.84986277 -2.38698976e-24)
(23.5988929 2.86358733 -1.73804019e-24)
(23.5852105 2.83759233 0)
(23.5879257 2.87675629 -3.37498667e-26)
(23.5354594 2.86818176 0)
(23.488024 2.89455864 -8.24401675e-24)
(23.4403319 2.89248669 -5.05663058e-25)
(23.4110269 2.8658394 7.24589761e-24)
(23.4051104 2.81778784 -3.81627921e-25)
(23.3958856 2.74182407 -4.25406414e-25)
(23.4130585 2.66690999 -6.24144802e-24)
(23.4309749 2.57664708 -6.33124903e-24)
(23.4402861 2.50123697 -2.97106928e-25)
(23.4516533 2.3955738 -4.30597095e-25)
(23.4574766 2.37320798 -3.70407537e-26)
(23.4882977 2.29345866 -3.14878788e-25)
(23.5360129 2.24918 9.66091516e-24)
(23.5934993 2.21130877 1.89478487e-23)
(23.6491198 2.24953171 1.15256974e-23)
(23.6116301 2.31489357 -7.32246678e-25)
(-0.0533482269 0.0232951035 0)
(-0.151759313 0.0660235828 -1.69126098e-27)
(-0.243782988 0.105779513 1.78272722e-27)
(-0.32977694 0.142818631 -5.25600288e-27)
(-0.409986629 0.177393141 1.98221752e-27)
(-0.484541159 0.209701735 2.08904891e-27)
(-0.553430253 0.239907923 -1.57372562e-26)
(-0.616507952 0.268134463 0)
(-0.673505194 0.294460273 4.87146994e-27)
(-0.724018199 0.318968149 -3.10827231e-26)
(-0.767559338 0.341700583 -3.20386588e-26)
(-0.8035369 0.362701826 4.4309226e-26)
(-0.831267495 0.382012629 5.99333186e-27)
(-0.849979606 0.399675403 -1.13031028e-25)
(-0.858812954 0.415740041 -1.36761633e-25)
(-0.856807775 0.43027892 -7.04652678e-26)
(-0.842954803 0.44334621 -7.29864452e-27)
(-0.81604457 0.455078039 -9.70354542e-26)
(-0.774825736 0.465559086 -1.00042702e-25)
(-0.717898964 0.474948174 8.37942836e-27)
(-0.643718418 0.483419768 -8.86547887e-27)
(-0.550581621 0.491182359 -3.69479896e-26)
(-0.436834866 0.49840329 -1.50832212e-25)
(-0.300508892 0.505286731 -3.34364312e-25)
(-0.139382726 0.51222877 -1.9520112e-25)
(0.0496089536 0.520320932 -2.21071485e-26)
(0.262619498 0.529772963 -1.48870224e-25)
(0.513912466 0.540174054 2.42379386e-26)
(0.800933163 0.551623786 -2.54366109e-26)
(1.12695027 0.565800527 -2.35470101e-25)
(1.49542634 0.583411157 0)
(1.90958119 0.604844753 -6.01681011e-25)
(2.37293685 0.63081287 -6.05080503e-26)
(2.88906522 0.662097553 7.06797851e-25)
(3.4613053 0.699525866 7.49388678e-25)
(4.0927124 0.743941045 7.9465784e-25)
(4.78588729 0.796180028 -7.04464874e-26)
(5.54256098 0.857100494 0)
(6.3635292 0.92749044 -1.48906504e-25)
(7.24838702 1.00801443 -9.53226667e-25)
(8.19526677 1.09916775 -1.04069857e-24)