/*--------------------------------*- C++ -*----------------------------------*\
  =========                 |
  \\      /  F ield         | OpenFOAM: The Open Source CFD Toolbox
   \\    /   O peration     | Website:  https://openfoam.org
    \\  /    A nd           | Version:  8
     \\/     M anipulation  |
\*---------------------------------------------------------------------------*/
FoamFile
{
    version     2.0;
    format      ascii;
    class       volScalarField;
    location    "0.058";
    object      p;
}
// * * * * * * * * * * * * * * * * * * * * * * * * * * * * * * * * * * * * * //

dimensions      [1 -1 -2 0 0 0 0];

internalField   nonuniform List<scalar> 
42400
(
101502.285
101502.276
101502.266
101502.256
101502.246
101502.236
101502.226
101502.216
101502.206
101502.195
101502.185
101502.175
101502.165
101502.155
101502.145
101502.135
101502.125
101502.115
101502.106
101502.096
101502.086
101502.077
101502.067
101502.057
101502.048
101502.038
101502.028
101502.019
101502.01
101502.001
101501.992
101501.984
101501.976
101501.968
101501.962
101501.961
101501.967
101501.976
101501.983
101501.981
101501.975
101501.97
101501.977
101501.993
101502.015
101502.039
101502.068
101502.101
101502.137
101502.174
101502.229
101502.306
101502.379
101502.427
101502.481
101502.562
101502.656
101502.748
101502.837
101502.923
101503.003
101503.078
101503.149
101503.21
101503.253
101503.259
101503.231
101503.145
101502.93
101502.86
101502.899
101501.817
101500.885
101501.984
101503.365
101501.875
101500.665
101501.619
101502.172
101505.845
101501.976
101501.969
101501.961
101501.953
101501.946
101501.938
101501.931
101501.923
101501.916
101501.909
101501.901
101501.894
101501.887
101501.881
101501.874
101501.867
101501.861
101501.855
101501.849
101501.843
101501.837
101501.832
101501.826
101501.821
101501.816
101501.811
101501.806
101501.801
101501.796
101501.792
101501.788
101501.784
101501.784
101501.789
101501.796
101501.801
101501.797
101501.788
101501.78
101501.782
101501.791
101501.802
101501.815
101501.83
101501.847
101501.867
101501.892
101501.934
101501.988
101502.028
101502.053
101502.098
101502.16
101502.228
101502.296
101502.369
101502.445
101502.528
101502.619
101502.723
101502.842
101502.968
101503.098
101503.23
101503.37
101503.507
101503.657
101503.831
101503.891
101503.997
101504.675
101504.636
101504.154
101504.912
101504.921
101505.893
101509.684
101512.79
101515.79
101517.489
101501.638
101501.633
101501.628
101501.623
101501.618
101501.612
101501.607
101501.602
101501.598
101501.593
101501.588
101501.584
101501.58
101501.576
101501.572
101501.569
101501.566
101501.563
101501.561
101501.558
101501.557
101501.555
101501.554
101501.553
101501.552
101501.552
101501.552
101501.552
101501.552
101501.555
101501.56
101501.567
101501.573
101501.572
101501.567
101501.562
101501.564
101501.572
101501.581
101501.591
101501.602
101501.614
101501.624
101501.641
101501.67
101501.713
101501.733
101501.739
101501.773
101501.822
101501.871
101501.922
101501.978
101502.04
101502.11
101502.195
101502.297
101502.414
101502.546
101502.696
101502.873
101503.08
101503.317
101503.587
101503.896
101504.24
101504.629
101505.086
101505.578
101505.975
101506.785
101507.453
101507.589
101510.051
101512.744
101514.639
101516.619
101519.565
101523.25
101525.228
101501.282
101501.278
101501.274
101501.271
101501.267
101501.264
101501.26
101501.257
101501.254
101501.251
101501.249
101501.247
101501.245
101501.244
101501.243
101501.243
101501.243
101501.243
101501.245
101501.246
101501.249
101501.251
101501.255
101501.258
101501.262
101501.266
101501.272
101501.279
101501.287
101501.294
101501.298
101501.301
101501.305
101501.312
101501.323
101501.335
101501.346
101501.359
101501.372
101501.381
101501.396
101501.432
101501.465
101501.472
101501.478
101501.507
101501.548
101501.585
101501.623
101501.668
101501.719
101501.782
101501.86
101501.951
101502.056
101502.178
101502.324
101502.501
101502.715
101502.965
101503.26
101503.604
101504.012
101504.478
101505.019
101505.65
101506.335
101507.182
101508.025
101508.889
101510.641
101513.751
101515.592
101515.9
101517.048
101519.417
101521.313
101523.131
101524.713
101526.809
101500.909
101500.906
101500.903
101500.9
101500.897
101500.894
101500.892
101500.889
101500.887
101500.885
101500.885
101500.884
101500.884
101500.885
101500.887
101500.889
101500.892
101500.896
101500.9
101500.906
101500.911
101500.916
101500.923
101500.931
101500.94
101500.951
101500.962
101500.973
101500.985
101500.998
101501.012
101501.028
101501.043
101501.059
101501.075
101501.091
101501.107
101501.125
101501.16
101501.194
101501.202
101501.212
101501.243
101501.279
101501.311
101501.345
101501.385
101501.433
101501.492
101501.561
101501.642
101501.739
101501.855
101501.996
101502.168
101502.377
101502.627
101502.921
101503.268
101503.668
101504.14
101504.674
101505.317
101506.025
101506.86
101507.758
101508.355
101509.39
101511.862
101514.834
101516.065
101516.205
101517.772
101519.767
101521.187
101522.477
101524.841
101527.465
101529.996
101532.22
101500.508
101500.505
101500.501
101500.498
101500.495
101500.493
101500.491
101500.489
101500.488
101500.487
101500.487
101500.488
101500.49
101500.493
101500.497
101500.501
101500.506
101500.512
101500.519
101500.528
101500.54
101500.553
101500.567
101500.582
101500.598
101500.614
101500.632
101500.65
101500.67
101500.69
101500.71
101500.732
101500.754
101500.777
101500.796
101500.823
101500.863
101500.887
101500.899
101500.931
101500.968
101501.001
101501.037
101501.078
101501.125
101501.178
101501.241
101501.315
101501.404
101501.512
101501.645
101501.808
101502.007
101502.249
101502.54
101502.883
101503.287
101503.754
101504.3
101504.904
101505.611
101506.338
101507.176
101507.89
101508.831
101510.957
101513.896
101515.892
101516.599
101516.973
101518.048
101520.03
101522.197
101524.321
101526.586
101528.566
101530.362
101531.989
101533.912
101536.175
101500.065
101500.06
101500.056
101500.053
101500.05
101500.047
101500.045
101500.044
101500.044
101500.044
101500.046
101500.048
101500.051
101500.054
101500.06
101500.068
101500.077
101500.089
101500.102
101500.115
101500.13
101500.147
101500.164
101500.184
101500.204
101500.226
101500.249
101500.274
101500.3
101500.327
101500.354
101500.38
101500.411
101500.454
101500.486
101500.507
101500.54
101500.582
101500.619
101500.658
101500.701
101500.748
101500.801
101500.861
101500.931
101501.013
101501.113
101501.233
101501.38
101501.559
101501.779
101502.046
101502.369
101502.754
101503.21
101503.745
101504.372
101505.086
101505.918
101506.838
101507.92
101509.104
101510.562
101512.805
101514.524
101515.418
101516.325
101517.868
101519.308
101520.723
101522.845
101524.856
101526.258
101527.802
101529.6
101531.476
101533.527
101535.699
101537.86
101539.404
101499.542
101499.538
101499.534
101499.53
101499.527
101499.525
101499.524
101499.524
101499.524
101499.526
101499.53
101499.535
101499.542
101499.551
101499.56
101499.571
101499.583
101499.598
101499.614
101499.632
101499.651
101499.673
101499.696
101499.721
101499.748
101499.776
101499.806
101499.837
101499.866
101499.901
101499.947
101499.983
101500.01
101500.049
101500.095
101500.138
101500.183
101500.231
101500.282
101500.338
101500.401
101500.472
101500.553
101500.648
101500.76
101500.894
101501.055
101501.249
101501.484
101501.769
101502.112
101502.519
101502.999
101503.56
101504.215
101504.966
101505.829
101506.796
101507.896
101509.129
101510.52
101512.372
101513.764
101514.808
101516.503
101518.183
101519.535
101520.791
101522.044
101523.905
101526.044
101527.967
101529.577
101531.358
101533.409
101535.533
101537.348
101538.945
101540.843
101543.039
101498.925
101498.921
101498.918
101498.915
101498.913
101498.913
101498.913
101498.915
101498.918
101498.923
101498.93
101498.938
101498.947
101498.959
101498.972
101498.987
101499.005
101499.024
101499.045
101499.069
101499.094
101499.122
101499.152
101499.183
101499.217
101499.25
101499.288
101499.336
101499.376
101499.41
101499.455
101499.505
101499.555
101499.606
101499.66
101499.719
101499.781
101499.85
101499.926
101500.011
101500.108
101500.219
101500.35
101500.503
101500.685
101500.901
101501.158
101501.464
101501.827
101502.252
101502.743
101503.308
101503.953
101504.676
101505.492
101506.371
101507.327
101508.26
101509.343
101511.203
101513.221
101514.827
101516.212
101517.269
101518.762
101520.609
101522.154
101523.529
101525.078
101526.701
101528.672
101531.017
101533.29
101535.132
101536.479
101538.078
101540.053
101542.35
101544.417
101545.971
101498.178
101498.176
101498.174
101498.174
101498.175
101498.177
101498.181
101498.186
101498.193
101498.202
101498.213
101498.226
101498.24
101498.257
101498.277
101498.298
101498.322
101498.348
101498.377
101498.408
101498.442
101498.477
101498.513
101498.554
101498.604
101498.649
101498.689
101498.739
101498.795
101498.85
101498.908
101498.97
101499.035
101499.105
101499.181
101499.264
101499.356
101499.459
101499.575
101499.708
101499.863
101500.042
101500.253
101500.501
101500.793
101501.135
101501.536
101502.002
101502.537
101503.147
101503.836
101504.605
101505.457
101506.374
101507.374
101508.433
101509.82
101511.942
101513.895
101514.978
101515.871
101516.783
101518.168
101520.555
101522.219
101523.319
101524.818
101526.995
101529.382
101531.392
101533.346
101534.735
101535.769
101537.314
101539.433
101541.438
101543.716
101545.605
101547.648
101550.233
101497.277
101497.278
101497.28
101497.283
101497.288
101497.294
101497.303
101497.313
101497.326
101497.34
101497.357
101497.377
101497.399
101497.424
101497.451
101497.481
101497.513
101497.549
101497.586
101497.626
101497.67
101497.722
101497.772
101497.818
101497.873
101497.934
101497.995
101498.06
101498.128
101498.2
101498.277
101498.36
101498.449
101498.547
101498.655
101498.775
101498.911
101499.065
101499.243
101499.449
101499.688
101499.967
101500.294
101500.674
101501.117
101501.631
101502.221
101502.897
101503.665
101504.534
101505.507
101506.592
101507.793
101509.12
101510.548
101512.114
101513.315
101514.404
101515.926
101517.438
101518.566
101519.971
101521.983
101523.656
101525.001
101526.646
101528.178
101529.386
101530.993
101533.247
101534.975
101536.968
101539.225
101540.734
101542.495
101544.922
101547.159
101550.037
101552.055
101553.459
101496.181
101496.186
101496.193
101496.201
101496.212
101496.225
101496.24
101496.257
101496.277
101496.3
101496.326
101496.355
101496.386
101496.421
101496.458
101496.498
101496.542
101496.593
101496.646
101496.697
101496.751
101496.811
101496.877
101496.944
101497.015
101497.089
101497.168
101497.251
101497.34
101497.435
101497.538
101497.649
101497.772
101497.908
101498.061
101498.233
101498.429
101498.655
101498.915
101499.216
101499.565
101499.968
101500.433
101500.968
101501.579
101502.272
101503.052
101503.922
101504.882
101505.933
101507.066
101508.286
101509.562
101510.928
101512.376
101513.798
101515.399
101516.756
101517.892
101519.379
101521.073
101522.459
101523.729
101525.169
101527.076
101528.837
101530.485
101532.878
101534.88
101536.447
101538.171
101540.051
101542.118
101544.55
101546.504
101548.496
101550.916
101553.001
101555.299
101557.743
101494.852
101494.863
101494.876
101494.892
101494.91
101494.931
101494.955
101494.981
101495.011
101495.044
101495.081
101495.12
101495.163
101495.21
101495.263
101495.317
101495.373
101495.434
101495.501
101495.571
101495.644
101495.72
101495.801
101495.886
101495.976
101496.072
101496.173
101496.281
101496.397
101496.523
101496.661
101496.813
101496.983
101497.173
101497.388
101497.633
101497.913
101498.234
101498.603
101499.026
101499.51
101500.062
101500.688
101501.395
101502.184
101503.057
101504.017
101505.06
101506.181
101507.37
101508.626
101509.934
101511.309
101512.705
101514.092
101515.536
101517.009
101518.536
101520.212
101521.956
101523.843
101525.77
101527.532
101529.104
101530.454
101531.887
101533.507
101534.948
101536.549
101538.918
101541.764
101544.211
101545.974
101547.318
101548.831
101551.04
101554.012
101556.032
101558.133
101560.118
101493.235
101493.253
101493.276
101493.301
101493.328
101493.359
101493.394
101493.432
101493.474
101493.519
101493.569
101493.624
101493.681
101493.742
101493.808
101493.878
101493.953
101494.031
101494.115
101494.202
101494.295
101494.392
101494.495
101494.604
101494.72
101494.844
101494.977
101495.121
101495.277
101495.45
101495.641
101495.855
101496.095
101496.366
101496.675
101497.025
101497.424
101497.879
101498.394
101498.978
101499.634
101500.369
101501.187
101502.092
101503.082
101504.147
101505.317
101506.6
101507.92
101509.283
101510.702
101512.153
101513.482
101514.63
101516.075
101517.728
101519.519
101521.548
101523.7
101525.314
101526.617
101528.135
101529.794
101531.346
101532.784
101534.261
101536.392
101539.127
101541.04
101542.902
101544.522
101545.773
101547.691
101550.122
101552.46
101554.484
101556.247
101558.185
101559.883
101562.178
101491.283
101491.311
101491.345
101491.381
101491.421
101491.464
101491.511
101491.563
101491.619
101491.679
101491.743
101491.813
101491.887
101491.966
101492.049
101492.137
101492.23
101492.329
101492.433
101492.543
101492.659
101492.782
101492.913
101493.053
101493.203
101493.366
101493.544
101493.739
101493.954
101494.194
101494.463
101494.765
101495.107
101495.493
101495.929
101496.422
101496.976
101497.598
101498.29
101499.056
101499.897
101500.81
101501.791
101502.835
101503.925
101505.013
101506.113
101507.588
101509.482
101511.422
101513.338
101515.208
101517.233
101519.412
101520.876
101521.973
101523.213
101524.203
101525.015
101526.595
101528.941
101530.975
101533.156
101535.173
101537.401
101539.796
101541.489
101542.178
101543.488
101545.243
101546.635
101548.947
101551.495
101553.944
101556.596
101558.482
101560.254
101562.387
101563.985
101566.116
101488.937
101488.977
101489.024
101489.073
101489.126
101489.184
101489.245
101489.312
101489.383
101489.459
101489.54
101489.626
101489.717
101489.814
101489.916
101490.023
101490.137
101490.257
101490.384
101490.518
101490.662
101490.815
101490.981
101491.16
101491.355
101491.569
101491.805
101492.069
101492.363
101492.695
101493.068
101493.49
101493.967
101494.505
101495.112
101495.793
101496.555
101497.403
101498.343
101499.377
101500.512
101501.749
101503.093
101504.553
101506.134
101507.886
101509.662
101510.922
101511.927
101513.262
101514.94
101516.463
101518.053
101519.853
101521.704
101523.699
101525.585
101527.429
101529.285
101531.26
101533.271
101535.297
101536.914
101538.462
101539.953
101541.933
101544.005
101545.579
101548.174
101550.45
101553.061
101555.193
101556.583
101558.048
101559.587
101560.801
101562.695
101565.505
101567.699
101569.548
101486.176
101486.229
101486.291
101486.356
101486.423
101486.496
101486.573
101486.655
101486.742
101486.835
101486.932
101487.035
101487.144
101487.258
101487.379
101487.506
101487.641
101487.784
101487.937
101488.1
101488.275
101488.466
101488.673
101488.901
101489.152
101489.431
101489.744
101490.094
101490.488
101490.931
101491.431
101491.992
101492.622
101493.326
101494.107
101494.97
101495.917
101496.947
101498.058
101499.245
101500.503
101501.82
101503.183
101504.567
101505.986
101507.465
101508.989
101510.811
101513.09
101514.944
101516.565
101518.567
101520.638
101522.506
101524.223
101525.817
101527.438
101529.243
101531.252
101533.211
101535.041
101536.952
101538.871
101541.148
101543.433
101545.429
101547.28
101549.381
101551.522
101553.353
101555.034
101556.676
101558.802
101561.922
101564.625
101566.68
101568.512
101570.797
101572.66
101574.339
101482.996
101483.064
101483.143
101483.223
101483.307
101483.395
101483.489
101483.587
101483.69
101483.798
101483.912
101484.032
101484.158
101484.29
101484.431
101484.579
101484.738
101484.907
101485.089
101485.285
101485.5
101485.735
101485.994
101486.281
101486.602
101486.961
101487.364
101487.817
101488.325
101488.896
101489.534
101490.245
101491.034
101491.905
101492.859
101493.9
101495.027
101496.24
101497.537
101498.915
101500.371
101501.9
101503.498
101505.171
101506.913
101508.839
101510.823
101512.234
101513.258
101515.084
101517.383
101519.313
101521.584
101523.815
101526.001
101527.772
101529.188
101531.051
101533.454
101535.884
101538.363
101540.689
101542.602
101544.445
101546.278
101548.301
101550.508
101552.545
101554.53
101556.411
101558.594
101560.814
101562.86
101564.924
101567.17
101569.42
101571.615
101573.66
101575.373
101577.555
101479.475
101479.558
101479.655
101479.752
101479.853
101479.958
101480.068
101480.183
101480.303
101480.429
101480.561
101480.7
101480.847
101481.003
101481.169
101481.346
101481.537
101481.744
101481.969
101482.217
101482.49
101482.794
101483.132
101483.511
101483.936
101484.413
101484.949
101485.548
101486.218
101486.964
101487.789
101488.698
101489.692
101490.773
101491.941
101493.192
101494.527
101495.944
101497.439
101499.006
101500.631
101502.312
101504.015
101505.616
101507.068
101509.074
101511.742
101514.636
101517.31
101519.469
101521.42
101523.114
101524.477
101525.839
101527.434
101529.863
101533.549
101535.959
101537.603
101539.137
101540.665
101542.054
101543.878
101546.474
101548.76
101551.019
101553.595
101556.251
101559.019
101560.745
101562.058
101564.425
101566.245
101567.823
101569.328
101571.371
101574.603
101576.821
101578.71
101580.221
101475.697
101475.797
101475.912
101476.027
101476.145
101476.267
101476.395
101476.529
101476.668
101476.816
101476.971
101477.135
101477.311
101477.499
101477.702
101477.922
101478.163
101478.428
101478.721
101479.046
101479.41
101479.817
101480.274
101480.786
101481.361
101482.004
101482.721
101483.517
101484.397
101485.363
101486.418
101487.561
101488.79
101490.1
101491.485
101492.929
101494.408
101495.938
101497.487
101499.234
101501.538
101504.093
101506.589
101509.216
101512.159
101514.089
101515.606
101517.028
101517.984
101519.367
101521.442
101524.139
101527.142
101530.151
101532.42
101533.777
101534.916
101536.416
101538.366
101540.536
101542.904
101545.484
101547.866
101550.636
101553.303
101555.471
101557.837
101560.017
101561.528
101563.391
101566.646
101568.689
101570.498
101572.108
101573.891
101576.267
101577.673
101579.553
101581.387
101583.074
101544.249
101544.25
101544.251
101544.254
101544.258
101544.263
101544.27
101544.278
101544.288
101544.299
101544.311
101544.325
101544.341
101544.358
101544.377
101544.398
101544.42
101544.445
101544.471
101544.499
101544.529
101544.562
101544.597
101544.634
101544.673
101544.716
101544.761
101544.809
101544.86
101544.914
101544.972
101545.034
101545.099
101545.169
101545.243
101545.322
101545.406
101545.496
101545.591
101545.693
101545.802
101545.918
101546.042
101546.174
101546.314
101546.463
101546.622
101546.791
101546.97
101547.16
101547.361
101547.573
101547.794
101548.023
101548.259
101548.496
101548.73
101548.95
101549.146
101549.318
101549.464
101549.59
101549.686
101549.737
101549.723
101549.564
101549.291
101548.911
101548.41
101547.748
101546.891
101545.851
101544.584
101543.106
101541.414
101539.465
101537.033
101532.899
101529.177
101527.438
101540.552
101540.552
101540.553
101540.554
101540.557
101540.561
101540.565
101540.571
101540.578
101540.586
101540.594
101540.604
101540.615
101540.628
101540.641
101540.656
101540.672
101540.689
101540.708
101540.728
101540.75
101540.773
101540.798
101540.825
101540.853
101540.884
101540.916
101540.951
101540.988
101541.027
101541.069
101541.114
101541.162
101541.213
101541.268
101541.326
101541.388
101541.455
101541.526
101541.601
101541.682
101541.769
101541.862
101541.96
101542.066
101542.178
101542.297
101542.423
101542.557
101542.698
101542.845
101542.999
101543.158
101543.321
101543.486
101543.649
101543.808
101543.957
101544.089
101544.194
101544.25
101544.239
101544.163
101544.022
101543.811
101543.516
101543.082
101542.46
101541.623
101540.56
101539.222
101537.608
101535.797
101533.869
101531.878
101529.587
101526.511
101522.405
101519.448
101517.402
101536.728
101536.728
101536.728
101536.729
101536.73
101536.732
101536.734
101536.737
101536.74
101536.744
101536.749
101536.754
101536.76
101536.766
101536.773
101536.781
101536.789
101536.798
101536.808
101536.818
101536.83
101536.842
101536.855
101536.869
101536.883
101536.899
101536.916
101536.934
101536.954
101536.975
101536.997
101537.02
101537.046
101537.073
101537.102
101537.133
101537.167
101537.203
101537.242
101537.284
101537.329
101537.377
101537.428
101537.484
101537.543
101537.606
101537.673
101537.744
101537.819
101537.897
101537.977
101538.06
101538.142
101538.223
101538.3
101538.368
101538.424
101538.462
101538.473
101538.452
101538.391
101538.262
101538.042
101537.713
101537.26
101536.66
101535.883
101534.897
101533.671
101532.178
101530.42
101528.472
101526.416
101524.251
101521.843
101518.946
101515.577
101512.091
101508.807
101504.946
101532.842
101532.842
101532.842
101532.841
101532.841
101532.841
101532.841
101532.841
101532.841
101532.841
101532.841
101532.84
101532.84
101532.84
101532.84
101532.84
101532.84
101532.839
101532.839
101532.838
101532.838
101532.837
101532.837
101532.836
101532.836
101532.835
101532.834
101532.834
101532.833
101532.832
101532.832
101532.831
101532.831
101532.831
101532.831
101532.832
101532.833
101532.835
101532.838
101532.841
101532.845
101532.851
101532.857
101532.864
101532.873
101532.882
101532.893
101532.904
101532.916
101532.927
101532.937
101532.944
101532.947
101532.942
101532.927
101532.896
101532.843
101532.757
101532.624
101532.427
101532.149
101531.771
101531.271
101530.619
101529.789
101528.755
101527.494
101525.995
101524.253
101522.266
101520.088
101517.769
101515.299
101512.561
101509.373
101505.658
101501.711
101498.014
101494.32
101488.166
101528.963
101528.963
101528.963
101528.962
101528.96
101528.959
101528.956
101528.953
101528.949
101528.945
101528.94
101528.934
101528.928
101528.921
101528.914
101528.905
101528.896
101528.886
101528.875
101528.863
101528.85
101528.836
101528.821
101528.805
101528.788
101528.77
101528.75
101528.729
101528.707
101528.684
101528.659
101528.632
101528.604
101528.575
101528.544
101528.512
101528.478
101528.443
101528.405
101528.366
101528.326
101528.283
101528.238
101528.191
101528.141
101528.088
101528.032
101527.972
101527.906
101527.834
101527.754
101527.664
101527.56
101527.44
101527.298
101527.125
101526.911
101526.642
101526.3
101525.863
101525.31
101524.619
101523.769
101522.737
101521.494
101520.013
101518.266
101516.234
101513.91
101511.315
101508.479
101505.394
101501.969
101498.057
101493.505
101488.243
101482.446
101477.038
101472.475
101463.08
101525.169
101525.169
101525.169
101525.168
101525.166
101525.162
101525.157
101525.151
101525.144
101525.136
101525.126
101525.116
101525.103
101525.09
101525.074
101525.058
101525.039
101525.019
101524.998
101524.974
101524.949
101524.921
101524.892
101524.86
101524.826
101524.79
101524.751
101524.71
101524.666
101524.619
101524.569
101524.516
101524.46
101524.4
101524.337
101524.27
101524.199
101524.124
101524.045
101523.961
101523.872
101523.777
101523.677
101523.571
101523.457
101523.335
101523.205
101523.065
101522.913
101522.747
101522.566
101522.366
101522.142
101521.89
101521.6
101521.262
101520.86
101520.382
101519.808
101519.118
101518.291
101517.303
101516.13
101514.747
101513.121
101511.219
101509.011
101506.467
101503.568
101500.311
101496.678
101492.576
101487.822
101482.065
101474.957
101467.021
101459.984
101453.063
101444.722
101432.406
101521.536
101521.538
101521.538
101521.536
101521.533
101521.528
101521.522
101521.513
101521.503
101521.491
101521.477
101521.462
101521.444
101521.424
101521.402
101521.377
101521.351
101521.322
101521.29
101521.256
101521.219
101521.179
101521.135
101521.089
101521.04
101520.986
101520.93
101520.869
101520.804
101520.735
101520.662
101520.583
101520.5
101520.412
101520.318
101520.219
101520.113
101520.001
101519.881
101519.755
101519.62
101519.477
101519.325
101519.162
101518.989
101518.803
101518.604
101518.39
101518.159
101517.907
101517.633
101517.332
101516.999
101516.623
101516.194
101515.7
101515.129
101514.462
101513.68
101512.76
101511.68
101510.416
101508.945
101507.237
101505.253
101502.954
101500.264
101497.198
101493.799
101489.987
101485.68
101480.694
101474.612
101467.638
101460.881
101454.499
101444.774
101431.14
101416.92
101404.63
101518.14
101518.142
101518.142
101518.141
101518.137
101518.131
101518.123
101518.113
101518.1
101518.085
101518.068
101518.048
101518.025
101518
101517.972
101517.941
101517.907
101517.87
101517.83
101517.786
101517.739
101517.688
101517.633
101517.574
101517.51
101517.443
101517.37
101517.293
101517.21
101517.122
101517.028
101516.928
101516.821
101516.708
101516.588
101516.46
101516.324
101516.179
101516.026
101515.862
101515.688
101515.503
101515.305
101515.094
101514.869
101514.627
101514.367
101514.086
101513.783
101513.454
101513.095
101512.7
101512.263
101511.773
101511.223
101510.602
101509.897
101509.093
101508.168
101507.099
101505.859
101504.413
101502.729
101500.769
101498.449
101495.767
101493.211
101490.658
101487.09
101482.438
101477.17
101471.203
101465.834
101460.438
101451.194
101436.511
101424.271
101413.5
101401.469
101391.487
101515.045
101515.047
101515.049
101515.047
101515.043
101515.037
101515.027
101515.016
101515.001
101514.984
101514.964
101514.94
101514.914
101514.885
101514.852
101514.816
101514.777
101514.733
101514.686
101514.635
101514.58
101514.521
101514.457
101514.388
101514.314
101514.235
101514.15
101514.06
101513.963
101513.861
101513.751
101513.634
101513.511
101513.379
101513.239
101513.09
101512.932
101512.765
101512.587
101512.398
101512.197
101511.984
101511.757
101511.517
101511.26
101510.987
101510.694
101510.381
101510.045
101509.682
101509.286
101508.85
101508.365
101507.822
101507.208
101506.51
101505.71
101504.784
101503.714
101502.464
101501.024
101499.549
101498.041
101496.367
101494.558
101492.52
101489.389
101484.748
101480.367
101476.623
101472.914
101468.783
101462.171
101451.696
101441.314
101431.354
101419.543
101406.789
101394.84
101385.959
101512.301
101512.304
101512.306
101512.305
101512.3
101512.293
101512.284
101512.271
101512.255
101512.236
101512.214
101512.189
101512.16
101512.128
101512.092
101512.052
101512.009
101511.962
101511.91
101511.854
101511.794
101511.729
101511.658
101511.583
101511.502
101511.415
101511.323
101511.224
101511.119
101511.007
101510.887
101510.761
101510.626
101510.482
101510.33
101510.168
101509.996
101509.813
101509.619
101509.414
101509.195
101508.964
101508.718
101508.458
101508.18
101507.885
101507.57
101507.234
101506.875
101506.486
101506.06
101505.599
101505.101
101504.56
101503.976
101503.346
101502.668
101501.912
101501.057
101500.114
101499.055
101497.699
101495.955
101493.93
101491.563
101488.804
101485.965
101483.09
101479.78
101475.524
101470.106
101463.638
101456.817
101449.667
101441.669
101432.5
101422.027
101411.744
101403.435
101394.913
101509.945
101509.948
101509.95
101509.948
101509.944
101509.937
101509.926
101509.913
101509.896
101509.877
101509.853
101509.827
101509.797
101509.763
101509.726
101509.685
101509.639
101509.59
101509.536
101509.478
101509.415
101509.347
101509.274
101509.195
101509.111
101509.022
101508.927
101508.825
101508.716
101508.601
101508.479
101508.349
101508.211
101508.064
101507.909
101507.744
101507.57
101507.385
101507.188
101506.981
101506.764
101506.535
101506.294
101506.037
101505.765
101505.477
101505.173
101504.852
101504.512
101504.147
101503.751
101503.321
101502.849
101502.328
101501.749
101501.101
101500.365
101499.578
101498.729
101497.764
101496.661
101495.369
101493.873
101492.168
101490.225
101488.016
101485.554
101482.803
101479.677
101476.03
101471.76
101466.841
101461.303
101455.136
101448.174
101440.706
101431.951
101422.69
101412.887
101403.539
101507.988
101507.991
101507.992
101507.99
101507.985
101507.977
101507.967
101507.953
101507.936
101507.916
101507.892
101507.865
101507.835
101507.801
101507.763
101507.721
101507.676
101507.626
101507.573
101507.514
101507.452
101507.384
101507.312
101507.234
101507.151
101507.063
101506.968
101506.867
101506.761
101506.647
101506.527
101506.399
101506.264
101506.121
101505.97
101505.809
101505.64
101505.461
101505.271
101505.069
101504.857
101504.637
101504.405
101504.162
101503.906
101503.636
101503.351
101503.049
101502.729
101502.389
101502.028
101501.644
101501.232
101500.789
101500.309
101499.788
101499.216
101498.584
101497.882
101497.094
101496.196
101495.169
101493.992
101492.646
101491.111
101489.362
101487.373
101485.105
101482.508
101479.518
101476.075
101472.128
101467.628
101462.473
101456.493
101449.831
101442.505
101433.811
101424.778
101416.777
101506.429
101506.43
101506.43
101506.427
101506.422
101506.413
101506.402
101506.388
101506.37
101506.35
101506.327
101506.3
101506.27
101506.237
101506.2
101506.159
101506.115
101506.067
101506.015
101505.959
101505.899
101505.834
101505.765
101505.691
101505.611
101505.527
101505.437
101505.342
101505.242
101505.135
101505.022
101504.903
101504.777
101504.646
101504.508
101504.363
101504.211
101504.05
101503.88
101503.702
101503.512
101503.31
101503.103
101502.893
101502.674
101502.446
101502.207
101501.957
101501.697
101501.425
101501.14
101500.842
101500.527
101500.191
101499.832
101499.445
101499.024
101498.563
101498.052
101497.482
101496.837
101496.102
101495.258
101494.286
101493.163
101491.866
101490.368
101488.638
101486.639
101484.326
101481.653
101478.558
101474.962
101470.788
101465.941
101460.464
101454.435
101447.293
101439.414
101431.457
101505.236
101505.236
101505.234
101505.229
101505.222
101505.213
101505.201
101505.186
101505.169
101505.149
101505.126
101505.1
101505.071
101505.04
101505.005
101504.967
101504.925
101504.881
101504.832
101504.78
101504.724
101504.664
101504.601
101504.533
101504.461
101504.385
101504.304
101504.218
101504.127
101504.032
101503.931
101503.826
101503.715
101503.599
101503.478
101503.351
101503.219
101503.084
101502.945
101502.803
101502.656
101502.499
101502.329
101502.145
101501.953
101501.764
101501.58
101501.391
101501.196
101500.996
101500.791
101500.581