/*--------------------------------*- C++ -*----------------------------------*\
  =========                 |
  \\      /  F ield         | OpenFOAM: The Open Source CFD Toolbox
   \\    /   O peration     | Website:  https://openfoam.org
    \\  /    A nd           | Version:  8
     \\/     M anipulation  |
\*---------------------------------------------------------------------------*/
FoamFile
{
    version     2.0;
    format      ascii;
    class       surfaceScalarField;
    location    "0.058";
    object      phi;
}
// * * * * * * * * * * * * * * * * * * * * * * * * * * * * * * * * * * * * * //

dimensions      [1 0 -1 0 0 0 0];

internalField   nonuniform List<scalar> 
84340
(
-4.67492823e-08
3.04161979e-07
-2.57562112e-07
-1.91633002e-07
9.27392449e-07
-7.82750435e-07
-4.43648704e-07
1.58599583e-06
-1.33427879e-06
-8.12760839e-07
2.28206418e-06
-1.91330005e-06
-1.30904502e-06
3.01815024e-06
-2.52225785e-06
-1.94226306e-06
3.79653317e-06
-3.16374783e-06
-2.72149465e-06
4.61891032e-06
-3.84015164e-06
-3.65496836e-06
5.48645655e-06
-4.55349691e-06
-4.74998833e-06
6.39986589e-06
-5.30540322e-06
-6.01291639e-06
7.35939645e-06
-6.09707187e-06
-7.44918014e-06
8.36494038e-06
-6.9293298e-06
-9.06328433e-06
9.41610734e-06
-7.80271007e-06
-1.08588115e-05
1.05123104e-05
-8.7175484e-06
-1.28384016e-05
1.16528399e-05
-9.67407804e-06
-1.5003697e-05
1.28369089e-05
-1.06725101e-05
-1.73552687e-05
1.40636863e-05
-1.17130852e-05
-1.98924962e-05
1.53322938e-05
-1.27961173e-05
-2.26134286e-05
1.6641791e-05
-1.39219964e-05
-2.55146079e-05
1.79911476e-05
-1.50912001e-05
-2.85908656e-05
1.93792013e-05
-1.63042772e-05
-3.1835092e-05
2.08046125e-05
-1.75618296e-05
-3.5237976e-05
2.22658126e-05
-1.88644912e-05
-3.87877105e-05
2.37609416e-05
-2.02128985e-05
-4.24696756e-05
2.52877873e-05
-2.1607653e-05
-4.62660728e-05
2.68436988e-05
-2.30492834e-05
-5.01555243e-05
2.84254942e-05
-2.45381877e-05
-5.41126165e-05
3.00293201e-05
-2.607455e-05
-5.81073558e-05
3.16504787e-05
-2.76582529e-05
-6.2104585e-05
3.3283245e-05
-2.9288737e-05
-6.60634531e-05
3.49207583e-05
-3.09648362e-05
-6.99370771e-05
3.65549783e-05
-3.26845429e-05
-7.36721711e-05
3.81763466e-05
-3.44447012e-05
-7.72065013e-05
3.97714627e-05
-3.62408696e-05
-8.04664198e-05
4.13233669e-05
-3.80675114e-05
-8.33713059e-05
4.28181788e-05
-3.99176905e-05
-8.58372168e-05
4.42422256e-05
-4.17810169e-05
-8.77843627e-05
4.55769014e-05
-4.36347937e-05
-8.90955556e-05
4.67730266e-05
-4.54673037e-05
-8.96141823e-05
4.77796416e-05
-4.72669888e-05
-8.91557212e-05
4.85484252e-05
-4.90133753e-05
-8.75201509e-05
4.90142741e-05
-5.06568509e-05
-8.44909907e-05
4.91064049e-05
-5.21431732e-05
-7.98422329e-05
4.87358172e-05
-5.3392859e-05
-7.331766e-05
4.78186028e-05
-5.43521475e-05
-6.46252852e-05
4.62363115e-05
-5.49383872e-05
-5.34473579e-05
4.38553512e-05
-5.50437607e-05
-3.94352347e-05
4.05157741e-05
-5.45392247e-05
-2.22236716e-05
3.61154075e-05
-5.33391868e-05
-1.36042555e-06
3.04115728e-05
-5.12879915e-05
2.34306691e-05
2.34086755e-05
-4.82139863e-05
5.29062055e-05
1.43851942e-05
-4.38758755e-05
8.7806199e-05
3.22078129e-06
-3.81367361e-05
0.000128976728
-1.02551467e-05
-3.09324572e-05
0.00017742791
-2.67281358e-05
-2.17415872e-05
0.000234388585
-4.68869877e-05
-1.00936589e-05
0.000301025739
-7.09832047e-05
4.32476647e-06
0.000378978488
-9.95502935e-05
2.15748857e-05
0.000469395665
-0.000133341968
4.2900695e-05
0.000573775474
-0.000173061018
6.86556643e-05
0.000693950127
-0.000219502545
9.93008029e-05
0.000831809563
-0.000273460254
0.000135572271
0.000989266038
-0.000335733327
0.000178247147
0.00116814095
-0.000407052415
0.000228146778
0.00137009026
-0.000488153519
0.000286173035
0.00159655236
-0.000579581314
0.00035308979
0.00184851938
-0.000681730917
0.00042973782
0.00212808978
-0.000796949308
0.000517356122
0.00243553769
-0.00092095845
0.000613491261
0.00276164151
-0.00104904413
0.000722924553
0.003117214
-0.00122364561
0.000868060846
0.00354887711
-0.00141267939
0.000981007034
0.00397989505
-0.00148382039
0.00105279606
0.0042908854
-0.00165384274
0.0013428481
0.00470091783
-0.00206692083
0.00165688518
0.00537434536
-0.00228216053
0.0016087293
0.00598327861
-0.00224538228
0.00163644433
0.00625679852
-0.00244493884
0.00217140941
0.00647979798
-0.00283684953
0.002613829
0.00688448622
-0.00304176269
0.00263700639
-0.0031256283
0.00261954619
0.00739050739
-3.56067826e-08
3.39527854e-07
-1.45801213e-07
1.03724068e-06
-3.37638657e-07
1.77743145e-06
-6.19196322e-07
2.56316893e-06
-9.98783625e-07
3.39723666e-06
-1.48435878e-06
4.28156066e-06
-2.08334558e-06
5.21730203e-06
-2.80237837e-06
6.20484489e-06
-3.64719721e-06
7.24398797e-06
-4.62259594e-06
8.33404245e-06
-5.73239564e-06
9.4739271e-06
-6.97942354e-06
1.06622573e-05
-8.36548056e-06
1.18974193e-05
-9.89128589e-06
1.31776213e-05
-1.15564022e-05
1.45009194e-05
-1.33591148e-05
1.58652048e-05
-1.52962906e-05
1.72681803e-05
-1.73631974e-05
1.87073057e-05
-1.95532862e-05
2.01797335e-05
-2.18579448e-05
2.16822375e-05
-2.42662147e-05
2.32111313e-05
-2.67644652e-05
2.47621733e-05
-2.9336037e-05
2.6330474e-05
-3.19608259e-05
2.79103758e-05
-3.46148103e-05
2.94953091e-05
-3.72695321e-05
3.10776549e-05
-3.98915608e-05
3.26485859e-05
-4.24419337e-05
3.41978721e-05
-4.48754162e-05
3.57135123e-05
-4.71390464e-05
3.71809141e-05
-4.91729309e-05
3.85851295e-05
-5.09107132e-05
3.99101395e-05
-5.22827494e-05
4.11391912e-05
-5.32182201e-05
4.22541753e-05
-5.36133688e-05
4.32083341e-05
-5.33344692e-05
4.39579514e-05
-5.22204767e-05
4.44570992e-05
-5.01001032e-05
4.46463905e-05
-4.67908965e-05
4.44636568e-05
-4.20842269e-05
4.38344283e-05
-3.57604262e-05
4.26825788e-05
-2.75706637e-05
4.09081428e-05
-1.72453658e-05
3.84013784e-05
-4.45078302e-06
3.50141854e-05
1.11334714e-05
3.06414967e-05
2.99090381e-05
2.50684677e-05
5.20542868e-05
1.83583618e-05
7.83736624e-05
9.78312418e-06
0.000109542943
-7.71331755e-07
0.000146325292
-1.33883687e-05
0.000189607591
-2.89129613e-05
0.000240412616
-4.76011991e-05
0.000300009662
-6.98702823e-05
0.00036954561
-9.62833623e-05
0.000450116568
-0.000127478422
0.000543229756
-0.000164118119
0.000650561285
-0.00020690485
0.000773779985
-0.00025658491
0.000914592105
-0.000313898311
0.00107474357
-0.000379680009
0.00125582978
-0.00045457319
0.00145934339
-0.000539273596
0.00168652392
-0.000634257629
0.00193837486
-0.000740025992
0.00221569116
-0.000856916
0.00251834241
-0.000984397396
0.00284602457
-0.0011246436
0.00320296493
-0.00127790784
0.00358076533
-0.00142685066
0.00395183999
-0.00159472357
0.00436700842
-0.00182784892
0.00487899998
-0.00199581123
0.00531861277
-0.00209345448
0.00559438548
-0.00234269254
0.00596424743
-0.00265202374
0.00649627944
-0.00277741874
0.00690292857
-0.00285160021
0.00705534721
-0.00298928917
0.00717299637
-0.0031594425
-0.00330572315
0.00735304536
-2.49103328e-08
3.64165147e-07
-1.01988381e-07
1.11392789e-06
-2.36447552e-07
1.91143823e-06
-4.34384656e-07
2.76059706e-06
-7.02168803e-07
3.66445848e-06
-1.04585382e-06
4.62463115e-06
-1.47079067e-06
5.64157145e-06
-1.98145787e-06
6.7147895e-06
-2.58152753e-06
7.84327655e-06
-3.27365703e-06
9.02532825e-06
-4.05943617e-06
1.02587952e-05
-4.93934031e-06
1.15411777e-05
-5.91267436e-06
1.28696912e-05
-6.97749313e-06
1.42412934e-05
-8.13049229e-06
1.56526806e-05
-9.36687138e-06
1.71002476e-05
-1.06801527e-05
1.85800193e-05
-1.20619713e-05
2.00875681e-05
-1.35018191e-05
2.16179024e-05
-1.49867485e-05
2.31653561e-05
-1.65010156e-05
2.47234458e-05
-1.80256345e-05
2.62846872e-05
-1.95378601e-05
2.78404311e-05
-2.10106312e-05
2.93807033e-05
-2.24120218e-05
3.08940683e-05
-2.37050663e-05
3.23678652e-05
-2.48477672e-05
3.37882318e-05
-2.5792956e-05
3.51397777e-05
-2.64887306e-05
3.64057729e-05
-2.68797052e-05
3.75681116e-05
-2.68925959e-05
3.85939532e-05
-2.64383577e-05
3.94515483e-05
-2.54073854e-05
4.01035402e-05
-2.36645245e-05
4.05062762e-05
-2.10677544e-05
4.06061582e-05
-1.74589748e-05
4.0343344e-05
-1.26551629e-05
3.96470048e-05
-6.46809063e-06
3.84525707e-05
1.31910764e-06
3.6669217e-05
1.09497073e-05
3.41960604e-05
2.27237064e-05
3.09002562e-05
3.69490715e-05
2.66738765e-05
5.38316592e-05
2.15092613e-05
7.3739961e-05
1.5095636e-05
9.73477688e-05
7.02285828e-06
0.000125240174
-2.83531231e-06
0.000158111764
-1.45254962e-05
0.000196848264
-2.89666706e-05
0.000242307749
-4.6245029e-05
0.000295666426
-6.67622233e-05
0.000357801003
-9.10637139e-05
0.000429897361
-0.000119714786
0.000513328986
-0.000153320225
0.00060955733
-0.000192531215
0.000720116425
-0.000238058137
0.000846613918
-0.000290637194
0.000990615826
-0.000350929135
0.00115364982
-0.000419642085
0.0013371565
-0.000497428922
0.00154231682
-0.000584864227
0.00177021467
-0.000682493228
0.00202164016
-0.000790718772
0.00229701861
-0.000909653192
0.00259603274
-0.00103905472
0.00291792096
-0.00117881627
0.00326174742
-0.00132823333
0.00362218838
-0.00148509151
0.00399995789
-0.00165568171
0.00440125524
-0.00182815004
0.00479502473
-0.00198849278
0.0051524093
-0.00218523167
0.00556007973
-0.00240347878
0.00600551557
-0.00253888766
0.00631150848
-0.00264868345
0.00645846935
-0.00279898555
0.00662932208
-0.00294827581
0.00685447142
-0.00307675813
0.00705458041
-0.00318941141
0.00718116685
-0.00328605898
-0.0033916274
0.00726702733
-1.80788747e-08
3.81932248e-07
-7.36716298e-08
1.16907584e-06
-1.70338631e-07
2.00759148e-06
-3.1229085e-07
2.90197224e-06
-5.03777149e-07
3.85530823e-06
-7.48726719e-07
4.86888611e-06
-1.05029556e-06
5.9423867e-06
-1.41076475e-06
7.07444378e-06
-1.8311737e-06
8.26280595e-06
-2.31130794e-06
9.50451398e-06
-2.84995845e-06
1.07964233e-05
-3.44462088e-06
1.21347383e-05
-4.09140332e-06
1.35152865e-05
-4.78492338e-06
1.49335346e-05
-5.51817188e-06
1.63845517e-05
-6.28233188e-06
1.78629243e-05
-7.06655399e-06
1.93626444e-05
-7.85764325e-06
2.08769384e-05
-8.63969626e-06
2.23981057e-05
-9.39371529e-06
2.39173857e-05
-1.00972909e-05
2.54248824e-05
-1.07246716e-05
2.69097673e-05
-1.1246434e-05
2.8359719e-05
-1.16293905e-05
2.97610057e-05
-1.18365129e-05
3.10983452e-05
-1.18207621e-05
3.23490622e-05
-1.15273551e-05
3.34915533e-05
-1.08915334e-05
3.45004449e-05
-9.83632863e-06
3.53467982e-05
-8.2678166e-06
3.59955558e-05
-6.08350191e-06
3.64053082e-05
-3.16518407e-06
3.65285936e-05
6.24538991e-07
3.63088327e-05
5.44535705e-06
3.56801e-05
1.1462593e-05
3.45831815e-05
1.8867391e-05
3.29323979e-05
2.78768439e-05
3.06309723e-05
3.87561415e-05
2.75662394e-05
5.17847485e-05
2.3633089e-05
6.71553054e-05
1.88174456e-05
8.52157936e-05
1.28312381e-05
0.000106550945
5.32981309e-06
0.000131705377
-3.65464275e-06
0.00016131844
-1.45276943e-05
0.000196150922
-2.78206656e-05
0.000236990543
-4.36867173e-05
0.000284959712
-6.25072167e-05
0.000340755746
-8.47760719e-05
0.000405488511
-0.000110992001
0.000480416048
-0.000141704873
0.000566862769
-0.000177526505
0.000666249504
-0.000219118554
0.000780040164
-0.000267128742
0.000909736112
-0.000322245783
0.00105680534
-0.00038514666
0.00122261479
-0.00045646668
0.00140843884
-0.000536773947
0.00161526513
-0.00062648921
0.00184378911
-0.000725972411
0.00209421179
-0.000835304548
0.00236643425
-0.000954731432
0.00265969346
-0.00108399189
0.00297299101
-0.00122296279
0.00330395338
-0.00137002729
0.00364935906
-0.00152423026
0.0040063396
-0.00168522025
0.00436749805
-0.00184625445
0.00472691065
-0.00201509676
0.00508531947
-0.00218655957
0.00543904066
-0.00234221306
0.00573538189
-0.00248157117
0.00595765158
-0.00262574541
0.00616478307
-0.0027460158
0.00637443526
-0.0028583336
0.00653395058
-0.00295850187
0.00665028163
-0.00306461116
0.00675132844
-0.00317781369
0.00686546781
-0.0033035668
0.00698449527
-0.00340511188
-0.00350223497
0.00709507173
-1.64546273e-08
3.98057892e-07
-6.60364446e-08
1.21819093e-06
-1.50819315e-07
2.09183718e-06
-2.732206e-07
3.0237714e-06
-4.35408134e-07
4.01683244e-06
-6.38885837e-07
5.07164054e-06
-8.84331255e-07
6.18704781e-06
-1.17133152e-06
7.36059615e-06
-1.49806692e-06
8.58862583e-06
-1.86141921e-06
9.86687835e-06
-2.25650507e-06
1.11904438e-05
-2.67676249e-06
1.25538472e-05
-3.1142258e-06
1.39515117e-05
-3.55905786e-06
1.53770321e-05
-3.9993321e-06
1.68233879e-05
-4.42081423e-06
1.82828574e-05
-4.80676676e-06
1.9746929e-05
-5.13770973e-06
2.12060846e-05
-5.39125565e-06
2.26497164e-05
-5.54083538e-06
2.40648865e-05
-5.55553517e-06
2.54373504e-05
-5.39911902e-06
2.67509525e-05
-5.02951394e-06
2.79875378e-05
-4.39744271e-06
2.91261694e-05
-3.44494924e-06
3.01428852e-05
-2.10829787e-06
3.10092275e-05
-3.11957112e-07
3.16918003e-05
2.03301848e-06
3.21518149e-05
5.03178945e-06
3.23441021e-05
8.80702677e-06
3.22161034e-05
1.34885155e-05
3.17193074e-05
1.92246748e-05
3.07876039e-05
2.61832527e-05
2.93450875e-05
3.45523233e-05
2.73055052e-05
4.45593188e-05
2.45702823e-05
5.64724839e-05
2.1012919e-05
7.05927105e-05
1.65039961e-05
8.70935887e-05
1.10582261e-05
0.000106528625
4.19060351e-06
0.000129378912
-4.04074308e-06
0.00015620717
-1.40055506e-05
0.000187681762
-2.61539406e-05
0.000224658895
-4.06415337e-05
0.000267949512
-5.78286974e-05
0.000318258529
-7.81407177e-05
0.000376587573
-0.000102027483
0.000444060131
-0.000129992214
0.00052186483
-0.000162593992
0.000611273173
-0.000200414338
0.000713634346
-0.000244080763
0.000830335777
-0.000294243294
0.000962760677
-0.000351559444
0.00111229261
-0.000416677236
0.00128020599
-0.000490176382
0.00146756141
-0.000572519988
0.00167508258
-0.000664005925
0.00190307951
-0.000764788014
0.00215137555
-0.00087480101
0.0024194063
-0.000994017539
0.00270570909
-0.00112162045
0.00300848726
-0.00125752146
0.00332443924
-0.00139995455
0.00365119663
-0.00154972965
0.00398337185
-0.00170221079
0.00431867842
-0.00185954388
0.00464935351
-0.0020159011
0.00496905295
-0.00216595827
0.0052583795
-0.00230442613
0.00550534238
-0.00243352429
0.00571555251
-0.00255242422
0.00589412736
-0.00266014674
0.00603292465
-0.00276454303
0.00615112289
-0.0028642149
0.00625790938
-0.00296512217
0.006368108
-0.00306870417
0.00647211471
-0.00316862303
0.00656775179
-0.00327346027
0.00665634949
-0.00339218023
0.00675154538
-0.00350033033
-0.00360471601
0.0068539991
-1.87443813e-08
4.16440739e-07
-7.40711211e-08
1.27300559e-06
-1.66680089e-07
2.18385744e-06
-2.97166467e-07
3.15359858e-06
-4.65499278e-07
4.18443979e-06
-6.70638013e-07
5.2759891e-06
-9.10258666e-07
6.42581301e-06
-1.1805457e-06
7.62996012e-06
-1.47624797e-06
8.88333341e-06
-1.79037885e-06
1.01799383e-05
-2.11378888e-06
1.15127011e-05
-2.43539831e-06
1.2874216e-05
-2.74162253e-06
1.42564018e-05
-3.01644993e-06
1.56504247e-05
-3.24126327e-06
1.70466582e-05
-3.39439758e-06
1.84343361e-05
-3.45059143e-06
1.98013475e-05
-3.3805878e-06
2.11341717e-05
-3.15076833e-06
2.2417844e-05
-2.72316758e-06
2.36350863e-05
-2.05407659e-06
2.47659042e-05
-1.09265893e-06
2.57870112e-05
2.20751045e-07
2.66714258e-05
1.95631707e-06
2.73877036e-05
4.19653506e-06
2.78995547e-05
7.03206658e-06
2.81703627e-05
1.0566044e-05
2.81542547e-05
1.49156059e-05
2.77984329e-05
2.02135075e-05
2.70421126e-05
2.66098864e-05
2.58153521e-05
3.4285953e-05
2.40385669e-05
4.34480704e-05
2.16204913e-05
5.43396674e-05
1.844816e-05
6.72383055e-05
1.44011688e-05
8.23359614e-05
9.46652537e-06
0.000100099085
3.24336344e-06
0.000120944574
-4.34823632e-06
0.000145362039
-1.33664778e-05
0.000173955387
-2.44105397e-05
0.000207486832
-3.7580501e-05
0.000246672639
-5.3200207e-05
0.000292157247
-7.16479653e-05
0.000344835157
-9.33294481e-05
0.000405692019
-0.000118696188
0.000475782147
-0.000148242131
0.000556246635
-0.00018250394
0.000648293674
-0.000222051848
0.000753170948
-0.000267484457
0.000872164852
-0.000319421989
0.00100654386
-0.000378474064
0.00115750725
-0.000445221482
0.00132610975
-0.000520177312
0.00151316009
-0.00060374357
0.00171911025
-0.000696142791
0.00194397852
-0.000797403829
0.00218724251
-0.000907284363
0.00244783785
-0.00102539673
0.00272402396
-0.00115099953
0.00301355835
-0.00128356344
0.00331307883
-0.00142115163
0.00361918608
-0.00156363864
0.00392636537
-0.00170714306
0.00423253998
-0.00185591281
0.00452990222
-0.00199958078
0.00480524703
-0.00213489519
0.00504600387
-0.00225666342
0.00525191675
-0.00237187603
0.00542141794
-0.0024739317
0.0055623153
-0.00257442627
0.0056827532
-0.00267286553
0.00579151126
-0.00276890736
0.00589408871
-0.00286712356
0.00599137087
-0.00296150047
0.00607636346
-0.00305011811
0.00615052182
-0.00314286843
0.00622565525
-0.00324376592
0.00630504276
-0.00335286275
0.00638018334
-0.00346733889
0.00646263538
-0.00358280577
-0.00369423523
0.00655212086
-2.29095267e-08
4.38998904e-07
-8.91320699e-08
1.33873199e-06
-1.97701808e-07
2.29185788e-06
-3.47096592e-07
3.30235648e-06
-5.34676975e-07
4.37131946e-06
-7.56331359e-07
5.49688018e-06
-1.00620388e-06
6.67485869e-06
-1.27646564e-06
7.89932884e-06
-1.55711176e-06
9.16301667e-06
-1.83577847e-06
1.04575677e-05
-2.09790985e-06
1.17737143e-05
-2.32619652e-06
1.3101298e-05
-2.49996338e-06
1.4428872e-05
-2.59526423e-06
1.5744328e-05
-2.5844683e-06
1.70343563e-05
-2.43584915e-06
1.82840988e-05
-2.11300952e-06
1.94767701e-05
-1.57410582e-06
2.05933973e-05
-7.70182581e-07
2.16119082e-05
3.54623956e-07
2.25081182e-05
1.86403954e-06
2.32541688e-05
3.83093928e-06
2.38176229e-05
6.3379993e-06
2.41616951e-05
9.47905782e-06
2.42437804e-05
1.33602525e-05
2.40152898e-05
1.81070073e-05
2.34203192e-05
2.3863232e-05
2.23945094e-05
3.07936233e-05
2.08642747e-05
3.9086242e-05
1.87454652e-05
4.89609911e-05
1.59362999e-05
6.06702219e-05
1.23247339e-05
7.44074756e-05
7.87830921e-06
9.05829849e-05
2.26744282e-06
0.00010957536
-4.59669747e-06
0.000131824645
-1.27886507e-05
0.000157837248
-2.27755663e-05
0.000188179851
-3.4697584e-05
0.000223642526
-4.88363389e-05
0.000264755034
-6.55306952e-05
0.000312308007
-8.5141609e-05
0.000367170318
-0.000108071163
0.000430275646
-0.000134762484
0.000502633358
-0.000165696918
0.000585316675
-0.000201389811
0.000679448154
-0.000242384428
0.000786173322
-0.000289240438
0.000906629389
-0.000342519732
0.00104189928
-0.000402766649
0.0011929458
-0.000470481257
0.00136054235
-0.00054608387
0.00154519099
-0.000629883932
0.0017470036
-0.00072200413
0.00196564087
-0.00082239468
0.00220022776
-0.000930742659
0.00244934514
-0.00104653337
0.00271089803
-0.0011688487
0.00298208246
-0.00129659196
0.00325932098
-0.00142824833
0.00353860971
-0.00156286196
0.00381536528
-0.00169791662
0.00408474606
-0.00183302842
0.0043422118
-0.00196461712
0.00457379787
-0.00208750684
0.00477205821
-0.00219784913
0.00493478328
-0.00229762794
0.00507251588
-0.00239440363
0.00519186047
-0.00249122751
0.00530264699
-0.00258472522
0.00540234185
-0.00267412807
0.00549082793
-0.00276135682
0.00557345028
-0.0028515347
0.00565221944
-0.00294589879
0.00573081215
-0.00304009957
0.00581147911
-0.00313079072
0.00589491721
-0.00322631352
0.00597485861
-0.00332371619
0.0060524392
-0.00343045451
0.00612201334
-0.00353692951
0.00619182511
-0.00365263991
-0.00376958843
0.00626715584
-2.5218656e-08
4.63839348e-07
-9.6881522e-08
1.40986175e-06
-2.12075132e-07
2.4064406e-06
-3.66617618e-07
3.45621642e-06
-5.54582297e-07
4.55853417e-06
-7.67977929e-07
5.70946004e-06
-9.96489076e-07
6.90248764e-06
-1.22724865e-06
8.12913741e-06
-1.44460589e-06
9.37935072e-06
-1.62984513e-06
1.06417071e-05
-1.76086319e-06
1.19035498e-05
-1.81184697e-06
1.3151011e-05
-1.75321394e-06
1.43688746e-05
-1.5506338e-06
1.55402817e-05
-1.16436232e-06
1.66465099e-05
-5.4876196e-07
1.76668089e-05
3.4824544e-07
1.85779501e-05
1.58612176e-06
1.93535769e-05
3.23212457e-06
1.9963822e-05
5.36383608e-06
2.0374175e-05
8.06980634e-06
2.05458071e-05
1.14511862e-05
2.04336811e-05
1.56235636e-05
1.99865749e-05
2.07189404e-05
1.9145468e-05
2.68881697e-05
1.78429196e-05
3.43032614e-05
1.60018675e-05
4.31634605e-05
1.35307193e-05
5.36977051e-05
1.03261867e-05
6.60953956e-05
6.34365599e-06
8.07141067e-05
1.31322336e-06
9.78910234e-05
-4.85680114e-06
0.000118015133
-1.22507622e-05
0.000141531196
-2.1253953e-05
0.000168934406
-3.20056081e-05
0.00020089884
-4.47591748e-05
0.000237930022
-5.98132505e-05
0.000280715977
-7.74904788e-05
0.000330021404
-9.814917e-05
0.000386667305
-0.000122184494
0.000451544064
-0.000150026796
0.00052560067
-0.000182136718
0.000609829308
-0.000219000578
0.000705246406
-0.000261123975
0.000812864579
-0.000309018451
0.000933654967
-0.000363185777
0.00106849977
-0.000424096693
0.00121813216
-0.000492164047
0.00138306269
-0.00056770957
0.00156349074
-0.000650922258
0.00175919634
-0.000741803027
0.00196947236
-0.000840173428
0.00219306663
-0.000945611149
0.00242818662
-0.00105752671
0.00267240037
-0.00117496787
0.00292270523
-0.00129684916
0.00317536308
-0.00142151707
0.00342623391
-0.00154747296
0.00367028581
-0.00167231019
0.0039030418
-0.00179562761
0.0041200537
-0.00191493771
0.00431366803
-0.00202665174
0.004479932
-0.00213089063
0.00461641751
-0.00222400162
0.00473033564
-0.00231177582
0.00483011248
-0.00239741367
0.00492233238
-0.00248663307
0.00500587432
-0.0025747805
0.00508339255
-0.002662253
0.00515658485
-0.00274732664
0.00522652173
-0.0028312998
0.00529418163
-0.00291920178
0.00536172421
-0.00301344987
0.00543055137
-0.00310893464
0.00550439351
-0.00320464029
0.00557934074
-0.00330126915
0.00565506082
-0.00339944616
0.0057320024
-0.00350741084
0.00581139273
-0.00361633924
0.00588932172
-0.00373059282
-0.00384241535
0.0059621239
-2.35135696e-08
4.86999865e-07
-8.78482394e-08
1.47369888e-06
-1.87266963e-07
2.5052892e-06
-3.14102926e-07
3.58241519e-06
-4.58235015e-07
4.70196575e-06
-6.06766462e-07
5.85722905e-06
-7.43729353e-07
7.03862537e-06
-8.49779547e-07
8.23429677e-06
-9.01874086e-07
9.43048517e-06
-8.72913892e-07
1.06117135e-05
-7.31274374e-07
1.17607975e-05
-4.40253861e-07
1.28587926e-05
4.24497804e-08
1.38848823e-05
7.65193459e-07
1.48161522e-05
1.78311383e-06
1.56270997e-05
3.15911997e-06
1.62892021e-05
4.96508302e-06
1.6770269e-05
7.28287743e-06
1.70339385e-05
1.020578e-05
1.70389395e-05
1.38400836e-05
1.6737747e-05
1.83070295e-05
1.60765836e-05
2.37443868e-05
1.49938832e-05
3.03089666e-05
1.34193806e-05
3.81809788e-05
1.12706581e-05
4.75671192e-05
8.45378247e-06
5.86494936e-05
4.91628003e-06
7.17394797e-05
4.37320832e-07
8.71368576e-05
-5.07480923e-06
0.000105185889
-1.17092597e-05
0.000126278619
-1.97836807e-05
0.000150850493
-2.94331359e-05
0.000179480216
-4.08852515e-05
0.00021262451
-5.44033391e-05
0.000250887588
-7.02741233e-05
0.000294938525
-8.88159157e-05
0.000345498405
-0.000110379327
0.000403347806
-0.0001353465
0.000469319661
-0.000164128074
0.000544286587
-0.000197158889
0.000629145327
-0.000234893435
0.000724795179
-0.000277794903
0.00083210843
-0.000326322607
0.000951890377
-0.000380915143
0.00108483159
-0.00044196934
0.00123145031
-0.000509814601
0.00139202495
-0.000584681904
0.00156651531
-0.000666665472
0.00175447408
-0.00075568002
0.00195494335
-0.000851403461
0.0021664259
-0.000953297198
0.00238688262
-0.00106064128
0.00261374498
-0.00117248424
0.00284388405
-0.00128767617
0.00307360205
-0.00140469602
0.00329903522
-0.00152229231
0.00351605509
-0.00163854687
0.00372112559
-0.00175255339
0.00390941868
-0.0018606129
0.00407541244
-0.00196163035
0.00421629771
-0.00205583167
0.00433189362
-0.00214225708
0.00442640009
-0.00222540654
0.00450909209
-0.00230670164
0.00458751768
-0.0023902096
0.00466357096
-0.00247347579
0.00473311013
-0.00255618183
0.004796473
-0.00263815309
0.00485481993
-0.00272060902
0.00491240925
-0.00280492503
0.00497292335
-0.00289182209
0.00503305891
-0.00297934411
0.00509586108
-0.00307625872
0.00515791371
-0.00317099545
0.00521936722
-0.00326610286
0.00528577424
-0.00336768491
0.00535485604
-0.00346853742
0.00542524811
-0.00357781517
0.00549924891
-0.00369035769
0.00557330558
-0.00380467568
-0.00392084951
0.00565171679
-1.62547617e-08
5.02883411e-07
-5.60402492e-08
1.51296223e-06
-1.09693717e-07
2.55834523e-06
-1.6476066e-07
3.63681516e-06
-2.05476694e-07
4.74194929e-06
-2.12408728e-07
5.86336484e-06
-1.62093416e-07
6.98744947e-06
-2.66449941e-08
8.09792072e-06
2.26706686e-07
9.17613526e-06
6.3606963e-07
1.02012777e-05
1.24535049e-06
1.11503643e-05
2.10485686e-06
1.19980489e-05
3.27206883e-06
1.27163423e-05
4.81256056e-06
1.32742362e-05
6.80111116e-06
1.36370222e-05
9.32278904e-06
1.37658866e-05
1.24744068e-05
1.36168953e-05
1.63659416e-05
1.31405221e-05
2.11222627e-05
1.22806028e-05
2.6885191e-05
1.09726603e-05
3.38168171e-05
9.14264776e-06
4.21020939e-05
6.70613253e-06
5.19133679e-05
3.60545447e-06
6.35204408e-05
-3.39235656e-07
7.71892255e-05
-5.21799884e-06
9.32234582e-05
-1.11211703e-05
0.000111967672
-1.83103498e-05
0.000133803476
-2.69143115e-05
0.000159226773
-3.7136514e-05
0.000188647505
-4.92086463e-05
0.000222594267
-6.33844282e-05
0.000261649614
-7.99454433e-05
0.000306442848
-9.9201758e-05
0.000357654638
-0.000121491467
0.000416011762
-0.000147178975
0.000482277632
-0.000176651515
0.000557239875
-0.000210315458
0.000641692781
-0.000248588102
0.000736413675
-0.000291887324
0.000842130279
-0.000340618011
0.000959481886
-0.000395154919
0.00108897251
-0.00045582209
0.0012309167
-0.000522868629
0.001385379
-0.000596441401
0.0015521085
-0.000676554321
0.00173046828
-0.000763052471
0.00191935666
-0.000855565177
0.00211715821
-0.000953492945
0.00232174389
-0.00105600013
0.00253053215
-0.00116209613
0.00274047333
-0.00127059287
0.00294813784
-0.00138015899
0.00314986696
-0.00148941543
0.0033419948
-0.00159683412
0.00352117608
-0.00170148397
0.00368442659
-0.00180180739
0.00382630103
-0.00189443704
0.00394502363
-0.00197934503
0.00404312465
-0.00205974159
0.00412630423
-0.00213902097
0.00420102164
-0.00221698605
0.00426963408
-0.00229402965
0.00433444569
-0.00237152106
0.00439449296
-0.00245026747
0.00445217806
-0.00253117377
0.00450836548
-0.00261238092
0.00456624409
-0.00269604049
0.00462278312
-0.00277715608
0.00467628521
-0.00285843648
0.00472797067
-0.0029435159
0.00478049741
-0.00303187913
0.0048303144
-0.00312608661
0.0048903343
-0.00323102474
0.00495460251
-0.00333037949
0.00501586625
-0.00342895801
0.0050800787
-0.00353275995
0.0051424469
-0.00364019861
0.00520830302
-0.00375623209
0.00527947327
-0.00387586458
-0.00398989341
0.00534849307
-3.09946181e-09
5.05633136e-07
5.55876491e-10
1.5088136e-06
2.61566077e-08
2.53217901e-06
9.26058311e-08
3.56973374e-06
2.2313533e-07
4.61072471e-06
4.45703405e-07
5.64004034e-06
7.93396783e-07
6.63893758e-06
1.3048864e-06
7.58554826e-06
2.02492696e-06
8.45514415e-06
3.00499141e-06
9.22019078e-06
4.30403152e-06
9.85022497e-06
5.9892803e-06
1.03116196e-05
8.13738813e-06
1.05669672e-05
1.08354904e-05
1.05747729e-05
1.41826687e-05
1.02883824e-05
1.82915592e-05
9.6554282e-06
2.32902896e-05
8.61648389e-06
2.93242472e-05
7.10476384e-06
3.65405934e-05
5.06232561e-06
4.51230378e-05
2.38814418e-06
5.52950996e-05
-1.03162152e-06
6.7292326e-05
-5.29344274e-06
8.1381219e-05
-1.04859596e-05
9.78628599e-05
-1.68235824e-05
0.000117070499
-2.4428532e-05
0.000139427568
-3.3481334e-05
0.000165299448
-4.41855391e-05
0.00019514652
-5.67649212e-05
0.000229473884
-7.14676572e-05
0.000268828176
-8.85669793e-05
0.00031380024
-0.000108360813
0.000365021366
-0.000131171186
0.000423156136
-0.000157341444
0.000488892609
-0.000187233163
0.000562928387
-0.000221220297
0.00064595166
-0.000259680663
0.000738615165
-0.00030298518
0.000841504408
-0.000351483916
0.000955099362
-0.000405489209
0.00107972969
-0.000465255643
0.00121552445
-0.000530957364
0.00136235753
-0.000602663237
0.00151979126
-0.000680310829
0.00168702144
-0.000763680491
0.00186282552
-0.000852367841
0.00204551336
-0.000945750128
0.0022329273
-0.0010429889
0.00242248694
-0.00114306218
0.00261128493
-0.00124480757
0.00279611751
-0.00134693808
0.00297362932
-0.00144811406
0.00314054616
-0.00154708529
0.00329386163
-0.00164274048
0.00343140899
-0.0017343911
0.0035510136
-0.0018210984
0.00365170344
-0.00190250794
0.00373592297
-0.00197866753
0.00381012102
-0.00205355358
0.00387728132
-0.00212691187
0.00393854357
-0.0022002951
0.00399543494
-0.00227388833
0.00404753357
-0.00234613753
0.00409561537
-0.0024196141
0.00414146682
-0.00249613031
0.00418472663
-0.0025744435
0.00422813625
-0.00265580154
0.00427092089
-0.00273883902
0.0043209061
-0.0028271528
0.00437686762
-0.00291440641
0.00443547423
-0.00300213234
0.00449482353
-0.00309123715
0.0045495402
-0.00318081109
0.00459761227
-0.00327910815
0.00465574854
-0.00338852637
0.00471942053
-0.00349264037
0.00478384558
-0.00359719671
0.00484991983
-0.00370628394
0.00491027982
-0.00381661174
0.00496476537
-0.00393037926
-0.00405601248
0.00503086159
1.66393259e-08
4.88634899e-07
8.4513059e-08
1.44043427e-06
2.26004872e-07
2.39010805e-06
4.68307918e-07
3.32678379e-06
8.44043641e-07
4.23427833e-06
1.39172753e-06
5.0915836e-06
2.15628306e-06
5.87354641e-06
3.18963354e-06
6.55129712e-06
4.55140458e-06
7.09240406e-06
6.30970023e-06
7.46085416e-06
8.54218253e-06
7.61662522e-06
1.13369614e-05
7.51564065e-06
1.47938342e-05
7.10880565e-06
1.90257746e-05
6.34145001e-06
2.41603362e-05
5.15233729e-06
3.03320355e-05
3.48213563e-06
3.7712993e-05
1.23382231e-06
4.64865167e-05
-1.67057469e-06
5.68595795e-05
-5.31268038e-06
6.90663006e-05
-9.82066611e-06
8.33679978e-05
-1.53355588e-05
0.000100055351
-2.19831941e-05
0.000119488346
-2.99215212e-05
0.000141990955
-3.93289386e-05
0.000167961793
-5.040231e-05
0.000197837151
-6.33598357e-05
0.000232089814
-7.84415664e-05
0.000271230567
-9.59092743e-05
0.000315805653
-0.000116046595
0.000366391449
-0.000139156886
0.00042358701
-0.000165560751
0.000488003115
-0.000195591946
0.0005602474
-0.000229590673
0.000640904038
-0.000267895045
0.000730508196
-0.00031083001
0.000829515319
-0.000358693661
0.000938264807
-0.000411740872
0.00105693884
-0.000470164487
0.00118551696
-0.000534074219
0.00132372867
-0.000603474586
0.00147100603
-0.000678242309
0.00162644042
-0.000758105573
0.00178874803
-0.000842626792
0.00195624909
-0.000931190391
0.00212685702
-0.00102298488
0.00229812489
-0.00111702705
0.00246735397
-0.0012122269
0.00263169371
-0.00130741076
0.00278825393
-0.00140137661
0.00293429375
-0.00149298677
0.00306752052
-0.00158134982
0.00318625207
-0.00166582603
0.00328977683
-0.00174627469
0.00337800823
-0.0018226324
0.0034522145
-0.0018953147
0.00351545261
-0.00196575508
0.0035724746