/*--------------------------------*- C++ -*----------------------------------*\
  =========                 |
  \\      /  F ield         | OpenFOAM: The Open Source CFD Toolbox
   \\    /   O peration     | Website:  https://openfoam.org
    \\  /    A nd           | Version:  8
     \\/     M anipulation  |
\*---------------------------------------------------------------------------*/
FoamFile
{
    version     2.0;
    format      ascii;
    class       volVectorField;
    location    "0.058";
    object      U;
}
// * * * * * * * * * * * * * * * * * * * * * * * * * * * * * * * * * * * * * //

dimensions      [0 1 -1 0 0 0 0];

internalField   nonuniform List<vector> 
42400
(
(-0.0172390805 0.0165165777 -7.15359494e-27)
(-0.0511585333 0.0482716258 2.38736692e-26)
(-0.0851431691 0.0791449687 2.54506534e-26)
(-0.119253596 0.10910421 0)
(-0.153568992 0.138176559 0)
(-0.188155607 0.16636632 -5.80063944e-28)
(-0.223051361 0.193652922 0)
(-0.258262322 0.219996479 6.35389926e-28)
(-0.293765922 0.245341922 0)
(-0.329515843 0.269623218 6.94377392e-28)
(-0.365447919 0.292768625 7.25198085e-28)
(-0.401486439 0.314706309 -7.56865397e-28)
(-0.437549875 0.335369429 -3.36944621e-26)
(-0.473555368 0.354700127 -3.45545627e-26)
(-0.509421668 0.372652198 -8.56507126e-28)
(-0.545070594 0.389192538 0)
(-0.580427305 0.404301627 0)
(-0.615419735 0.417973377 0)
(-0.649977519 0.43021462 0)
(-0.684030673 0.441044466 0)
(-0.717508183 0.450493672 0)
(-0.75033659 0.458604065 -2.21327534e-27)
(-0.782438572 0.465428043 -4.59279612e-26)
(-0.813731484 0.471028111 -9.20435399e-26)
(-0.84412577 0.475476383 -4.60267726e-26)
(-0.873523134 0.478853979 -2.49942227e-27)
(-0.901814288 0.481250218 -2.56854072e-27)
(-0.928876038 0.482761579 5.27250449e-27)
(-0.954567744 0.483490459 0)
(-0.978727644 0.483543564 0)
(-1.00116922 0.483029229 4.92191153e-26)
(-1.02167411 0.482051978 4.82893744e-26)
(-1.03998115 0.480706191 5.86314839e-27)
(-1.05583687 0.479102763 -4.46362505e-26)
(-1.06900221 0.477384568 -3.13135824e-26)
(-1.07891927 0.476024679 0)
(-1.08536984 0.474310059 0)
(-1.08756845 0.47280951 0)
(-1.08541406 0.471239497 0)
(-1.07834828 0.470435993 -3.37203808e-26)
(-1.06459394 0.470209696 -4.18929787e-26)
(-1.04325533 0.469881596 3.37687205e-27)
(-1.01211482 0.469678271 1.86533977e-25)
(-0.971159501 0.468985544 -1.68416202e-26)
(-0.918501653 0.468393919 -1.66054302e-25)
(-0.852623985 0.467776387 -2.38919657e-25)
(-0.771784136 0.466997461 1.85139272e-26)
(-0.674072056 0.465827359 2.83718071e-25)
(-0.557344968 0.464057712 1.91784008e-26)
(-0.419899262 0.461173759 4.25578249e-25)
(-0.257738521 0.457312688 1.23805656e-33)
(-0.0695893845 0.454435331 -1.39292662e-24)
(0.143054657 0.453679014 -6.42476044e-25)
(0.391917901 0.45164192 5.8961434e-26)
(0.689066246 0.445397077 0)
(1.03215908 0.436907404 0)
(1.42620248 0.428403881 0)
(1.87886898 0.419766827 -8.86556633e-26)
(2.39486961 0.410757666 -9.19712346e-26)
(2.97961187 0.401518739 0)
(3.63837982 0.391839818 1.94949487e-24)
(4.37533032 0.381877082 1.93444474e-24)
(5.19370776 0.372218892 -1.6852101e-24)
(6.09547347 0.363986178 -1.33674339e-24)
(7.08024797 0.359061715 0)
(8.14363993 0.356867748 0)
(9.28826839 0.355378963 9.60380528e-25)
(10.4694937 0.387423664 2.13984177e-24)
(11.6909204 0.415931742 4.01709782e-25)
(13.1685199 0.212571664 0)
(14.441059 0.309248966 0)
(15.1591826 1.15671469 9.84315009e-25)
(16.9023065 0.618544289 8.51544209e-25)
(19.1947034 -1.13413956 0)
(19.9101209 -0.0671642758 1.68239443e-24)
(19.6989826 2.130947 -7.84269753e-24)
(21.4746583 1.50816473 -6.8513163e-25)
(23.3035175 -0.905512901 -5.64903869e-24)
(23.6559961 -0.76442025 -2.23147964e-23)
(23.7542251 0.168338932 -2.23664755e-23)
(-0.020465838 0.0181427567 0)
(-0.0607244174 0.0532879995 1.8136577e-26)
(-0.101054688 0.087804324 1.89330266e-26)
(-0.141535469 0.121689828 0)
(-0.182211813 0.154946289 0)
(-0.223105231 0.187540327 1.96224175e-26)
(-0.264186906 0.21940093 2.08253e-26)
(-0.30539423 0.250434789 7.04302276e-28)
(-0.346638675 0.280536119 0)
(-0.387813329 0.309593451 7.71157919e-28)
(-0.428799905 0.337495719 8.06377806e-28)
(-0.469474965 0.364137614 -2.28627353e-26)
(-0.509714875 0.389423828 -4.53211303e-26)
(-0.549399144 0.413271948 -2.32911147e-26)
(-0.58841211 0.435614025 2.24866256e-26)
(-0.62664319 0.456397048 2.55557151e-26)
(-0.663986086 0.475582664 0)
(-0.700337311 0.493146479 2.15519875e-27)
(-0.735594392 0.5090772 0)
(-0.769653956 0.523375825 0)
(-0.802409834 0.536054953 0)
(-0.8337512 0.547138244 -2.67850695e-26)
(-0.863560718 0.556660016 -5.14546501e-26)
(-0.89171262 0.564664941 -2.45945259e-26)
(-0.918070587 0.571207815 0)
(-0.942485365 0.576353198 -5.80189411e-27)
(-0.964791292 0.580174246 -3.00498487e-27)
(-0.984801328 0.582750363 6.20387106e-27)
(-1.00230265 0.584168614 -2.42332175e-26)
(-1.01705599 0.58452353 -2.43995016e-26)
(-1.02881563 0.583912035 -6.66730643e-27)
(-1.03735307 0.582413136 -6.72200991e-27)
(-1.04211416 0.580400225 2.64399159e-26)
(-1.04305852 0.577472571 3.590891e-26)
(-1.03952656 0.574089771 -4.44200729e-26)
(-1.03129986 0.570167206 -9.578998e-27)
(-1.01803359 0.5662908 0)
(-0.997863931 0.562307171 8.75755812e-27)
(-0.969907781 0.55773835 0)
(-0.932568575 0.552814253 1.89290519e-26)
(-0.885608325 0.54727815 9.03735085e-26)
(-0.827452373 0.541634309 8.7517649e-26)
(-0.756788333 0.535875936 1.96559468e-26)
(-0.671890454 0.529864427 -2.06039965e-26)
(-0.570767498 0.523353409 4.25274675e-26)
(-0.451337431 0.516075561 -2.09715466e-26)
(-0.311226231 0.508169622 2.23047454e-26)
(-0.151084577 0.500144385 3.95854333e-25)
(0.0364551016 0.493552603 4.45473362e-25)
(0.245567135 0.488351552 0)
(0.497199772 0.480722058 -2.93221363e-26)
(0.789497147 0.470416164 6.35856855e-26)
(1.12644344 0.459454701 5.90760541e-25)
(1.51406886 0.448505847 7.8021448e-25)
(1.95773899 0.437447255 7.35796362e-26)
(2.46237829 0.426306907 1.72476487e-24)
(3.03353722 0.415230091 1.89300235e-24)
(3.67663652 0.40426455 -7.09423225e-26)
(4.39602696 0.393597854 -6.33685282e-26)
(5.19511848 0.38376321 2.62548318e-24)
(6.07628252 0.376038509 2.8856786e-24)
(7.03977781 0.372051161 -1.25780526e-27)
(8.08188659 0.373001757 3.03836962e-26)
(9.19609134 0.379183921 0)
(10.3728283 0.392368221 -2.14861106e-24)
(11.5964145 0.414197042 -4.40214493e-24)
(12.8752387 0.428084863 -1.76812949e-24)
(14.1598892 0.464059364 0)
(15.3552137 0.611022735 6.42966286e-27)
(16.7323274 0.545144245 6.45189894e-25)
(18.2936558 0.17175237 2.21673282e-24)
(19.0473843 0.728642199 -5.0075991e-25)
(19.7519719 1.66204792 -8.39577832e-25)
(21.4978858 0.610858655 -1.60616172e-24)
(22.9544535 -0.639233792 1.83643004e-26)
(23.360239 0.234847445 1.26477641e-23)
(23.4293352 1.27279842 1.93071789e-23)
(23.6525711 1.12213856 -5.00091878e-24)
(23.836311 0.475816911 -2.3804907e-23)
(23.8112395 0.282811638 -1.08320094e-23)
(-0.0230713545 0.0189041959 1.88667155e-27)
(-0.0684533492 0.055722662 2.81504982e-28)
(-0.113927989 0.092147636 -2.97646963e-28)
(-0.159594425 0.128208873 3.10454452e-28)
(-0.205491049 0.163903373 0)
(-0.251572664 0.199160592 -1.38520611e-26)
(-0.297758757 0.23387413 6.71824871e-34)
(-0.343916341 0.267911859 1.41155389e-26)
(-0.389888845 0.301128786 1.4183314e-26)
(-0.435505697 0.33337759 2.83050584e-26)
(-0.480589923 0.364515805 1.48853599e-26)
(-0.524964522 0.394411013 9.14774309e-28)
(-0.568456929 0.422944445 9.57235762e-28)
(-0.610901406 0.450013024 1.2970382e-26)
(-0.652139587 0.475530047 1.24187042e-26)
(-0.692019581 0.499424861 3.27436288e-27)
(-0.730394107 0.521641924 -1.33226496e-26)
(-0.76711811 0.542139625 -2.04907136e-26)
(-0.802046195 0.560889129 -9.38364258e-27)
(-0.835030086 0.577873419 2.57401973e-27)
(-0.865916172 0.593086623 -2.67763408e-27)
(-0.894542969 0.60653368 -2.78271615e-27)
(-0.920738299 0.618230257 0)
(-0.944316205 0.628202888 5.99687548e-27)
(-0.965073448 0.636488297 2.82325202e-27)
(-0.982785072 0.643131111 -1.12818024e-30)
(-0.997210733 0.648177103 -8.75803516e-28)
(-1.00808082 0.651695977 1.05812928e-27)
(-1.01515165 0.653685844 7.5199513e-27)
(-1.01795883 0.65436494 -1.27827686e-26)
(-1.01640543 0.653637804 -7.4478974e-27)
(-1.00998694 0.651844359 5.30017754e-26)
(-0.998491068 0.649004249 2.85789963e-26)
(-0.981472612 0.645579756 0)
(-0.957295685 0.641272772 0)
(-0.925143057 0.635732256 -9.13267107e-27)
(-0.883380482 0.629304486 0)
(-0.832033499 0.621807949 1.87016536e-26)
(-0.769670243 0.613761806 6.40693089e-26)
(-0.695044963 0.60521226 3.87544557e-26)
(-0.606509185 0.596126948 -6.44017201e-26)
(-0.502179515 0.586444877 0)
(-0.380590675 0.575911378 0)
(-0.239341228 0.56455955 1.80092389e-25)
(-0.0780496314 0.553101302 3.13106069e-25)
(0.109795152 0.543366224 2.29761644e-26)
(0.315787377 0.535214623 0)
(0.567766261 0.524173211 0)
(0.857540251 0.510784066 3.74834893e-25)
(1.18997425 0.497800997 4.55911063e-25)
(1.57142249 0.485528216 -2.6914521e-26)
(2.00651349 0.473707451 0)
(2.50055192 0.462443185 -5.38420843e-25)
(3.05909792 0.451854097 -6.85171764e-25)
(3.68726767 0.44201474 -1.60811494e-24)
(4.3896013 0.433443435 -1.94755935e-24)
(5.17010177 0.427318849 -2.36406356e-24)
(6.03121756 0.424803719 -1.39724928e-33)
(6.97298715 0.426698081 -1.90051264e-33)
(7.99269236 0.433681554 -7.0737362e-24)
(9.08462848 0.446026598 -3.85412575e-24)
(10.2409456 0.464409407 3.92818415e-24)
(11.449794 0.490534907 4.10937889e-24)
(12.6977056 0.525365717 0)
(13.9695152 0.568119537 4.48100002e-24)
(15.2393141 0.623821414 8.25157354e-24)
(16.504251 0.686027595 4.30767307e-24)
(17.7692208 0.701522407 0)
(18.904917 0.823716242 -1.89983234e-26)
(19.8931313 1.04152457 5.76693263e-24)
(21.1626564 0.842292505 6.10768879e-24)
(22.2550164 0.515295379 0)
(22.85322 1.06082414 0)
(23.2615689 1.55244123 1.34106697e-24)
(23.6958723 1.06262555 -1.65837592e-24)
(23.8192991 0.739779822 6.01470409e-24)
(23.8995531 0.768993875 1.98205959e-23)
(23.8887594 0.953914427 0)
(23.8376385 0.978495979 -2.6629756e-24)
(23.8481408 0.781282663 1.60985615e-23)
(-0.0251293549 0.0190007152 1.89050876e-28)
(-0.0745789659 0.0561344378 2.97447033e-28)
(-0.124169763 0.0930482976 4.67423657e-27)
(-0.174023464 0.129799579 -3.94137484e-27)
(-0.224160171 0.166382779 -4.64676714e-27)
(-0.274502674 0.202711768 0)
(-0.324883356 0.238642435 -9.45593885e-27)
(-0.375094416 0.274010565 -9.693262e-27)
(-0.424929955 0.308647047 -8.2346805e-27)
(-0.474146268 0.342382917 -7.63953396e-27)
(-0.522501812 0.375053074 -5.04988886e-27)
(-0.569760839 0.406505968 2.3800105e-34)
(-0.615695811 0.436606956 1.02956503e-27)
(-0.660088872 0.465239425 1.38457289e-33)
(-0.702731395 0.492304673 -1.13009564e-27)
(-0.743421944 0.517720926 1.8355231e-27)
(-0.781963241 0.541421861 -3.77310833e-27)
(-0.818158534 0.563355086 -2.58114975e-27)
(-0.851807749 0.583480929 5.52023107e-27)
(-0.882703895 0.601771575 2.80537415e-27)
(-0.910629915 0.618209997 -5.85371169e-27)
(-0.935350476 0.63278415 -1.27533903e-26)
(-0.956609093 0.645483555 -1.50323402e-26)
(-0.974131732 0.656300157 3.29486817e-27)
(-0.987632357 0.665218071 0)
(-0.996810607 0.672293062 3.51422075e-27)
(-1.00138482 0.677604732 0)
(-1.00105396 0.681256107 4.09837893e-26)
(-0.995453199 0.683504276 7.28895567e-26)
(-0.984436681 0.684289255 3.4550043e-26)
(-0.966625046 0.683696105 -1.94443538e-26)
(-0.941403978 0.681503504 -2.71036614e-26)
(-0.907819026 0.677670592 1.77713412e-26)
(-0.86450665 0.672385113 9.16287931e-27)
(-0.811356602 0.665754728 -6.91016239e-26)
(-0.747079754 0.658080468 -8.24333024e-26)
(-0.670433639 0.649428136 0)
(-0.579897013 0.639855504 9.26736292e-26)
(-0.473638947 0.629327579 7.24121807e-26)
(-0.350172003 0.617581155 1.91221868e-26)
(-0.207211887 0.604590521 2.05121687e-26)
(-0.0430897604 0.592125544 0)
(0.139397415 0.582227389 0)
(0.349358999 0.572223864 0)
(0.600175708 0.559185904 2.24216213e-26)
(0.887608288 0.544904467 3.12086115e-25)
(1.21668603 0.531569882 3.28915447e-25)
(1.59315325 0.519304946 0)
(2.0210767 0.507834682 0)
(2.5057277 0.497448382 4.43173904e-25)
(3.05265711 0.488382643 5.22608107e-25)
(3.66708702 0.481112512 6.83590928e-25)
(4.35385588 0.476559033 8.29814268e-25)
(5.11691988 0.475756013 -1.53914407e-26)
(5.95870526 0.479602099 -1.13950005e-24)
(6.87953353 0.488857635 -1.37383105e-24)
(7.87728159 0.504213471 -3.23482221e-24)
(8.9472248 0.52650425 -3.96949296e-24)
(10.0815387 0.556548071 0)
(11.2690691 0.594742201 -1.35668748e-25)
(12.4984557 0.64064497 -4.67014266e-24)
(13.7551288 0.693588522 -9.64811236e-24)
(15.021612 0.754019906 2.1795742e-25)
(16.2760299 0.823877456 2.46729957e-25)
(17.5010163 0.899337372 -6.24187806e-24)
(18.680949 0.974148337 5.87244966e-24)
(19.7649275 1.07265665 6.28297305e-24)
(20.7988421 1.13429275 -6.78293449e-25)
(21.7665846 1.14366602 -4.14487123e-24)
(22.5268838 1.26331834 -8.30581373e-24)
(23.1537639 1.40827971 6.69321013e-26)
(23.730547 1.22256161 -1.4616173e-23)
(23.8873856 1.12057253 -6.39229669e-24)
(23.9138377 1.24334159 0)
(23.8628547 1.45523059 -7.82628402e-24)
(23.8386504 1.30029894 -4.01206002e-23)
(23.8785924 1.19747926 1.88892464e-24)
(23.9766536 1.05658881 1.14252659e-23)
(23.9667606 1.12762987 7.75561311e-24)
(23.9196958 1.13402155 1.90436081e-23)
(-0.0269476938 0.0187611968 1.39785286e-27)
(-0.0799878782 0.0554660228 0)
(-0.133212077 0.0920225136 0)
(-0.186758487 0.128505705 1.16853641e-30)
(-0.240623916 0.164906736 0)
(-0.294677212 0.201127434 0)
(-0.348699215 0.237013641 0)
(-0.402423671 0.272377815 -1.73236515e-27)
(-0.455525044 0.307018012 0)
(-0.507682807 0.340746938 9.60220051e-28)
(-0.558625171 0.373391217 9.64575222e-29)
(-0.608041538 0.404799551 1.3301887e-33)
(-0.655641406 0.434829981 -6.03074712e-28)
(-0.701147697 0.463360706 0)
(-0.744292383 0.490289712 -1.22651804e-27)
(-0.784813498 0.515533033 2.57116832e-27)
(-0.822451313 0.539022155 0)
(-0.856938236 0.560698905 1.58321576e-26)
(-0.887991806 0.580512971 2.95617882e-27)
(-0.915317421 0.598426918 -4.02886332e-26)
(-0.938633775 0.614375046 -2.56636528e-26)
(-0.957610058 0.628433436 3.3081191e-27)
(-0.971981796 0.640597619 0)
(-0.981441902 0.650936496 -4.26008375e-26)
(-0.985658965 0.659577236 -5.03662115e-26)
(-0.98395451 0.666319748 -5.13088231e-26)
(-0.975738968 0.671210828 -5.780328e-26)
(-0.960354283 0.674226153 6.04548773e-26)
(-0.937011984 0.675334715 6.30103472e-26)
(-0.904688955 0.674585943 0)
(-0.863059331 0.672239176 -8.20061716e-26)
(-0.811101711 0.668419917 -8.59636981e-26)
(-0.747732749 0.663181123 9.2278925e-27)
(-0.671740132 0.656584244 -8.44683363e-26)
(-0.581687116 0.648680766 -9.97754577e-26)
(-0.475764794 0.639473389 -2.01151721e-26)
(-0.352021098 0.628944913 1.00749022e-26)
(-0.208557397 0.617083915 -1.74758682e-25)
(-0.0439096455 0.605431533 -2.31673328e-25)
(0.139046514 0.595860319 1.52480446e-25)
(0.349555418 0.586081118 1.46801846e-25)
(0.599181207 0.573669386 1.73287753e-25)
(0.884640032 0.560574113 0)
(1.21090284 0.548653939 -2.34388657e-26)
(1.58259104 0.537929568 -2.68989766e-25)
(2.00391165 0.528377642 -2.18528271e-26)
(2.47999319 0.520396935 4.08893757e-33)
(3.01626476 0.514428076 -4.42711895e-25)
(3.61786213 0.511225023 0)
(4.28942003 0.511652758 -1.39756648e-26)
(5.03474694 0.516537763 -8.33372165e-25)
(5.85642497 0.526666468 -9.82558755e-25)
(6.75540593 0.54280865 3.70870817e-26)
(7.73068317 0.565840924 -1.37308733e-24)
(8.7787077 0.596750439 -1.75716624e-24)
(9.89283591 0.636523436 -2.11231854e-24)
(11.0627246 0.686176135 -7.12396494e-24)
(12.2746624 0.745776533 -5.05254385e-24)
(13.5158057 0.815547504 -5.09290262e-24)
(14.7665373 0.894210181 -5.57629014e-24)
(16.0136791 0.980713666 0)
(17.2330354 1.06984852 2.69340484e-25)
(18.4157472 1.16072419 -5.73930769e-24)
(19.5260523 1.25212201 -6.67122337e-24)
(20.5541904 1.34866863 -3.41466606e-26)
(21.5032757 1.43773924 0)
(22.2977514 1.50659155 7.92204909e-24)
(23.0325724 1.5856562 9.26223679e-24)
(23.5415052 1.59117186 1.04304378e-24)
(23.8589037 1.61267462 -9.30382377e-25)
(23.9317164 1.60945359 -2.2137079e-26)
(23.9324825 1.66485158 -2.24040433e-24)
(23.8887208 1.66505634 -8.32879623e-24)
(23.8856415 1.56395396 -9.47138186e-24)
(23.9098883 1.49207273 -1.56796325e-24)
(23.9036395 1.52232905 0)
(23.9448424 1.50852542 -9.3161288e-24)
(24.0478487 1.38343325 -1.22970331e-23)
(24.0873393 1.32266997 0)
(24.0617401 1.30068418 -9.81719408e-24)
(-0.0288377028 0.0184369674 -2.64975169e-27)
(-0.0855638933 0.0544604727 -3.90824149e-27)
(-0.142461725 0.0903020252 -4.61793423e-27)
(-0.199671324 0.126041982 -3.84026004e-28)
(-0.257153434 0.161665681 3.47642351e-27)
(-0.314716466 0.19706181 -8.53678611e-28)
(-0.372067379 0.232061555 -1.56902683e-27)
(-0.428855056 0.26647078 -2.74944983e-27)
(-0.484701685 0.300089767 9.99723599e-28)
(-0.539231578 0.332713992 2.10691438e-27)
(-0.592019079 0.364156916 8.1355009e-28)
(-0.642686588 0.394263823 -6.63855104e-27)
(-0.69092283 0.422895386 -8.21079733e-27)
(-0.736364643 0.449949878 -1.04492896e-26)
(-0.7786658 0.475331221 1.35751431e-27)
(-0.817485151 0.498963159 2.08506417e-26)
(-0.852504383 0.520751052 0)
(-0.883351507 0.540708812 0)
(-0.909702678 0.558833316 3.24585901e-26)
(-0.931178027 0.575018008 8.64267058e-26)
(-0.94731341 0.589327605 5.0485408e-26)
(-0.957671232 0.601668245 5.81394933e-26)
(-0.961685983 0.612058751 1.15446846e-33)
(-0.958739507 0.620478383 -7.36898294e-26)
(-0.948129306 0.626885979 7.10815547e-26)
(-0.92936107 0.631512219 1.62650011e-25)
(-0.901669701 0.634362735 8.41169408e-26)
(-0.864183249 0.635485991 -4.57110237e-27)
(-0.815938033 0.634935798 4.71555073e-27)
(-0.755867009 0.632773419 -9.72893116e-27)
(-0.68275912 0.629088359 0)
(-0.595207337 0.623995372 1.35301613e-25)
(-0.491550594 0.617614229 -1.06987177e-26)
(-0.369972251 0.610099412 -1.25292322e-25)
(-0.228834224 0.60135471 0)
(-0.0655780459 0.591541313 -2.21214569e-25)
(0.122872891 0.582409723 -1.92436452e-25)
(0.330050489 0.57457553 0)
(0.578228674 0.564993665 0)
(0.861179743 0.554642904 -2.31009862e-25)
(1.18376988 0.54559504 -2.54633583e-25)
(1.55033449 0.537997775 4.90381831e-26)
(1.96496691 0.531959857 0)
(2.43261257 0.527994556 3.19846266e-25)
(2.95832681 0.526716814 7.9019538e-25)
(3.54685921 0.528846889 4.63766901e-25)
(4.20253395 0.535155419 1.93976769e-26)
(4.92899465 0.546401367 -1.70974392e-27)
(5.72895026 0.563335204 0)
(6.6038479 0.586751269 -1.05049826e-24)
(7.55347311 0.617482059 1.61946554e-26)
(8.57544776 0.656336647 1.58015354e-24)
(9.66475346 0.704070848 7.66267053e-26)
(10.8132156 0.761366119 -2.1802114e-24)
(12.0089251 0.828996699 -5.28271957e-24)
(13.2362887 0.907207183 2.1447428e-32)
(14.4797073 0.996194994 2.80708439e-24)
(15.719495 1.09348373 0)
(16.9416095 1.19941845 0)
(18.1169346 1.30869206 2.80120244e-25)
(19.2417837 1.42395051 3.1241972e-25)
(20.273525 1.53155692 0)
(21.2429369 1.63577409 6.43224053e-24)
(22.0786561 1.72154719 5.56835834e-24)
(22.847914 1.79241955 -8.88514474e-24)
(23.413614 1.84958217 -2.94635761e-23)
(23.7732308 1.88247582 -1.27611074e-23)
(23.8777279 1.93772325 -8.03972642e-24)
(23.9135918 1.95101898 -3.0930933e-24)
(23.9219755 1.93519311 -1.83741894e-24)
(23.9139956 1.92042759 7.63800357e-24)
(23.9178474 1.87934641 9.5487631e-24)
(23.9259957 1.85668315 -1.34004692e-23)
(23.9175008 1.84714882 -7.39327076e-24)
(23.9241652 1.81315164 -1.15965541e-23)
(23.9659681 1.69633741 -1.40446659e-23)
(24.0321606 1.63354941 -1.24517327e-23)
(24.0862507 1.52050783 2.71289984e-31)
(24.097732 1.48170832 2.01750291e-23)
(24.0746918 1.42816362 3.23169816e-23)
(-0.0310291161 0.0181575929 1.57882066e-27)
(-0.091930227 0.0535096775 3.91143737e-28)
(-0.152870157 0.0885532609 4.48586987e-27)
(-0.213971417 0.123364139 -6.83510692e-34)
(-0.275142627 0.157919568 -3.64038626e-27)
(-0.336118961 0.192097775 -3.90865058e-27)
(-0.396523113 0.225720509 -4.16024728e-27)
(-0.455914937 0.258586193 -2.11658871e-27)
(-0.513824768 0.290491089 2.20852194e-28)
(-0.569774883 0.321243502 1.62243549e-27)
(-0.62329563 0.35067055 2.81497871e-27)
(-0.673939114 0.378606595 2.49160858e-27)
(-0.721213022 0.404928708 5.30836057e-27)
(-0.764701433 0.429524883 9.35858583e-27)
(-0.803975492 0.452350764 1.52391424e-27)
(-0.838627716 0.473306297 1.59616161e-27)
(-0.868170719 0.492407451 4.028335e-26)
(-0.892162966 0.509570115 4.69657494e-26)
(-0.910079471 0.524760605 -3.63789725e-27)
(-0.921384868 0.53806516 -3.83245193e-27)
(-0.925516696 0.54945562 6.09283369e-26)
(-0.921824161 0.558961143 6.90986012e-26)
(-0.909600577 0.566604733 0)
(-0.888034281 0.572430878 4.54702431e-27)
(-0.856264681 0.576472194 0)
(-0.813316482 0.578796254 0)
(-0.758094424 0.579491955 5.10447514e-27)
(-0.68936763 0.5786629 -1.37974476e-25)
(-0.605747699 0.576427055 -1.32258266e-25)
(-0.505620968 0.57291706 1.34906673e-25)
(-0.387209886 0.568295936 1.44656564e-25)
(-0.24880734 0.56251533 1.17849163e-26)
(-0.0879655836 0.555738075 -1.22857261e-26)
(0.0983094579 0.54941664 0)
(0.3050648 0.54418148 1.28233529e-26)
(0.549910687 0.5380654 0)
(0.829092103 0.531429426 0)
(1.146788 0.526115455 1.42581867e-26)
(1.50742906 0.522587821 0)
(1.91473517 0.521018254 0)
(2.37323675 0.521992189 3.26856876e-25)
(2.88754936 0.526147347 4.0013061e-25)
(3.46204808 0.534196635 0)
(4.10076924 0.546896736 0)
(4.80720828 0.565030568 0)
(5.58412466 0.589417721 1.91169772e-26)
(6.43316385 0.620871352 1.16847348e-26)
(7.3545131 0.660159323 1.09511283e-24)
(8.34650949 0.707955515 1.34568886e-24)
(9.40523594 0.764768291 1.6441252e-24)
(10.5242387 0.830925044 2.00278129e-24)
(11.6939852 0.906514108 2.44806574e-24)
(12.9017638 0.991468232 2.82478451e-24)
(14.1312029 1.08528866 0)
(15.3651364 1.187461 0)
(16.5832332 1.29632166 -3.1095056e-24)
(17.7666526 1.41135931 -6.71621852e-24)
(18.8924112 1.52715832 -3.68046906e-24)
(19.9498453 1.64310155 -3.840636e-24)
(20.9059419 1.75111282 -3.39170039e-24)
(21.7722239 1.85619221 8.88633103e-24)
(22.494294 1.94242854 1.8650765e-23)
(23.15393 2.00122475 4.23203479e-25)
(23.5995984 2.04339949 -1.41763581e-23)
(23.7858172 2.07572649 5.35572445e-25)
(23.8335826 2.11798331 -9.4968813e-25)
(23.8754664 2.12117628 7.77921148e-24)
(23.8864223 2.11664022 -8.27915866e-32)
(23.885401 2.08784647 -1.15154047e-23)
(23.8850807 2.08045347 -9.57523845e-25)
(23.9001478 2.06337766 1.03617652e-23)
(23.9369971 1.99998353 8.90490536e-24)
(23.9575808 1.96463974 0)
(23.9568859 1.96749511 9.05919093e-25)
(23.9571328 1.94552493 0)
(23.9612029 1.94057144 9.60082829e-24)
(23.9855694 1.8760799 2.00751536e-23)
(24.0184821 1.82856327 1.00775155e-23)
(24.0590658 1.70360668 8.41196707e-24)
(24.0753985 1.61446769 2.34976297e-23)
(-0.0335433924 0.0178975555 1.69570024e-27)
(-0.0991093367 0.0525758253 5.33857855e-27)
(-0.164406452 0.0867693367 -4.81787715e-28)
(-0.229509271 0.120537735 -4.17014991e-27)
(-0.294249941 0.153844974 -3.25950024e-27)
(-0.358270352 0.186559102 -2.80652956e-27)
(-0.421091376 0.218496149 -1.19240202e-27)
(-0.482167481 0.249453468 -1.64988609e-27)
(-0.540923452 0.279230223 -3.35273705e-27)
(-0.596779188 0.307640401 -5.3271045e-27)
(-0.649163626 0.334521952 0)
(-0.697511295 0.359758727 -3.061555e-27)
(-0.741284215 0.383222878 1.60888855e-27)
(-0.779919514 0.404848041 0)
(-0.812868777 0.424548124 0)
(-0.839543582 0.442333488 0)
(-0.859367899 0.458170151 0)
(-0.871711911 0.47206647 -2.03478162e-27)
(-0.875893731 0.484041135 0)
(-0.871172653 0.494132275 -4.22338095e-26)
(-0.856761217 0.502379497 -4.70721162e-26)
(-0.831734776 0.508860827 9.03041528e-26)
(-0.795125492 0.513644121 1.05692626e-25)
(-0.745830148 0.516830186 -1.11185388e-25)
(-0.682623982 0.518532055 -1.3277371e-25)
(-0.604136947 0.518881894 -1.38820976e-25)
(-0.508800878 0.518031751 -1.43348421e-25)
(-0.394886999 0.516161986 -1.64079756e-25)
(-0.260676839 0.513290122 -3.33359648e-25)
(-0.103877927 0.509614669 -2.15524755e-25)
(0.0783332557 0.506355524 0)
(0.282125374 0.50400448 -1.36786617e-26)
(0.52254901 0.501240475 -1.4320055e-26)
(0.796714648 0.498396142 0)
(1.10846373 0.497064827 1.50012207e-26)
(1.46184567 0.497770128 0)
(1.86044341 0.500787364 0)
(2.30835733 0.506748035 3.46502714e-25)
(2.80984247 0.516301879 -1.5845826e-26)
(3.36895173 0.530178733 -4.19076976e-25)
(3.98948308 0.549180112 4.98543585e-25)
(4.67477019 0.574139134 5.61187628e-25)
(5.42752596 0.605900956 1.27329423e-26)
(6.24949446 0.645280471 0)
(7.14115029 0.693035035 9.27502686e-25)
(8.10136231 0.749818173 1.14718229e-24)
(9.12704855 0.816124532 0)
(10.2128382 0.892220743 0)
(11.3507657 0.978099472 -1.9943145e-24)
(12.5299024 1.07333702 -2.38356306e-24)
(13.7366277 1.17727256 2.85065229e-24)
(14.9534311 1.28838662 3.117227e-24)
(16.1627285 1.40510148 -3.15476395e-24)
(17.3444499 1.5248906 2.4742035e-32)
(18.4792132 1.64578607 3.66833556e-24)
(19.5445189 1.76440889 1.90862691e-26)
(20.5224711 1.8792989 0)
(21.3918361 1.98490325 2.3674194e-25)
(22.1490323 2.07673657 -4.39605331e-24)
(22.7799114 2.14919328 3.3345568e-25)
(23.2896577 2.19801571 5.75306158e-24)
(23.6717189 2.2318652 0)
(23.7903296 2.25084705 4.29614154e-25)
(23.8087879 2.29665106 0)
(23.7975246 2.30772431 2.9583838e-25)
(23.8174625 2.26070521 -3.81165658e-25)
(23.852356 2.23903188 -8.91426032e-25)
(23.8804204 2.19182076 -1.12673669e-23)
(23.8815353 2.17999379 -8.94417557e-24)
(23.8747284 2.17416669 -6.06678483e-25)
(23.8924139 2.1372943 -1.25967284e-23)
(23.9226871 2.09576004 -1.32237747e-23)
(23.9486582 2.04042464 -1.55376163e-23)
(23.9488427 2.0391101 -1.01160542e-23)
(23.9483191 2.00773437 -1.54520964e-23)
(23.9531186 1.99539151 -1.09905861e-23)
(23.9699117 1.93328594 1.26312359e-23)
(23.9763211 1.91061801 1.34426171e-23)
(23.992512 1.87621643 -2.48200345e-24)
(23.9947588 1.83941098 2.02351641e-24)
(-0.0361340995 0.0174950203 1.48876169e-27)
(-0.106344713 0.0512182025 -5.11606781e-27)
(-0.175770981 0.0842782559 -5.72794573e-28)
(-0.244400739 0.116711256 -5.8830293e-34)
(-0.311959173 0.148463226 -1.60037954e-27)
(-0.377970973 0.179393387 -6.67754424e-28)
(-0.441836818 0.209317147 1.41778061e-27)
(-0.502891686 0.23803858 1.11724313e-33)
(-0.560438584 0.265379736 -1.06363799e-26)
(-0.613778015 0.291161683 -8.87960523e-27)
(-0.6621997 0.315250708 1.71282164e-27)
(-0.705007501 0.337517824 -1.58570384e-26)
(-0.741490733 0.35790607 -1.528422e-26)
(-0.770957437 0.376352634 -2.08636205e-26)
(-0.792692974 0.392837514 -2.4884358e-26)
(-0.805958069 0.407367004 2.92684147e-26)
(-0.809971949 0.419974752 3.39447785e-26)
(-0.803901204 0.430703823 -2.34472518e-27)
(-0.786848925 0.439630244 0)
(-0.757789595 0.446844002 -4.66275087e-26)
(-0.715650914 0.452446315 -5.50135614e-26)
(-0.659219888 0.456572549 -5.6131188e-27)
(-0.587154021 0.459372752 6.72222562e-26)
(-0.497936726 0.461020302 7.93053709e-26)
(-0.389899317 0.461717115 -1.24747586e-26)
(-0.261339428 0.461544946 0)
(-0.110110033 0.460734982 6.81901993e-27)
(0.0664610032 0.460312191 1.35495855e-28)
(0.265513393 0.46068101 -1.9765283e-25)
(0.499786217 0.461046025 -2.07320329e-25)
(0.767158673 0.461743368 2.59958846e-25)
(1.07120389 0.464143387 2.58156055e-25)
(1.41559603 0.468785844 -3.21240021e-26)
(1.80370943 0.476020429 -2.97544802e-25)
(2.2393294 0.486504161 -1.18558704e-32)
(2.72637096 0.500930961 3.79583296e-25)
(3.26860995 0.520058185 -4.41217147e-25)
(3.86961216 0.544705314 -4.80223039e-25)
(4.5325408 0.575718693 -3.14593736e-26)
(5.26005057 0.613950846 1.50302919e-26)
(6.05396903 0.660224126 1.26451004e-26)
(6.91503342 0.715306859 -8.58834593e-25)
(7.84258722 0.779867876 -2.02856778e-24)
(8.83426342 0.854421586 -1.21275814e-24)
(9.88567727 0.939267866 -1.44597028e-24)
(10.9901408 1.03443003 -1.72622864e-24)
(12.1384074 1.13959147 0)
(13.3184848 1.25403844 2.4616794e-24)
(14.5155109 1.37673423 2.89770191e-24)
(15.7112717 1.50597246 3.16089402e-24)
(16.8868675 1.63950333 6.57556457e-24)
(18.0228099 1.77421894 6.82262383e-24)
(19.1000701 1.90738441 7.133402e-24)
(20.0977005 2.03455988 7.45765115e-24)
(21.0012753 2.15430852 3.84890917e-24)
(21.789991 2.25998137 -3.77884693e-25)
(22.4621047 2.35644157 0)
(22.9964178 2.42853156 -3.64423727e-24)
(23.4136924 2.48553577 -4.76728606e-24)
(23.693877 2.53409029 0)
(23.7933288 2.54725054 -5.52447556e-24)
(23.806313 2.56003166 -4.88561138e-24)
(23.797525 2.52880174 0)
(23.8001473 2.49936795 -2.75211876e-25)
(23.814008 2.4994845 0)
(23.8398126 2.47261613 -9.38931904e-24)
(23.8574767 2.43378437 -1.13722118e-24)
(23.8724177 2.40434559 9.6404984e-24)
(23.883581 2.36564289 -1.04661746e-24)
(23.8849989 2.32704284 -1.0956694e-24)
(23.8959381 2.31421613 -1.16600242e-23)
(23.9199096 2.25696227 -1.10869278e-23)
(23.9323454 2.24121241 -7.25652787e-25)
(23.9428716 2.17030198 -1.00288289e-24)
(23.9464178 2.1295224 -4.9711223e-26)
(23.9434061 2.11820963 -7.15830712e-25)
(23.9658781 2.06434803 1.37725696e-23)
(23.986486 2.04685653 2.0908539e-23)
(24.0051788 1.98741199 1.14556847e-23)
(23.9979522 1.94266822 -2.22869616e-24)
(-0.0384057405 0.0167737404 0)
(-0.112425329 0.0489334994 -6.51025164e-28)
(-0.184900696 0.0802802417 6.8455543e-28)
(-0.255696577 0.110826946 -9.63527979e-28)
(-0.324399587 0.140505645 7.58069832e-28)
(-0.390388839 0.169169027 7.97070761e-28)
(-0.452911705 0.19664122 -6.46193429e-27)
(-0.511145573 0.22274048 0)
(-0.564236992 0.247289651 1.84143672e-27)
(-0.611315639 0.270158569 -1.45815231e-26)
(-0.651520291 0.291229768 -1.60667278e-26)
(-0.683987031 0.310427789 2.1935551e-26)
(-0.707848508 0.32771234 2.2326746e-27)
(-0.722224115 0.343077737 -5.91588807e-26)
(-0.726200106 0.356555844 -7.11588922e-26)
(-0.718827685 0.368184303 -3.80313945e-26)
(-0.699068639 0.378072565 -2.66582965e-27)
(-0.665836916 0.386313913 -5.20883364e-26)
(-0.617932947 0.393051509 -5.53717853e-26)
(-0.554038214 0.398446472 2.98653816e-27)
(-0.472695209 0.402691723 -3.14921489e-27)
(-0.37230358 0.406007403 -1.29540831e-26)
(-0.251197753 0.408530372 -8.41381132e-26)
(-0.107363009 0.410521069 -2.04503696e-25)
(0.0616809681 0.412850106 -1.08517492e-25)
(0.253956755 0.415862597 -7.47580657e-27)
(0.480114281 0.419179431 -9.41095202e-26)
(0.73870617 0.423147561 7.97822819e-27)
(1.03306425 0.428947274 -8.2135941e-27)
(1.36653368 0.437133137 -1.42011144e-25)
(1.74228733 0.448123837 0)
(2.16382433 0.462594862 -3.64864566e-25)
(2.6347528 0.481261654 -1.77798738e-26)
(3.15858277 0.504894985 4.5115818e-25)
(3.73865791 0.534318589 5.03348345e-25)
(4.37799385 0.57038428 5.62946193e-25)