/*--------------------------------*- C++ -*----------------------------------*\
  =========                 |
  \\      /  F ield         | OpenFOAM: The Open Source CFD Toolbox
   \\    /   O peration     | Website:  https://openfoam.org
    \\  /    A nd           | Version:  8
     \\/     M anipulation  |
\*---------------------------------------------------------------------------*/
FoamFile
{
    version     2.0;
    format      ascii;
    class       volScalarField;
    location    "0.066";
    object      p;
}
// * * * * * * * * * * * * * * * * * * * * * * * * * * * * * * * * * * * * * //

dimensions      [1 -1 -2 0 0 0 0];

internalField   nonuniform List<scalar> 
42400
(
101579.92
101579.905
101579.89
101579.874
101579.86
101579.845
101579.831
101579.817
101579.804
101579.791
101579.778
101579.765
101579.753
101579.741
101579.73
101579.718
101579.707
101579.696
101579.685
101579.674
101579.662
101579.651
101579.639
101579.626
101579.613
101579.599
101579.584
101579.568
101579.551
101579.533
101579.512
101579.49
101579.467
101579.441
101579.413
101579.382
101579.349
101579.314
101579.287
101579.27
101579.252
101579.209
101579.138
101579.06
101578.988
101578.931
101578.881
101578.828
101578.773
101578.719
101578.663
101578.602
101578.537
101578.494
101578.471
101578.455
101578.414
101578.342
101578.295
101578.281
101578.287
101578.292
101578.302
101578.328
101578.381
101578.478
101578.624
101578.789
101578.933
101579.464
101580.271
101579.985
101580.18
101582.286
101582.653
101581.672
101584.4
101587.068
101589.474
101597.797
101580.361
101580.35
101580.337
101580.324
101580.312
101580.3
101580.289
101580.277
101580.265
101580.254
101580.243
101580.232
101580.222
101580.211
101580.201
101580.191
101580.181
101580.171
101580.161
101580.15
101580.14
101580.129
101580.118
101580.107
101580.095
101580.082
101580.068
101580.053
101580.037
101580.02
101580.001
101579.981
101579.959
101579.935
101579.909
101579.887
101579.874
101579.862
101579.833
101579.778
101579.715
101579.663
101579.622
101579.581
101579.537
101579.492
101579.446
101579.396
101579.34
101579.298
101579.28
101579.273
101579.239
101579.17
101579.121
101579.101
101579.1
101579.097
101579.095
101579.102
101579.123
101579.165
101579.232
101579.326
101579.464
101579.678
101579.996
101580.416
101580.751
101581.43
101582.9
101583.784
101584.296
101585.827
101586.966
101588.146
101591.532
101596.449
101599.513
101601.962
101580.792
101580.783
101580.773
101580.763
101580.753
101580.744
101580.734
101580.725
101580.716
101580.707
101580.698
101580.69
101580.682
101580.674
101580.666
101580.658
101580.651
101580.644
101580.637
101580.63
101580.622
101580.615
101580.608
101580.6
101580.592
101580.583
101580.574
101580.564
101580.554
101580.543
101580.53
101580.515
101580.504
101580.497
101580.491
101580.479
101580.449
101580.409
101580.374
101580.347
101580.323
101580.297
101580.27
101580.242
101580.21
101580.172
101580.148
101580.156
101580.164
101580.11
101580.045
101580.023
101580.025
101580.024
101580.021
101580.022
101580.033
101580.059
101580.107
101580.176
101580.268
101580.384
101580.533
101580.717
101580.969
101581.357
101581.878
101582.592
101583.195
101583.97
101585.117
101586.117
101587.43
101590.552
101594.43
101597.298
101598.525
101599.531
101603.268
101606.282
101581.234
101581.227
101581.219
101581.211
101581.204
101581.196
101581.189
101581.182
101581.175
101581.169
101581.163
101581.157
101581.152
101581.147
101581.143
101581.139
101581.136
101581.133
101581.13
101581.128
101581.126
101581.125
101581.124
101581.123
101581.122
101581.121
101581.12
101581.12
101581.12
101581.121
101581.124
101581.128
101581.126
101581.115
101581.102
101581.087
101581.078
101581.075
101581.069
101581.063
101581.055
101581.044
101581.027
101581.024
101581.046
101581.044
101581.008
101580.989
101580.993
101581.002
101581
101580.999
101581.004
101581.02
101581.05
101581.096
101581.16
101581.243
101581.355
101581.505
101581.713
101581.993
101582.345
101582.734
101583.16
101583.745
101584.44
101585.431
101586.281
101587.16
101589.89
101593.884
101596.237
101596.441
101597.28
101599.861
101602.172
101604.642
101607.198
101609.323
101581.692
101581.686
101581.679
101581.672
101581.665
101581.659
101581.653
101581.648
101581.644
101581.64
101581.637
101581.634
101581.633
101581.632
101581.632
101581.632
101581.634
101581.637
101581.641
101581.645
101581.651
101581.657
101581.665
101581.672
101581.679
101581.688
101581.699
101581.711
101581.723
101581.733
101581.742
101581.751
101581.762
101581.777
101581.791
101581.804
101581.816
101581.828
101581.837
101581.84
101581.857
101581.896
101581.91
101581.896
101581.9
101581.92
101581.935
101581.948
101581.962
101581.981
101582.007
101582.041
101582.083
101582.138
101582.208
101582.302
101582.429
101582.598
101582.828
101583.133
101583.528
101584.025
101584.633
101585.305
101586.001
101586.828
101587.515
101588.815
101592.196
101594.908
101595.984
101596.398
101597.564
101599.456
101601.489
101603.676
101606.096
101608.128
101609.92
101612.085
101582.138
101582.132
101582.125
101582.118
101582.113
101582.108
101582.103
101582.1
101582.097
101582.096
101582.096
101582.097
101582.099
101582.103
101582.107
101582.114
101582.122
101582.131
101582.142
101582.153
101582.165
101582.179
101582.195
101582.214
101582.236
101582.259
101582.282
101582.307
101582.333
101582.36
101582.389
101582.417
101582.446
101582.475
101582.505
101582.534
101582.557
101582.592
101582.647
101582.68
101582.688
101582.715
101582.754
101582.788
101582.819
101582.853
101582.889
101582.928
101582.971
101583.021
101583.08
101583.154
101583.245
101583.358
101583.5
101583.681
101583.917
101584.223
101584.619
101585.107
101585.724
101586.447
101587.351
101588.272
101589.255
101590.761
101593.498
101595.482
101595.734
101596.293
101597.896
101599.512
101601.234
101603.434
101605.485
101607.573
101609.202
101610.802
101613.01
101615.061
101582.537
101582.53
101582.522
101582.516
101582.511
101582.507
101582.504
101582.502
101582.502
101582.504
101582.507
101582.512
101582.518
101582.527
101582.537
101582.549
101582.563
101582.578
101582.596
101582.618
101582.644
101582.671
101582.701
101582.731
101582.764
101582.799
101582.835
101582.873
101582.913
101582.954
101582.997
101583.042
101583.086
101583.127
101583.178
101583.248
101583.299
101583.328
101583.377
101583.436
101583.49
101583.541
101583.594
101583.649
101583.706
101583.767
101583.834
101583.91
101583.997
101584.099
101584.218
101584.36
101584.529
101584.734
101584.99
101585.306
101585.692
101586.149
101586.708
101587.338
101588.112
101588.746
101589.805
101592.146
101594.52
101596.1
101596.804
101597.555
101598.793
101600.629
101602.372
101604.221
101605.785
101607.138
101608.529
101609.77
101611.16
101613.117
101615.091
101617.03
101582.83
101582.822
101582.815
101582.81
101582.806
101582.803
101582.802
101582.803
101582.806
101582.811
101582.818
101582.827
101582.839
101582.853
101582.869
101582.889
101582.912
101582.939
101582.967
101582.998
101583.032
101583.068
101583.107
101583.149
101583.194
101583.242
101583.291
101583.344
101583.399
101583.455
101583.509
101583.572
101583.654
101583.719
101583.767
101583.832
101583.908
101583.978
101584.048
101584.12
101584.193
101584.27
101584.35
101584.436
101584.529
101584.633
101584.749
101584.881
101585.033
101585.209
101585.412
101585.653
101585.944
101586.295
101586.712
101587.192
101587.749
101588.355
101589.069
101589.854
101591.177
101593.636
101595.55
101596.066
101596.383
101597.342
101599.152
101600.88
101602.043
101603.303
101604.743
101605.828
101607.121
101609.015
101610.811
101612.549
101614.33
101616.014
101618.194
101620.054
101582.963
101582.956
101582.95
101582.946
101582.944
101582.944
101582.946
101582.95
101582.957
101582.966
101582.979
101582.994
101583.012
101583.033
101583.058
101583.086
101583.116
101583.151
101583.189
101583.23
101583.274
101583.322
101583.374
101583.428
101583.487
101583.548
101583.609
101583.673
101583.744
101583.832
101583.908
101583.97
101584.048
101584.136
101584.22
101584.305
101584.392
101584.482
101584.574
101584.671
101584.773
101584.882
101585
101585.129
101585.272
101585.434
101585.617
101585.827
101586.068
101586.349
101586.682
101587.081
101587.555
101588.112
101588.76
101589.49
101590.349
101591.192
101592.262
101594.082
101595.495
101596.057
101596.701
101597.633
101598.909
101600.45
101602.19
101603.556
101604.531
101605.694
101607.387
101608.955
101610.431
101611.905
101613.623
101615.387
101617.033
101618.753
101621.586
101624.177
101582.868
101582.864
101582.86
101582.859
101582.86
101582.864
101582.87
101582.88
101582.893
101582.909
101582.928
101582.95
101582.976
101583.005
101583.039
101583.076
101583.117
101583.161
101583.21
101583.263
101583.319
101583.38
101583.444
101583.509
101583.581
101583.668
101583.753
101583.827
101583.904
101583.993
101584.089
101584.183
101584.279
101584.378
101584.48
101584.585
101584.695
101584.81
101584.931
101585.06
101585.199
101585.351
101585.518
101585.703
101585.911
101586.146
101586.413
101586.718
101587.069
101587.48
101587.958
101588.509
101589.132
101589.85
101590.602
101591.334
101592.459
101594.301
101595.833
101596.566
101597.022
101597.928
101599.113
101600.225
101601.599
101603.219
101604.608
101606.016
101607.53
101609.026
101610.691
101612.328
101614.126
101615.933
101617.749
101619.701
101622.153
101624.573
101626.287
101627.511
101582.498
101582.497
101582.497
101582.5
101582.506
101582.516
101582.528
101582.544
101582.563
101582.587
101582.614
101582.645
101582.68
101582.719
101582.763
101582.811
101582.864
101582.921
101582.982
101583.047
101583.115
101583.191
101583.278
101583.361
101583.439
101583.529
101583.627
101583.727
101583.829
101583.933
101584.042
101584.154
101584.27
101584.391
101584.516
101584.649
101584.789
101584.938
101585.099
101585.273
101585.465
101585.676
101585.912
101586.175
101586.47
101586.801
101587.174
101587.597
101588.074
101588.611
101589.2
101589.839
101590.502
101591.428
101592.979
101594.822
101595.713
101596.141
101596.793
101597.668
101598.986
101600.482
101602.041
101603.575
101605.151
101606.506
101608.028
101609.567
101610.89
101612.312
101613.818
101615.355
101616.977
101619.038
101620.898
101623.036
101625.259
101626.637
101628.532
101630.902
101581.786
101581.789
101581.795
101581.804
101581.817
101581.833
101581.853
101581.877
101581.905
101581.938
101581.975
101582.017
101582.063
101582.114
101582.17
101582.231
101582.297
101582.366
101582.442
101582.529
101582.615
101582.698
101582.792
101582.894
101582.997
101583.105
101583.216
101583.332
101583.452
101583.576
101583.706
101583.841
101583.983
101584.133
101584.292
101584.462
101584.646
101584.845
101585.065
101585.308
101585.578
101585.879
101586.217
101586.596
101587.021
101587.498
101588.039
101588.65
101589.336
101590.108
101590.959
101591.86
101593.075
101594.512
101595.289
101595.731
101596.541
101597.786
101599.198
101600.824
101602.548
101604.012
101605.084
101606.171
101607.329
101608.577
101609.715
101610.833
101612.513
101614.19
101615.896
101617.593
101619.396
101621.567
101623.567
101625.225
101627.207
101629.336
101630.824
101632.24
101580.674
101580.684
101580.697
101580.713
101580.734
101580.759
101580.789
101580.823
101580.862
101580.906
101580.955
101581.009
101581.068
101581.133
101581.202
101581.277
101581.363
101581.449
101581.535
101581.631
101581.735
101581.841
101581.952
101582.067
101582.188
101582.313
101582.443
101582.578
101582.72
101582.868
101583.023
101583.187
101583.362
101583.55
101583.752
101583.973
101584.215
101584.482
101584.779
101585.11
101585.48
101585.893
101586.355
101586.869
101587.441
101588.078
101588.783
101589.552
101590.388
101591.288
101592.219
101593.296
101594.484
101595.433
101596.384
101597.513
101598.732
101600.183
101601.811
101603.093
101603.985
101604.932
101606.071
101607.369
101608.832
101610.36
101611.903
101613.587
101615.242
101616.954
101618.716
101620.586
101622.299
101623.894
101625.92
101628.154
101630.251
101632.572
101634.88
101636.382
101579.092
101579.109
101579.132
101579.158
101579.189
101579.225
101579.266
101579.312
101579.364
101579.42
101579.483
101579.55
101579.625
101579.707
101579.792
101579.88
101579.977
101580.08
101580.188
101580.3
101580.418
101580.541
101580.669
101580.803
101580.942
101581.087
101581.239
101581.398
101581.565
101581.742
101581.931
101582.133
101582.351
101582.588
101582.848
101583.134
101583.451
101583.803
101584.195
101584.631
101585.115
101585.653
101586.247
101586.899
101587.613
101588.388
101589.223
101590.094
101591.027
101591.994
101593.234
101594.851
101595.836
101596.759
101598.238
101599.761
101601.37
101602.541
101603.33
101604.298
101605.682
101607.216
101608.757
101610.296
101611.832
101613.381
101614.972
101616.619
101618.337
101620.141
101622.007
101623.964
101626.177
101628.618
101630.256
101631.799
101633.81
101635.741
101637.43
101639.895
101576.988
101577.015
101577.05
101577.088
101577.131
101577.18
101577.234
101577.294
101577.36
101577.432
101577.51
101577.593
101577.682
101577.778
101577.88
101577.988
101578.101
101578.221
101578.346
101578.477
101578.613
101578.756
101578.905
101579.061
101579.225
101579.397
101579.579
101579.772
101579.978
101580.2
101580.44
101580.701
101580.987
101581.302
101581.65
101582.035
101582.463
101582.938
101583.464
101584.045
101584.685
101585.389
101586.157
101586.989
101587.883
101588.859
101589.912
101590.972
101592.315
101594.23
101595.488
101596.447
101597.803
101599.116
101600.141
101601.018
101601.773
101602.771
101604.312
101605.901
101607.457
101608.978
101610.534
101612.178
101613.863
101615.558
101617.284
101619.023
101620.814
101622.715
101624.654
101626.524
101628.492
101630.338
101632.615
101634.778
101636.218
101637.915
101639.859
101642.133
101574.302
101574.342
101574.39
101574.443
101574.5
101574.564
101574.634
101574.709
101574.79
101574.878
101574.973
101575.074
101575.181
101575.294
101575.414
101575.54
101575.672
101575.812
101575.958
101576.111
101576.271
101576.44
101576.617
101576.805
101577.004
101577.217
101577.444
101577.69
101577.957
101578.248
101578.566
101578.917
101579.304
101579.731
101580.202
101580.722
101581.294
101581.921
101582.605
101583.347
101584.143
101584.994
101585.909
101586.857
101587.839
101589.177
101590.961
101592.825
101593.851
101594.667
101595.863
101596.861
101597.743
101598.901
101600.317
101601.814
101603.092
101604.343
101605.748
101607.4
101609.163
101610.65
101612.252
101614.237
101616.205
101618.13
101619.671
101621.168
101623.043
101625.047
101627.074
101629.184
101631.505
101633.714
101634.591
101635.345
101637.264
101639.435
101641.383
101643.369
101571.019
101571.072
101571.137
101571.205
101571.278
101571.358
101571.443
101571.536
101571.634
101571.739
101571.85
101571.968
101572.093
101572.225
101572.364
101572.509
101572.663
101572.825
101572.995
101573.174
101573.365
101573.567
101573.783
101574.014
101574.264
101574.534
101574.829
101575.151
101575.506
101575.896
101576.327
101576.802
101577.326
101577.903
101578.534
101579.224
101579.971
101580.776
101581.637
101582.549
101583.485
101584.453
101585.648
101587.239
101589.029
101590.417
101591.076
101591.697
101593.075
101594.429
101595.638
101597.33
101598.963
101600.59
101602.32
101604.054
101605.77
101607.531
101609.164
101610.734
101612.308
101614.152
101615.987
101617.584
101619.093
101620.5
101622.655
101625.175
101627.025
101628.589
101630.047
101631.604
101633.088
101634.258
101635.736
101637.978
101640.013
101642.483
101644.057
101644.686
101567.11
101567.179
101567.261
101567.346
101567.436
101567.532
101567.634
101567.743
101567.858
101567.98
101568.109
101568.245
101568.388
101568.539
101568.698
101568.866
101569.043
101569.232
101569.433
101569.647
101569.877
101570.125
101570.395
101570.689
101571.011
101571.365
101571.756
101572.19
101572.67
101573.202
101573.792
101574.444
101575.162
101575.951
101576.815
101577.756
101578.776
101579.879
101581.067
101582.339
101583.662
101585.082
101586.562
101587.825
101588.891
101589.968
101591.241
101592.783
101594.457
101596.113
101597.736
101599.078
101600.263
101601.682
101603.587
101605.45
101607.117
101608.905
101610.764
101612.39
101614.001
101615.832
101617.422
101619.268
101621.579
101623.297
101624.796
101626.35
101628.041
101630.005
101631.842
101633.583
101635.774
101637.782
101640.106
101642.52
101644.069
101645.511
101646.752
101648.451
101562.647
101562.732
101562.832
101562.934
101563.04
101563.151
101563.269
101563.393
101563.523
101563.66
101563.805
101563.957
101564.117
101564.287
101564.467
101564.659
101564.863
101565.083
101565.32
101565.577
101565.857
101566.164
101566.502
101566.876
101567.289
101567.748
101568.257
101568.822
101569.447
101570.136
101570.893
101571.72
101572.618
101573.587
101574.623
101575.724
101576.881
101578.085
101579.325
101580.586
101581.93
101583.245
101584.53
101586.306
101588.523
101590.855
101592.866
101594.154
101595.29
101596.602
101598.002
101599.545
101601.277
101603.038
101604.665
101606.298
101608.071
101609.881
101611.798
101613.647
101615.47
101617.449
101619.413
101621.036
101622.458
101624.204
101626.296
101628.273
101630.17
101631.941
101633.875
101635.727
101637.616
101639.843
101641.651
101643.888
101646.491
101648.13
101649.993
101652.398
101557.731
101557.832
101557.95
101558.068
101558.189
101558.315
101558.447
101558.586
101558.73
101558.882
101559.043
101559.212
101559.391
101559.582
101559.787
101560.007
101560.245
101560.504
101560.788
101561.101
101561.446
101561.829
101562.255
101562.728
101563.256
101563.842
101564.493
101565.213
101566.008
101566.88
101567.833
101568.869
101569.99
101571.197
101572.491
101573.869
101575.349
101576.902
101578.502
101580.131
101581.77
101583.403
101584.896
101586.072
101587.724
101590.06
101592.013
101593.61
101595.07
101596.427
101597.698
101598.823
101600.382
101602.795
101605.231
101607.508
101609.607
101611.591
101613.642
101615.67
101617.694
101619.786
101622.037
101624.055
101625.58
101627.379
101629.602
101631.763
101633.182
101635.026
101637.112
101639.014
101640.923
101643.089
101644.889
101646.224
101648.094
101649.758
101651.221
101652.596
101549.46
101549.463
101549.466
101549.466
101549.464
101549.46
101549.455
101549.448
101549.438
101549.427
101549.414
101549.398
101549.38
101549.36
101549.337
101549.312
101549.284
101549.254
101549.221
101549.184
101549.145
101549.102
101549.056
101549.006
101548.952
101548.895
101548.833
101548.767
101548.697
101548.622
101548.542
101548.457
101548.367
101548.271
101548.169
101548.06
101547.946
101547.825
101547.696
101547.561
101547.417
101547.263
101547.101
101546.931
101546.754
101546.567
101546.37
101546.162
101545.944
101545.715
101545.473
101545.218
101544.948
101544.66
101544.353
101544.025
101543.673
101543.293
101542.88
101542.428
101541.931
101541.379
101540.761
101540.066
101539.287
101538.426
101537.494
101536.499
101535.431
101534.269
101532.969
101531.531
101529.924
101528.166
101526.263
101524.428
101522.311
101520.084
101517.7
101514.135
101550.998
101551.001
101551.002
101551.002
101551.001
101550.998
101550.993
101550.987
101550.979
101550.97
101550.959
101550.946
101550.931
101550.915
101550.896
101550.875
101550.852
101550.827
101550.8
101550.77
101550.737
101550.702
101550.664
101550.622
101550.578
101550.531
101550.48
101550.426
101550.368
101550.306
101550.241
101550.171
101550.096
101550.017
101549.934
101549.845
101549.751
101549.652
101549.547
101549.436
101549.32
101549.196
101549.062
101548.925
101548.781
101548.629
101548.47
101548.302
101548.127
101547.943
101547.75
101547.547
101547.334
101547.107
101546.867
101546.61
101546.336
101546.041
101545.722
101545.374
101544.993
101544.571
101544.103
101543.582
101543.005
101542.376
101541.693
101540.949
101540.116
101539.162
101538.081
101536.894
101535.618
101534.254
101532.764
101531.051
101529.009
101526.687
101524.229
101521.995
101552.761
101552.763
101552.764
101552.764
101552.763
101552.761
101552.758
101552.753
101552.747
101552.74
101552.732
101552.722
101552.711
101552.699
101552.685
101552.669
101552.652
101552.633
101552.612
101552.589
101552.565
101552.538
101552.509
101552.478
101552.445
101552.409
101552.371
101552.33
101552.286
101552.239
101552.19
101552.137
101552.081
101552.022
101551.959
101551.893
101551.823
101551.749
101551.672
101551.59
101551.501
101551.407
101551.311
101551.21
101551.104
101550.993
101550.878
101550.757
101550.63
101550.498
101550.361
101550.218
101550.069
101549.913
101549.75
101549.577
101549.393
101549.197
101548.987
101548.76
101548.512
101548.239
101547.936
101547.596
101547.213
101546.778
101546.277
101545.687
101544.994
101544.199
101543.321
101542.372
101541.351
101540.243
101539.031
101537.708
101536.244
101534.409
101532.147
101530.13
101554.703
101554.705
101554.706
101554.706
101554.705
101554.704
101554.702
101554.699
101554.695
101554.691
101554.685
101554.679
101554.672
101554.664
101554.655
101554.645
101554.633
101554.621
101554.607
101554.592
101554.576
101554.559
101554.54
101554.519
101554.497
101554.474
101554.448
101554.421
101554.392
101554.361
101554.329
101554.294
101554.257
101554.218
101554.176
101554.133
101554.087
101554.038
101553.987
101553.934
101553.879
101553.82
101553.758
101553.694
101553.627
101553.558
101553.486
101553.412
101553.335
101553.256
101553.174
101553.09
101553.003
101552.915
101552.824
101552.73
101552.633
101552.53
101552.421
101552.303
101552.174
101552.031
101551.868
101551.68
101551.459
101551.192
101550.865
101550.465
101549.983
101549.422
101548.786
101548.077
101547.291
101546.445
101545.541
101544.253
101542.861
101541.384
101539.93
101538.822
101556.77
101556.771
101556.771
101556.772
101556.772
101556.771
101556.77
101556.769
101556.768
101556.766
101556.764
101556.761
101556.758
101556.754
101556.75
101556.745
101556.74
101556.734
101556.728
101556.721
101556.713
101556.704
101556.695
101556.685
101556.675
101556.663
101556.65
101556.637
101556.623
101556.608
101556.591
101556.574
101556.556
101556.537
101556.516
101556.495
101556.473
101556.451
101556.428
101556.403
101556.377
101556.351
101556.323
101556.294
101556.265
101556.236
101556.205
101556.175
101556.145
101556.114
101556.084
101556.055
101556.026
101555.998
101555.972
101555.947
101555.924
101555.904
101555.886
101555.869
101555.851
101555.828
101555.797
101555.752
101555.684
101555.583
101555.435
101555.228
101554.951
101554.601
101554.176
101553.68
101553.128
101552.547
101551.949
101551.319
101550.554
101549.634
101548.531
101547.411
101558.912
101558.912
101558.913
101558.913
101558.914
101558.914
101558.915
101558.915
101558.916
101558.916
101558.917
101558.917
101558.918
101558.919
101558.919
101558.92
101558.92
101558.921
101558.921
101558.921
101558.922
101558.922
101558.922
101558.922
101558.922
101558.922
101558.921
101558.921
101558.921
101558.92
101558.919
101558.919
101558.918
101558.918
101558.918
101558.92
101558.922
101558.921
101558.92
101558.921
101558.922
101558.924
101558.927
101558.93
101558.935
101558.94
101558.947
101558.956
101558.967
101558.979
101558.994
101559.012
101559.032
101559.056
101559.083
101559.115
101559.154
101559.2
101559.251
101559.309
101559.369
101559.433
101559.504
101559.578
101559.643
101559.693
101559.715
101559.7
101559.636
101559.513
101559.325
101559.075
101558.784
101558.484
101558.199
101557.924
101557.653
101557.477
101557.393
101556.69
101561.077
101561.077
101561.077
101561.078
101561.078
101561.08
101561.081
101561.083
101561.085
101561.088
101561.091
101561.095
101561.099
101561.103
101561.108
101561.113
101561.119
101561.125
101561.132
101561.139
101561.146
101561.154
101561.162
101561.171
101561.181
101561.191
101561.201
101561.213
101561.225
101561.237
101561.251
101561.267
101561.284
101561.301
101561.318
101561.334
101561.353
101561.373
101561.395
101561.418
101561.443
101561.47
101561.499
101561.529
101561.562
101561.598
101561.637
101561.678
101561.723
101561.772
101561.824
101561.881
101561.942
101562.009
101562.081
101562.16
101562.251
101562.352
101562.455
101562.565
101562.682
101562.806
101562.95
101563.103
101563.265
101563.436
101563.603
101563.759
101563.899
101564.003
101564.057
101564.06
101564.026
101563.975
101563.919
101563.862
101563.793
101563.709
101563.567
101563.292
101563.222
101563.222
101563.222
101563.222
101563.224
101563.225
101563.228
101563.231
101563.235
101563.239
101563.244
101563.25
101563.257
101563.265
101563.273
101563.282
101563.292
101563.303
101563.314
101563.327
101563.34
101563.355
101563.37
101563.387
101563.404
101563.424
101563.444
101563.466
101563.489
101563.513
101563.538
101563.564
101563.591
101563.62
101563.651
101563.684
101563.719
101563.755
101563.794
101563.836
101563.88
101563.927
101563.976
101564.029
101564.086
101564.146
101564.21
101564.278
101564.351
101564.429
101564.512
101564.601
101564.696
101564.797
101564.905
101565.022
101565.152
101565.29
101565.434
101565.589
101565.762
101565.952
101566.153
101566.37
101566.622
101566.904
101567.186
101567.476
101567.762
101568.023
101568.256
101568.464
101568.645
101568.807
101568.931
101569.053
101569.213
101569.423
101569.61
101569.531
101565.307
101565.306
101565.305
101565.305
101565.307
101565.309
101565.311
101565.315
101565.32
101565.326
101565.333
101565.341
101565.349
101565.359
101565.37
101565.382
101565.396
101565.411
101565.427
101565.444
101565.463
101565.482
101565.503
101565.525
101565.549
101565.574
101565.6
101565.627
101565.657
101565.689
101565.722
101565.758
101565.795
101565.834
101565.875
101565.919
101565.966
101566.015
101566.066
101566.121
101566.179
101566.241
101566.306
101566.375
101566.449
101566.526
101566.609
101566.696
101566.789
101566.888
101566.992
101567.103
101567.221
101567.348
101567.482
101567.625
101567.783
101567.953
101568.131
101568.324
101568.534
101568.765
101569.015
101569.294
101569.599
101569.955
101570.326
101570.692
101571.069
101571.467
101571.881
101572.302
101572.724
101573.101
101573.437
101573.801
101574.19
101574.628
101575.078
101575.252
101567.303
101567.301
101567.299
101567.299
101567.3
101567.301
101567.304
101567.308
101567.313
101567.32
101567.327
101567.336
101567.346
101567.357
101567.37
101567.383
101567.398
101567.415
101567.432
101567.451
101567.472
101567.495
101567.519
101567.544
101567.572
101567.601
101567.632
101567.665
101567.699
101567.736
101567.775
101567.816
101567.859
101567.905
101567.953
101568.003
101568.057
101568.114
101568.173
101568.237
101568.304
101568.375
101568.45
101568.528
101568.611
101568.699
101568.792
101568.889
101568.994
101569.107
101569.227
101569.357
101569.496
101569.645
101569.801
101569.959
101570.123
101570.296
101570.484
101570.699
101570.956
101571.222
101571.491
101571.774
101572.089
101572.463
101572.864
101573.291
101573.767
101574.285
101574.841
101575.423
101576.007
101576.571
101577.158
101577.728
101578.275
101578.865
101579.419
101579.663
101569.178
101569.175
101569.172
101569.171
101569.171
101569.172
101569.174
101569.177
101569.182
101569.188
101569.195
101569.204
101569.214
101569.225
101569.238
101569.252
101569.268
101569.285
101569.304
101569.324
101569.346
101569.37
101569.395
101569.423
101569.451
101569.482
101569.515
101569.55
101569.586
101569.625
101569.666
101569.709
101569.755
101569.803
101569.854
101569.907
101569.963
101570.022
101570.086
101570.153
101570.222
101570.295
101570.372
101570.454
101570.541
101570.635
101570.737
101570.845
101570.961
101571.08
101571.2
101571.326
101571.457
101571.596
101571.755
101571.933
101572.119
101572.313
101572.518
101572.726
101572.942
101573.178
101573.439
101573.728
101574.051
101574.399
101574.788
101575.224
101575.714
101576.264
101576.875
101577.544
101578.271
101579.048
101579.834
101580.57
101581.32
101582.087
101582.75
101583.039
101570.919
101570.915
101570.911
101570.908
101570.906
101570.906
101570.907
101570.909
101570.912
101570.917
101570.923
101570.931
101570.94
101570.95
101570.962
101570.975
101570.99
101571.007
101571.025
101571.045
101571.066
101571.089
101571.114
101571.14
101571.168
101571.198
101571.23
101571.264
101571.3
101571.338
101571.378
101571.421
101571.465
101571.512
101571.561
101571.613
101571.667
101571.725
101571.786
101571.85
101571.918
101571.992
101572.07
101572.15
101572.228
101572.315
101572.407
101572.499
101572.605
101572.724
101572.849
101572.978
101573.115
101573.258
101573.401
101573.548
101573.708
101573.88
101574.065
101574.263
101574.472
101574.697
101574.938
101575.201
101575.489
101575.808
101576.165
101576.567
101577.023
101577.542
101578.128
101578.789
101579.538
101580.36
101581.22
101582.13
101583.079
101584.012
101584.852
101585.286
101572.517
101572.51
101572.504
101572.499
101572.496
101572.493
101572.492
101572.492
101572.494
101572.496
101572.5
101572.506
101572.513
101572.521
101572.531
101572.542
101572.555
101572.569
101572.585
101572.602
101572.621
101572.642
101572.664
101572.688
101572.713
101572.74
101572.769
101572.799
101572.831
101572.865
101572.901
101572.938
101572.978
101573.02
101573.064
101573.111
101573.162
101573.216
101573.271
101573.325
101573.38
101573.437
101573.497
101573.567
101573.648
101573.731
101573.818
101573.908
101573.997
101574.088
101574.187
101574.294
101574.409
101574.532
101574.663
101574.801
101574.945
101575.098
101575.258
101575.427
101575.606
101575.797
101576.002
101576.224
101576.465
101576.732
101577.03
101577.366
101577.748
101578.182
101578.675
101579.233
101579.851
101580.603
101581.593
101582.627
101583.596
101584.599
101585.642
101586.349
101573.959
101573.95
101573.942
101573.934
101573.928
101573.923
101573.919
101573.916
101573.915
101573.914
101573.916
101573.918
101573.922
101573.927
101573.934
101573.942
101573.951
101573.962
101573.974
101573.988
101574.003
101574.019
101574.037
101574.056
101574.077
101574.099
101574.123
101574.149
101574.176
101574.205
101574.235
101574.268
101574.302
101574.336
101574.369
101574.404
101574.439
101574.474
101574.516
101574.565
101574.615
101574.668
101574.722
101574.775
101574.828
101574.886
101574.949
101575.018
101575.092
101575.17
101575.253
101575.341