/*--------------------------------*- C++ -*----------------------------------*\
  =========                 |
  \\      /  F ield         | OpenFOAM: The Open Source CFD Toolbox
   \\    /   O peration     | Website:  https://openfoam.org
    \\  /    A nd           | Version:  8
     \\/     M anipulation  |
\*---------------------------------------------------------------------------*/
FoamFile
{
    version     2.0;
    format      ascii;
    class       volScalarField;
    location    "0.066";
    object      p_rgh;
}
// * * * * * * * * * * * * * * * * * * * * * * * * * * * * * * * * * * * * * //

dimensions      [1 -1 -2 0 0 0 0];

internalField   nonuniform List<scalar> 
42400
(
101581.361
101581.347
101581.331
101581.316
101581.302
101581.287
101581.273
101581.259
101581.246
101581.233
101581.22
101581.208
101581.196
101581.184
101581.173
101581.161
101581.15
101581.14
101581.129
101581.118
101581.107
101581.096
101581.084
101581.072
101581.059
101581.046
101581.031
101581.016
101580.999
101580.982
101580.962
101580.941
101580.918
101580.893
101580.866
101580.836
101580.804
101580.77
101580.745
101580.729
101580.713
101580.672
101580.603
101580.526
101580.454
101580.398
101580.349
101580.298
101580.246
101580.194
101580.14
101580.082
101580.019
101579.979
101579.958
101579.945
101579.907
101579.837
101579.792
101579.781
101579.789
101579.797
101579.811
101579.839
101579.895
101579.993
101580.136
101580.292
101580.458
101580.998
101581.646
101581.331
101581.757
101583.607
101583.635
101583.015
101585.595
101587.906
101591.283
101598.981
101581.788
101581.776
101581.763
101581.751
101581.739
101581.727
101581.715
101581.703
101581.692
101581.681
101581.67
101581.659
101581.649
101581.638
101581.628
101581.618
101581.608
101581.598
101581.589
101581.579
101581.568
101581.558
101581.547
101581.536
101581.524
101581.512
101581.498
101581.484
101581.468
101581.452
101581.433
101581.414
101581.392
101581.369
101581.343
101581.323
101581.31
101581.299
101581.271
101581.218
101581.156
101581.104
101581.065
101581.025
101580.982
101580.938
101580.893
101580.844
101580.79
101580.749
101580.731
101580.726
101580.693
101580.626
101580.576
101580.557
101580.557
101580.555
101580.553
101580.56
101580.581
101580.622
101580.689
101580.783
101580.922
101581.133
101581.44
101581.828
101582.166
101582.897
101584.249
101584.947
101585.524
101586.94
101587.866
101589.228
101592.889
101597.523
101600.507
101602.964
101582.199
101582.19
101582.18
101582.17
101582.161
101582.151
101582.142
101582.132
101582.123
101582.114
101582.106
101582.097
101582.089
101582.081
101582.074
101582.066
101582.059
101582.052
101582.045
101582.038
101582.031
101582.024
101582.016
101582.009
101582.001
101581.993
101581.984
101581.974
101581.964
101581.953
101581.941
101581.927
101581.915
101581.909
101581.904
101581.892
101581.863
101581.824
101581.788
101581.761
101581.738
101581.713
101581.686
101581.659
101581.628
101581.59
101581.568
101581.572
101581.581
101581.533
101581.468
101581.446
101581.448
101581.447
101581.444
101581.445
101581.455
101581.48
101581.526
101581.593
101581.681
101581.793
101581.935
101582.115
101582.368
101582.755
101583.264
101583.935
101584.503
101585.299
101586.407
101587.334
101588.704
101592.034
101595.83
101598.212
101598.977
101600.17
101604.095
101606.891
101582.619
101582.612
101582.604
101582.596
101582.589
101582.581
101582.574
101582.567
101582.56
101582.554
101582.548
101582.542
101582.537
101582.532
101582.528
101582.524
101582.52
101582.518
101582.515
101582.513
101582.511
101582.51
101582.509
101582.508
101582.507
101582.507
101582.506
101582.505
101582.506
101582.507
101582.51
101582.514
101582.513
101582.502
101582.489
101582.474
101582.465
101582.462
101582.457
101582.45
101582.443
101582.432
101582.415
101582.412
101582.435
101582.433
101582.397
101582.378
101582.38
101582.39
101582.388
101582.387
101582.392
101582.407
101582.437
101582.482
101582.544
101582.625
101582.733
101582.878
101583.079
101583.349
101583.684
101584.056
101584.482
101585.072
101585.776
101586.756
101587.56
101588.407
101591.209
101595.15
101597.177
101597.216
101598.061
101600.567
101602.851
101605.372
101607.815
101610.029
101583.052
101583.045
101583.038
101583.031
101583.025
101583.019
101583.013
101583.008
101583.003
101582.999
101582.996
101582.993
101582.992
101582.991
101582.991
101582.991
101582.993
101582.996
101583
101583.004
101583.01
101583.016
101583.023
101583.031
101583.038
101583.047
101583.058
101583.07
101583.081
101583.091
101583.101
101583.109
101583.121
101583.135
101583.149
101583.162
101583.174
101583.186
101583.195
101583.198
101583.214
101583.253
101583.268
101583.253
101583.257
101583.276
101583.292
101583.304
101583.317
101583.336
101583.361
101583.394
101583.436
101583.489
101583.558
101583.65
101583.774
101583.94
101584.165
101584.462
101584.847
101585.328
101585.907
101586.539
101587.204
101588.001
101588.684
101590.044
101593.421
101596.106
101597.034
101597.378
101598.51
101600.359
101602.479
101604.626
101606.942
101608.972
101610.811
101612.95
101583.471
101583.464
101583.457
101583.451
101583.445
101583.44
101583.436
101583.432
101583.429
101583.428
101583.428
101583.429
101583.431
101583.434
101583.439
101583.445
101583.453
101583.462
101583.473
101583.484
101583.496
101583.509
101583.525
101583.544
101583.566
101583.589
101583.612
101583.636
101583.662
101583.689
101583.717
101583.746
101583.774
101583.803
101583.833
101583.861
101583.884
101583.919
101583.974
101584.006
101584.013
101584.04
101584.079
101584.112
101584.142
101584.175
101584.21
101584.248
101584.29
101584.338
101584.396
101584.467
101584.556
101584.667
101584.806
101584.984
101585.217
101585.519
101585.91
101586.394
101587.003
101587.721
101588.61
101589.518
101590.435
101591.911
101594.627
101596.484
101596.717
101597.322
101598.924
101600.482
101602.271
101604.464
101606.388
101608.373
101610.132
101611.806
101613.894
101615.824
101583.84
101583.833
101583.825
101583.819
101583.814
101583.81
101583.807
101583.805
101583.805
101583.806
101583.809
101583.814
101583.82
101583.829
101583.839
101583.851
101583.865
101583.879
101583.897
101583.919
101583.944
101583.972
101584.001
101584.032
101584.064
101584.098
101584.134
101584.172
101584.211
101584.252
101584.295
101584.339
101584.383
101584.424
101584.474
101584.544
101584.594
101584.623
101584.67
101584.729
101584.782
101584.832
101584.884
101584.938
101584.993
101585.053
101585.118
101585.191
101585.276
101585.375
101585.491
101585.628
101585.792
101585.993
101586.243
101586.553
101586.932
101587.386
101587.943
101588.575
101589.343
101589.973
101591.008
101593.263
101595.63
101597.156
101597.78
101598.537
101599.754
101601.487
101603.219
101605.037
101606.656
101608.025
101609.367
101610.613
101612.124
101614.06
101616.033
101617.938
101584.103
101584.096
101584.088
101584.083
101584.079
101584.076
101584.075
101584.076
101584.078
101584.083
101584.09
101584.1
101584.111
101584.125
101584.141
101584.16
101584.183
101584.21
101584.238
101584.269
101584.302
101584.338
101584.377
101584.419
101584.463
101584.51
101584.56
101584.612
101584.666
101584.722
101584.776
101584.838
101584.919
101584.983
101585.031
101585.095
101585.17
101585.24
101585.309
101585.379
101585.452
101585.526
101585.605
101585.689
101585.781
101585.882
101585.996
101586.125
101586.272
101586.443
101586.642
101586.876
101587.159
101587.5
101587.904
101588.368
101588.906
101589.49
101590.179
101590.946
101592.278
101594.717
101596.6
101597.096
101597.412
101598.332
101599.997
101601.679
101602.989
101604.325
101605.684
101606.916
101608.289
101609.997
101611.644
101613.303
101615.11
101616.806
101618.988
101620.949
101584.204
101584.198
101584.192
101584.187
101584.185
101584.185
101584.187
101584.192
101584.198
101584.207
101584.219
101584.234
101584.252
101584.274
101584.298
101584.325
101584.356
101584.39
101584.428
101584.468
101584.512
101584.56
101584.611
101584.666
101584.724
101584.784
101584.845
101584.908
101584.979
101585.067
101585.142
101585.203
101585.281
101585.368
101585.451
101585.535
101585.621
101585.71
101585.801
101585.896
101585.997
101586.104
101586.22
101586.347
101586.488
101586.647
101586.827
101587.032
101587.269
101587.545
101587.872
101588.263
101588.727
101589.272
101589.905
101590.618
101591.454
101592.281
101593.376
101595.2
101596.575
101597.122
101597.749
101598.671
101599.971
101601.554
101603.304
101604.618
101605.571
101606.711
101608.304
101609.739
101611.142
101612.723
101614.452
101616.178
101617.752
101619.425
101622.225
101624.833
101584.078
101584.073
101584.07
101584.068
101584.069
101584.073
101584.08
101584.089
101584.102
101584.118
101584.137
101584.159
101584.184
101584.214
101584.247
101584.283
101584.324
101584.369
101584.417
101584.469
101584.526
101584.586
101584.649
101584.714
101584.786
101584.871
101584.957
101585.03
101585.106
101585.194
101585.29
101585.383
101585.478
101585.576
101585.677
101585.782
101585.89
101586.004
101586.123
101586.251
101586.388
101586.538
101586.703
101586.886
101587.091
101587.323
101587.586
101587.887
101588.235
101588.642
101589.115
101589.662
101590.283
101591
101591.758
101592.507
101593.574
101595.333
101596.862
101597.595
101598.088
101598.97
101600.119
101601.265
101602.662
101604.216
101605.571
101606.917
101608.325
101609.8
101611.467
101613.116
101614.903
101616.621
101618.408
101620.338
101622.682
101625.023
101626.646
101627.909
101583.674
101583.673
101583.673
101583.676
101583.682
101583.691
101583.704
101583.719
101583.739
101583.762
101583.789
101583.819
101583.854
101583.894
101583.937
101583.985
101584.037
101584.094
101584.155
101584.22
101584.287
101584.362
101584.449
101584.531
101584.61
101584.699
101584.796
101584.896
101584.997
101585.101
101585.208
101585.32
101585.435
101585.554
101585.679
101585.809
101585.948
101586.095
101586.254
101586.426
101586.615
101586.823
101587.055
101587.315
101587.606
101587.933
101588.302
101588.719
101589.191
101589.722
101590.303
101590.934
101591.589
101592.48
101593.95
101595.722
101596.771
101597.306
101597.891
101598.731
101600.009
101601.439
101602.936
101604.438
101605.97
101607.374
101608.877
101610.35
101611.661
101613.094
101614.605
101616.149
101617.803
101619.781
101621.64
101623.745
101625.906
101627.44
101629.317
101631.494
101582.927
101582.93
101582.936
101582.945
101582.957
101582.973
101582.993
101583.017
101583.045
101583.078
101583.115
101583.156
101583.203
101583.253
101583.309
101583.37
101583.435
101583.504
101583.58
101583.667
101583.752
101583.835
101583.928
101584.029
101584.132
101584.239
101584.35
101584.465
101584.584
101584.708
101584.837
101584.971
101585.111
101585.26
101585.417
101585.586
101585.767
101585.965
101586.182
101586.422
101586.688
101586.986
101587.319
101587.692
101588.111
101588.581
101589.112
101589.711
101590.383
101591.137
101591.963
101592.856
101594.087
101595.54
101596.351
101596.821
101597.577
101598.723
101600.129
101601.721
101603.4
101604.922
101606.081
101607.153
101608.266
101609.432
101610.538
101611.743
101613.399
101615.044
101616.725
101618.394
101620.167
101622.295
101624.249
101625.945
101627.923
101629.918
101631.432
101633.042
101581.778
101581.787
101581.8
101581.817
101581.838
101581.862
101581.892
101581.926
101581.965
101582.009
101582.057
101582.111
101582.17
101582.235
101582.304
101582.379
101582.464
101582.55
101582.636
101582.732
101582.835
101582.941
101583.051
101583.166
101583.286
101583.41
101583.54
101583.675
101583.815
101583.962
101584.117
101584.281
101584.454
101584.641
101584.842
101585.062
101585.302
101585.568
101585.863
101586.192
101586.559
101586.971
101587.43
101587.942
101588.511
101589.146
101589.849
101590.619
101591.458
101592.36
101593.297
101594.387
101595.556
101596.437
101597.318
101598.422
101599.657
101601.123
101602.746
101604.041
101604.959
101605.889
101606.94
101608.2
101609.662
101611.161
101612.7
101614.339
101615.971
101617.654
101619.387
101621.197
101622.865
101624.58
101626.73
101628.82
101630.779
101633.023
101635.209
101636.694
101580.156
101580.173
101580.196
101580.222
101580.253
101580.289
101580.33
101580.376
101580.427
101580.484
101580.546
101580.613
101580.687
101580.77
101580.855
101580.942
101581.038
101581.141
101581.248
101581.361
101581.478
101581.601
101581.729
101581.862
101582
101582.145
101582.296
101582.455
101582.621
101582.798
101582.985
101583.187
101583.404
101583.641
101583.9
101584.185
101584.501
101584.852
101585.242
101585.676
101586.159
101586.695
101587.286
101587.935
101588.645
101589.416
101590.245
101591.115
101592.045
101593.008
101594.236
101595.778
101596.74
101597.669
101599.111
101600.612
101602.164
101603.37
101604.226
101605.189
101606.526
101608.023
101609.539
101611.055
101612.573
101614.119
101615.696
101617.321
101619.017
101620.785
101622.612
101624.538
101626.672
101628.955
101630.567
101632.237
101634.454
101636.394
101638.03
101640.239
101578.009
101578.037
101578.071
101578.11
101578.153
101578.202
101578.256
101578.315
101578.381
101578.453
101578.531
101578.613
101578.702
101578.797
101578.899
101579.007
101579.119
101579.238
101579.363
101579.493
101579.629
101579.771
101579.92
101580.075
101580.238
101580.409
101580.59
101580.782
101580.987
101581.207
101581.446
101581.705
101581.99
101582.304
101582.65
101583.034
101583.461
101583.934
101584.458
101585.037
101585.675
101586.375
101587.139
101587.967
101588.855
101589.818
101590.848
101591.884
101593.198
101595.051
101596.288
101597.24
101598.614
101600.018
101601.093
101601.993
101602.806
101603.805
101605.248
101606.805
101608.349
101609.868
101611.415
101613.035
101614.688
101616.351
101618.05
101619.771
101621.548
101623.433
101625.367
101627.263
101629.296
101631.211
101633.29
101635.336
101636.849
101638.564
101640.53
101642.742
101575.281
101575.321
101575.369
101575.422
101575.479
101575.542
101575.612
101575.687
101575.768
101575.855
101575.95
101576.05
101576.156
101576.269
101576.388
101576.513
101576.645
101576.783
101576.928
101577.08
101577.24
101577.407
101577.583
101577.77
101577.968
101578.178
101578.405
101578.649
101578.913
101579.202
101579.519
101579.868
101580.252
101580.678
101581.147
101581.666
101582.237
101582.864
101583.549
101584.293
101585.095
101585.956
101586.879
101587.841
101588.838
101590.162
101591.906
101593.697
101594.727
101595.574
101596.776
101597.851
101598.768
101599.863
101601.234
101602.665
101603.929
101605.268
101606.735
101608.358
101610.045
101611.537
101613.139
101615.066
101616.965
101618.808
101620.383
101621.907
101623.729
101625.724
101627.725
101629.836
101632.184
101634.155
101635.185
101636.331
101638.166
101640.193
101642.163
101644.186
101571.956
101572.01
101572.075
101572.143
101572.216
101572.295
101572.38
101572.472
101572.57
101572.674
101572.785
101572.903
101573.027
101573.158
101573.296
101573.441
101573.593
101573.753
101573.922
101574.101
101574.289
101574.49
101574.704
101574.933
101575.181
101575.449
101575.741
101576.061
101576.412
101576.799
101577.227
101577.698
101578.219
101578.791
101579.418
101580.103
101580.846
101581.646
101582.502
101583.407
101584.338
101585.306
101586.488
101588.057
101589.833
101591.226
101592.004
101592.794
101594.183
101595.488
101596.643
101598.168
101599.636
101601.172
101602.869
101604.583
101606.314
101608.076
101609.732
101611.351
101612.972
101614.76
101616.559
101618.188
101619.778
101621.365
101623.492
101625.937
101627.831
101629.412
101630.921
101632.45
101633.815
101635.076
101636.704
101638.743
101640.757
101643.205
101644.661
101645.411
101568.011
101568.08
101568.161
101568.246
101568.336
101568.432
101568.534
101568.642
101568.757
101568.878
101569.006
101569.141
101569.284
101569.434
101569.592
101569.759
101569.935
101570.122
101570.321
101570.534
101570.763
101571.009
101571.276
101571.568
101571.887
101572.238
101572.626
101573.055
101573.531
101574.058
101574.642
101575.287
101575.997
101576.777
101577.629
101578.556
101579.56
101580.644
101581.809
101583.05
101584.342
101585.821
101587.457
101588.812
101589.892
101590.958
101592.173
101593.596
101595.116
101596.612
101598.186
101599.732
101601.179
101602.771
101604.621
101606.371
101607.966
101609.668
101611.447
101613.129
101614.853
101616.728
101618.422
101620.324
101622.472
101624.151
101625.714
101627.32
101629.031
101630.939
101632.699
101634.445
101636.651
101638.626
101640.779
101642.934
101644.583
101646.089
101647.191
101648.83
101563.518
101563.603
101563.703
101563.805
101563.91
101564.022
101564.139
101564.262
101564.392
101564.529
101564.673
101564.824
101564.984
101565.153
101565.332
101565.522
101565.726
101565.944
101566.18
101566.435
101566.714
101567.02
101567.356
101567.728
101568.14
101568.597
101569.104
101569.667
101570.29
101570.978
101571.734
101572.561
101573.459
101574.43
101575.469
101576.575
101577.738
101578.95
101580.199
101581.469
101582.817
101584.136
101585.439
101587.086
101589.128
101591.396
101593.364
101594.748
101596.098
101597.642
101599.2
101600.745
101602.387
101604.09
101605.715
101607.324
101609.015
101610.769
101612.65
101614.478
101616.326
101618.337
101620.277
101621.961
101623.523
101625.294
101627.309
101629.219
101631.096
101632.911
101634.838
101636.646
101638.479
101640.578
101642.531
101644.881
101647.342
101648.853
101650.729
101653.152
101558.576
101558.678
101558.795
101558.913
101559.033
101559.16
101559.292
101559.43
101559.574
101559.726
101559.885
101560.054
101560.233
101560.423
101560.627
101560.846
101561.084
101561.343
101561.626
101561.937
101562.281
101562.663
101563.087
101563.559
101564.084
101564.669
101565.317
101566.034
101566.825
101567.692
101568.64
101569.669
101570.781
101571.977
101573.258
101574.624
101576.085
101577.621
101579.211
101580.837
101582.483
101584.037
101585.474
101586.855
101588.691
101590.999
101592.951
101594.54
101596.007
101597.384
101598.692
101599.941
101601.579
101603.852
101606.164
101608.36
101610.42
101612.397
101614.416
101616.399
101618.433
101620.622
101622.892
101624.815
101626.3
101628.187
101630.407
101632.444
101633.957
101635.871
101637.942
101639.814
101641.708
101643.845
101645.621
101647.135
101649.177
101650.854
101652.422
101653.958
101550.333
101550.336
101550.338
101550.338
101550.337
101550.333
101550.328
101550.321
101550.311
101550.3
101550.287
101550.272
101550.254
101550.234
101550.212
101550.187
101550.16
101550.13
101550.097
101550.062
101550.023
101549.981
101549.935
101549.887
101549.834
101549.778
101549.717
101549.653
101549.584
101549.51
101549.432
101549.348
101549.26
101549.166
101549.066
101548.96
101548.847
101548.729
101548.603
101548.47
101548.329
101548.179
101548.02
101547.855
101547.681
101547.498
101547.306
101547.104
101546.891
101546.667
101546.432
101546.183
101545.919
101545.638
101545.339
101545.018
101544.674
101544.302
101543.897
101543.453
101542.962
101542.416
101541.803
101541.112
101540.334
101539.468
101538.525
101537.516
101536.435
101535.266
101533.978
101532.554
101530.97
101529.236
101527.355
101525.475
101523.355
101521.117
101518.916
101515.557
101551.939
101551.941
101551.943
101551.943
101551.942
101551.939
101551.934
101551.928
101551.921
101551.912
101551.901
101551.888
101551.874
101551.857
101551.839
101551.819
101551.797
101551.772
101551.745
101551.716
101551.684
101551.649
101551.612
101551.572
101551.529
101551.483
101551.433
101551.38
101551.324
101551.264
101551.199
101551.131
101551.059
101550.982
101550.9
101550.814
101550.722
101550.626
101550.524
101550.416
101550.303
101550.181
101550.052
101549.919
101549.779
101549.631
101549.477
101549.314
101549.144
101548.966
101548.778
101548.582
101548.375
101548.156
101547.923
101547.674
101547.408
101547.121
101546.81
101546.471
101546.097
101545.683
101545.22
101544.703
101544.129
101543.5
101542.816
101542.074
101541.252
101540.319
101539.262
101538.099
101536.846
101535.506
101534.053
101532.413
101530.476
101528.25
101525.856
101523.504
101553.766
101553.767
101553.769
101553.769
101553.768
101553.765
101553.762
101553.758
101553.752
101553.745
101553.737
101553.728
101553.717
101553.705
101553.692
101553.677
101553.66
101553.641
101553.621
101553.599
101553.576
101553.55
101553.522
101553.492
101553.459
101553.425
101553.388
101553.348
101553.306
101553.261
101553.213
101553.162
101553.108
101553.05
101552.99
101552.926
101552.858
101552.787
101552.712
101552.633
101552.548
101552.457
101552.364
101552.267
101552.166
101552.059
101551.948
101551.832
101551.71
101551.584
101551.452
101551.315
101551.173
101551.024
101550.868
101550.703
101550.528
101550.341
101550.14
101549.922
101549.683
101549.42
101549.126
101548.796
101548.422
101547.999
101547.511
101546.942
101546.272
101545.502
101544.647
101543.722
101542.735
101541.671
101540.514
101539.254
101537.884
101536.232
101534.289
101532.22
101555.767
101555.768
101555.769
101555.769
101555.769
101555.767
101555.765
101555.763
101555.759
101555.755
101555.75
101555.744
101555.737
101555.73
101555.721
101555.711
101555.701
101555.689
101555.676
101555.662
101555.646
101555.63
101555.612
101555.592
101555.571
101555.549
101555.525
101555.499
101555.471
101555.442
101555.411
101555.378
101555.343
101555.305
101555.266
101555.225
101555.181
101555.135
101555.087
101555.037
101554.984
101554.928
101554.87
101554.809
101554.746
101554.681
101554.614
101554.544
101554.472
101554.398
101554.321
101554.243
101554.163
101554.081
101553.997
101553.911
101553.822
101553.728
101553.629
101553.521
101553.404
101553.272
101553.123
101552.948
101552.741
101552.491
101552.183
101551.803
101551.344
101550.806
101550.195
101549.517
101548.771
101547.968
101547.112
101545.951
101544.627
101543.186
101541.855
101540.77
101557.888
101557.888
101557.889
101557.889
101557.889
101557.889
101557.888
101557.887
101557.886
101557.884
101557.882
101557.88
101557.877
101557.874
101557.87
101557.866
101557.861
101557.856
101557.85
101557.844
101557.837
101557.829
101557.821
101557.812
101557.802
101557.792
101557.781
101557.769
101557.756
101557.742
101557.727
101557.712
101557.695
101557.678
101557.659
101557.64
101557.62
101557.6
101557.58
101557.558
101557.535
101557.511
101557.487
101557.461
101557.436
101557.41
101557.384
101557.358
101557.332
101557.306
101557.282
101557.257
101557.234
101557.212
101557.192
101557.174
101557.159
101557.147
101557.137
101557.13
101557.123
101557.112
101557.095
101557.065
101557.014
101556.931
101556.802
101556.615
101556.359
101556.03
101555.626
101555.152
101554.621
101554.057
101553.473
101552.854
101552.128
101551.24
101550.181
101549.12
101560.079
101560.08
101560.08
101560.08
101560.081
101560.081
101560.082
101560.083
101560.083
101560.084
101560.085
101560.086
101560.087
101560.088
101560.089
101560.09
101560.091
101560.092
101560.093
101560.094
101560.095
101560.096
101560.097
101560.098
101560.099
101560.1
101560.1
101560.101
101560.102
101560.103
101560.104
101560.104
101560.106
101560.107
101560.109
101560.113
101560.116
101560.118
101560.119
101560.122
101560.126
101560.131
101560.137
101560.143
101560.151
101560.16
101560.171
101560.183
101560.198
101560.215
101560.235
101560.257
101560.283
101560.313
101560.347
101560.385
101560.431
101560.484
101560.543
101560.608
101560.678
101560.752
101560.834
101560.92
101560.998
101561.063
101561.102
101561.104
101561.058
101560.952
101560.781
101560.545
101560.262
101559.962
101559.673
101559.388
101559.093
101558.853
101558.692
101558.138
101562.289
101562.289
101562.289
101562.29
101562.291
101562.292
101562.294
101562.296
101562.298
101562.301
101562.305
101562.309
101562.313
101562.318
101562.323
101562.329
101562.335
101562.341
101562.348
101562.356
101562.364
101562.373
101562.382
101562.392
101562.402
101562.413
101562.424
101562.437
101562.45
101562.463
101562.479
101562.496
101562.514
101562.532
101562.551
101562.569
101562.59
101562.612
101562.636
101562.661
101562.688
101562.718
101562.749
101562.782
101562.818
101562.857
101562.899
101562.944
101562.993
101563.045
101563.102
101563.163
101563.23
101563.301
101563.38
101563.466
101563.563
101563.668
101563.777
101563.895
101564.019
101564.15
101564.3
101564.463
101564.636
101564.819
101564.997
101565.165
101565.316
101565.435
101565.504
101565.522
101565.498
101565.454
101565.408
101565.367
101565.32
101565.267
101565.176
101564.964
101564.475
101564.475
101564.475
101564.475
101564.476
101564.478
101564.481
101564.484
101564.488
101564.493
101564.498
101564.505
101564.512
101564.52
101564.528
101564.538
101564.548
101564.559
101564.571
101564.584
101564.599
101564.614
101564.63
101564.647
101564.665
101564.685
101564.707
101564.73
101564.754
101564.779
101564.805
101564.832
101564.86
101564.89
101564.923
101564.957
101564.994
101565.032
101565.073
101565.116
101565.162
101565.211
101565.263
101565.318
101565.377
101565.439
101565.506
101565.577
101565.653
101565.735
101565.822
101565.914
101566.013
101566.119
101566.232
101566.354
101566.487
101566.629
101566.778
101566.939
101567.119
101567.315
101567.524
101567.747
101568.004
101568.29
101568.58
101568.879
101569.177
101569.454
101569.704
101569.924
101570.115
101570.287
101570.425
101570.556
101570.722
101570.934
101571.138
101571.16
101566.596
101566.595
101566.595
101566.595
101566.596
101566.598
101566.601
101566.606
101566.611
101566.616
101566.623
101566.631
101566.641
101566.651
101566.662
101566.674
101566.688
101566.703
101566.72
101566.738
101566.757
101566.777
101566.799
101566.822
101566.846
101566.871
101566.898
101566.927
101566.957
101566.99
101567.024
101567.061
101567.099
101567.139
101567.182
101567.227
101567.275
101567.325
101567.379
101567.435
101567.495
101567.558
101567.626
101567.697
101567.772
101567.852
101567.937
101568.026
101568.122
101568.223
101568.33
101568.444
101568.565
101568.695
101568.834
101568.981
101569.142
101569.315
101569.498
101569.696
101569.91
101570.145
101570.401
101570.685
101570.991
101571.345
101571.721
101572.096
101572.482
101572.885
101573.304
101573.729
101574.157
101574.55
101574.903
101575.272
101575.672
101576.121
101576.586
101576.8
101568.625
101568.623
101568.622
101568.622
101568.623
101568.624
101568.627
101568.631
101568.637
101568.643
101568.651
101568.66
101568.67
101568.682
101568.694
101568.709
101568.724
101568.741
101568.759
101568.778
101568.799
101568.822
101568.847
101568.873
101568.901
101568.931
101568.963
101568.996
101569.032
101569.069
101569.109
101569.151
101569.195
101569.242
101569.291
101569.343
101569.398
101569.456
101569.517
101569.582
101569.65
101569.723
101569.799
101569.88
101569.965
101570.054
101570.149
101570.25
101570.357
101570.472
101570.595
101570.727
101570.87
101571.022
101571.178
101571.338
101571.506
101571.683
101571.879
101572.103
101572.359
101572.624
101572.894
101573.181
101573.5
101573.871
101574.278
101574.711
101575.185
101575.702
101576.259
101576.846
101577.441
101578.02
101578.613
101579.203
101579.779
101580.394
101580.981
101581.265
101570.53
101570.527
101570.525
101570.524
101570.524
101570.525
101570.527
101570.53
101570.535
101570.541
101570.549
101570.557
101570.568
101570.579
101570.592
101570.607
101570.623
101570.641
101570.66
101570.681
101570.703
101570.727
101570.753
101570.781
101570.81
101570.842
101570.875
101570.91
101570.948
101570.987
101571.029
101571.073
101571.12
101571.169
101571.221
101571.275
101571.333
101571.393
101571.458
101571.526
101571.597
101571.672
101571.751
101571.834
101571.923
101572.02
101572.124
101572.234
101572.35
101572.471
101572.595
101572.724
101572.859
101573.003
101573.167
101573.347
101573.536
101573.733
101573.939
101574.149
101574.369
101574.61
101574.875
101575.167
101575.493
101575.846
101576.238
101576.675
101577.166
101577.718
101578.333
101579.007
101579.738
101580.519
101581.317
101582.081
101582.852
101583.651
101584.367
101584.696
101572.298
101572.293
101572.289
101572.287
101572.285
101572.285
101572.286
101572.288
101572.292
101572.297
101572.303
101572.311
101572.32
101572.331
101572.343
101572.356
101572.372
101572.389
101572.407
101572.427
101572.449
101572.472
101572.498
101572.525
101572.553
101572.584
101572.617
101572.651
101572.688
101572.727
101572.768
101572.811
101572.856
101572.904
101572.954
101573.007
101573.062
101573.122
101573.184
101573.25
101573.32
101573.396
101573.475
101573.557
101573.637
101573.725
101573.819
101573.917
101574.027
101574.148
101574.276
101574.408
101574.548
101574.693
101574.84
101574.992
101575.156
101575.334
101575.523
101575.726
101575.94
101576.17
101576.417
101576.685
101576.98
101577.305
101577.667
101578.074
101578.534
101579.057
101579.646
101580.309
101581.059
101581.89
101582.771
101583.7
101584.677
101585.666
101586.565
101587.025
101573.918
101573.912
101573.906
101573.901
101573.898
101573.895
101573.894
101573.895
101573.896
101573.899
101573.903
101573.909
101573.916
101573.925
101573.935
101573.946
101573.96
101573.974
101573.99
101574.008
101574.028
101574.049
101574.071
101574.095
101574.121
101574.149
101574.178
101574.209
101574.242
101574.277
101574.314
101574.352
101574.393
101574.436
101574.481
101574.53
101574.581
101574.637
101574.694
101574.749
101574.806
101574.865
101574.928
101575.002
101575.085
101575.17
101575.259
101575.352
101575.443
101575.538
101575.641
101575.752
101575.872
101575.999
101576.135
101576.278
101576.428
101576.586
101576.753
101576.929
101577.116
101577.315
101577.528
101577.758
101578.01
101578.287
101578.595
101578.941
101579.334
101579.778
101580.28
101580.848
101581.487
101582.249
101583.212
101584.273
101585.338
101586.413
101587.478
101588.173
101575.381
101575.372
101575.363
101575.356
101575.349
101575.344
101575.341
101575.338
101575.337
101575.337
101575.338
101575.341
101575.345
101575.351
101575.358
101575.366
101575.376
101575.387
101575.399
101575.413
101575.429
101575.446
101575.464
101575.484
101575.506
101575.529
101575.553
101575.58
101575.608
101575.638
101575.669
101575.703
101575.738
101575.773
101575.808
101575.844
101575.88
101575.918
101575.962
101576.012
101576.065
101576.119
101576.175
101576.23
101576.286
101576.347
101576.414
101576.486
101576.564
101576.646