/*--------------------------------*- C++ -*----------------------------------*\
  =========                 |
  \\      /  F ield         | OpenFOAM: The Open Source CFD Toolbox
   \\    /   O peration     | Website:  https://openfoam.org
    \\  /    A nd           | Version:  8
     \\/     M anipulation  |
\*---------------------------------------------------------------------------*/
FoamFile
{
    version     2.0;
    format      ascii;
    class       surfaceScalarField;
    location    "0.066";
    object      phi;
}
// * * * * * * * * * * * * * * * * * * * * * * * * * * * * * * * * * * * * * //

dimensions      [1 0 -1 0 0 0 0];

internalField   nonuniform List<scalar> 
84340
(
-7.23166905e-08
2.98613845e-07
-2.26019458e-07
-2.93306977e-07
9.4494443e-07
-7.2350501e-07
-6.70291863e-07
1.65432156e-06
-1.27678182e-06
-1.20957776e-06
2.41869188e-06
-1.87875974e-06
-1.91719692e-06
3.23217162e-06
-2.52382535e-06
-2.79915441e-06
4.09086457e-06
-3.20810479e-06
-3.86156016e-06
4.99265976e-06
-3.92937823e-06
-5.11067037e-06
5.93681013e-06
-4.68674943e-06
-6.55288179e-06
6.92353472e-06
-5.48029481e-06
-8.19469738e-06
7.95369622e-06
-6.31076946e-06
-1.00426702e-05
9.02855121e-06
-7.17937875e-06
-1.21033302e-05
1.01495512e-05
-8.08759669e-06
-1.4383096e-05
1.13181921e-05
-9.03702958e-06
-1.68881745e-05
1.25359084e-05
-1.00293232e-05
-1.96244389e-05
1.38039984e-05
-1.10661088e-05
-2.25973074e-05
1.51235928e-05
-1.21489718e-05
-2.58115915e-05
1.64956306e-05
-1.32794569e-05
-2.92713444e-05
1.79208557e-05
-1.44590659e-05
-3.29796835e-05
1.93998209e-05
-1.56892862e-05
-3.69386006e-05
2.09328888e-05
-1.69716059e-05
-4.11487504e-05
2.25202322e-05
-1.83075332e-05
-4.56092173e-05
2.41618273e-05
-1.96986142e-05
-5.0317249e-05
2.58574318e-05
-2.11464416e-05
-5.52679711e-05
2.76065599e-05
-2.26526513e-05
-6.04540479e-05
2.94084278e-05
-2.42189188e-05
-6.58653131e-05
3.12618952e-05
-2.58469338e-05
-7.1488352e-05
3.31653751e-05
-2.75383547e-05
-7.73060269e-05
3.51167333e-05
-2.92947709e-05
-8.32969385e-05
3.71131586e-05
-3.11176283e-05
-8.94348208e-05
3.91510022e-05
-3.30081459e-05
-9.56878461e-05
4.12255802e-05
-3.49671963e-05
-0.000102017841
4.33309168e-05
-3.69951507e-05
-0.00010837973
4.54598265e-05
-3.90917212e-05
-0.000114721882
4.76046101e-05
-4.12557609e-05
-0.000120986689
4.97570535e-05
-4.34850413e-05
-0.000127107559
5.19051393e-05
-4.57765174e-05
-0.000132981108
5.40092595e-05
-4.81273429e-05
-0.000138496658
5.60603104e-05
-5.05357683e-05
-0.000143555171
5.80635182e-05
-5.29953252e-05
-0.000148064198
5.99798309e-05
-5.54605775e-05
-0.000151854076
6.17422262e-05
-5.79415854e-05
-0.000154641862
6.32260222e-05
-6.04265286e-05
-0.00015614712
6.44037578e-05
-6.28857605e-05
-0.000156103761
6.52175007e-05
-6.52471617e-05
-0.000154261893
6.5566716e-05
-6.73937756e-05
-0.000150272094
6.53352838e-05
-6.93092139e-05
-0.000143718602
6.43850119e-05
-7.09215853e-05
-0.00013419321
6.25614521e-05
-7.20687627e-05
-0.000121239339
5.97036325e-05
-7.26381314e-05
-0.000104291398
5.55913828e-05
-7.25186218e-05
-8.29010251e-05
5.0172827e-05
-7.15410961e-05
-5.65502551e-05
4.31749446e-05
-6.95021706e-05
-2.49894526e-05
3.46514597e-05
-6.61871208e-05
1.26737987e-05
2.36446047e-05
-6.12808925e-05
5.74278091e-05
1.00319224e-05
-5.47573577e-05
0.000110383903
-6.7049182e-06
-4.62210168e-05
0.000172790952
-2.66849774e-05
-3.56893204e-05
0.000246077528
-5.12063067e-05
-2.20444184e-05
0.000331844484
-8.06344202e-05
-5.09349249e-06
0.000431529141
-0.000115411994
1.57699089e-05
0.000547088944
-0.000156214652
4.07015485e-05
0.000679873378
-0.000203928801
7.11959492e-05
0.00083188024
-0.0002594066
0.000107457209
0.00100498312
-0.000323621796
0.000150583122
0.00120152139
-0.000397867854
0.000201401076
0.0014244014
-0.000483785588
0.000260981819
0.00167624134
-0.000581939868
0.000330175648
0.0019561679
-0.000687794221
0.000407942309
0.00225855099
-0.000801386217
0.000499075893
0.00260618233
-0.000971409945
0.000623849146
0.0030285884
-0.00115009583
0.000727758817
0.00345394398
-0.00122038876
0.000795100423
0.00382205976
-0.00140396267
0.00103591028
0.00431614544
-0.00176176195
0.00126773663
0.00501332702
-0.00190469995
0.00120757326
0.00557510916
-0.00195529938
0.00139356413
0.00584513729
-0.00229057947
0.00202058849
0.0061754234
-0.00268089589
0.00235063827
0.00671363444
-0.00283589773
0.00229769515
-0.00286711126
0.00228189857
0.0072988384
-5.72947622e-08
3.56297627e-07
-2.33543934e-07
1.12174839e-06
-5.35155086e-07
1.95657361e-06
-9.67434258e-07
2.85169127e-06
-1.53513824e-06
3.80067053e-06
-2.24294424e-06
4.79953865e-06
-3.09549677e-06
5.8461547e-06
-4.09744543e-06
6.93977865e-06
-5.25342764e-06
8.08061893e-06
-6.56801962e-06
9.26947807e-06
-8.04566192e-06
1.05074779e-05
-9.69056563e-06
1.17958412e-05
-1.15065987e-05
1.31357213e-05
-1.34971531e-05
1.45280772e-05
-1.56650033e-05
1.59735906e-05
-1.8012132e-05
1.74726008e-05
-2.05395511e-05
1.90250767e-05
-2.32470971e-05
2.06305874e-05
-2.61332007e-05
2.22882809e-05
-2.91946382e-05
2.39968658e-05
-3.24262532e-05
2.57545833e-05
-3.58206424e-05
2.75591633e-05
-3.93678172e-05
2.94077797e-05
-4.30548169e-05
3.12969746e-05
-4.68652745e-05
3.32225607e-05
-5.07789398e-05
3.51795136e-05
-5.47711232e-05
3.71618101e-05
-5.8812094e-05
3.91622744e-05
-6.28664846e-05
4.11724619e-05
-6.68928656e-05
4.31826613e-05
-7.08434936e-05
4.5181877e-05
-7.46639052e-05
4.71574086e-05
-7.82867772e-05
4.90892447e-05
-8.16312465e-05
5.09561335e-05
-8.46113715e-05
5.27446451e-05
-8.71409458e-05
5.44426015e-05
-8.91314665e-05
5.60082939e-05
-9.0437333e-05
5.73753407e-05
-9.08341864e-05
5.84701517e-05
-9.00808278e-05
5.92369211e-05
-8.79286356e-05
5.96012929e-05
-8.41658499e-05
5.94753613e-05
-7.85135719e-05
5.87644626e-05
-7.06264592e-05
5.73442679e-05
-6.01376505e-05
5.50927417e-05
-4.66577601e-05
5.18712218e-05
-2.97223154e-05
4.74664638e-05
-8.85009904e-06
4.17071994e-05
1.61633305e-05
3.47093009e-05
4.56449646e-05
2.61301592e-05
8.06421167e-05
1.51972452e-05
0.000122028396
1.81134714e-06
0.000170814598
-1.41102198e-05
0.000228168969
-3.36832092e-05
0.000295453617
-5.72241231e-05
0.00037398071
-8.5201128e-05
0.000465453538
-0.000118124356
0.000571064518
-0.000156780964
0.000692366868
-0.000201897101
0.000831211344
-0.000254212794
0.000989580378
-0.000314535831
0.00116927586
-0.000383571878
0.0013716446
-0.000461718283
0.00159788047
-0.000549799062
0.00185046892
-0.000650399897
0.00213282751
-0.000766089567
0.00244786978
-0.000896929277
0.0027986101
-0.00103848256
0.00317160835
-0.00117433365
0.00355435217
-0.00135410352
0.003999291
-0.00159498531
0.00453679399
-0.00175784304
0.00501663958
-0.00188376166
0.0054072502
-0.0021523272
0.0059215519
-0.00241896295
0.00650323704
-0.00253695359
0.00685833874
-0.0026456563
0.0069896979
-0.00281222631
0.00711521572
-0.00296139006
-0.00309933897
0.00734745169
-4.39941271e-08
4.00777308e-07
-1.80179557e-07
1.25862914e-06
-4.13695406e-07
2.19089438e-06
-7.48477945e-07
3.18737902e-06
-1.18782779e-06
4.24101915e-06
-1.73460507e-06
5.34740516e-06
-2.39160403e-06
6.50433366e-06
-3.16148743e-06
7.71093545e-06
-4.04673449e-06
8.96723728e-06
-5.04957788e-06
1.02737962e-05
-6.17191038e-06
1.16313952e-05
-7.4151672e-06
1.30408e-05
-8.78018783e-06
1.4502569e-05
-1.02670571e-05
1.60169069e-05
-1.18749243e-05
1.75835605e-05
-1.36018071e-05
1.92017379e-05
-1.54443626e-05
2.08700484e-05
-1.73976458e-05
2.25864589e-05
-1.94548315e-05
2.43482385e-05
-2.16069119e-05
2.61519136e-05
-2.38423613e-05
2.79932089e-05
-2.61467658e-05
2.98669661e-05
-2.85024158e-05
3.17670656e-05
-3.0887825e-05
3.36862725e-05
-3.3277186e-05
3.56160811e-05
-3.56398067e-05
3.75465825e-05
-3.79396091e-05
3.94663683e-05
-4.01346214e-05
4.13623685e-05
-4.21743726e-05
4.32176505e-05
-4.40006372e-05
4.50147531e-05
-4.55491874e-05
4.67366411e-05
-4.67500156e-05
4.83648235e-05
-4.75322342e-05
4.98785116e-05
-4.77963801e-05
5.1227832e-05
-4.74134721e-05
5.23697616e-05
-4.62086913e-05
5.32463945e-05
-4.39808576e-05
5.37896571e-05
-4.05248475e-05
5.39291924e-05
-3.56240842e-05
5.35799942e-05
-2.90328186e-05
5.26570234e-05
-2.04805185e-05
5.10611531e-05
-9.66910995e-06
4.86769439e-05
3.73478856e-06
4.53744447e-05
2.01293786e-05
4.09644789e-05
3.98876898e-05
3.53502477e-05
6.31625275e-05
2.86133425e-05
9.0702762e-05
1.99441482e-05
0.000123173165
9.25526688e-06
0.000161357049
-3.45512018e-06
0.000206219658
-1.87111391e-05
0.000258954574
-3.75144459e-05
0.000320655662
-5.98648286e-05
0.00039279874
-8.62265533e-05
0.000476386254
-0.000117241987
0.000572748049
-0.000153554972
0.000683397291
-0.00019581691
0.000810045196
-0.000244735981
0.000954417235
-0.000301113853
0.00111825983
-0.000365697582
0.00130327537
-0.000439182756
0.00151128924
-0.000522501887
0.00174407768
-0.000616313004
0.00200270958
-0.000720305112
0.00228668452
-0.000833730696
0.00259695339
-0.000960627143
0.00293656115
-0.0011056567
0.00330598198
-0.00126631046
0.00370888831
-0.00144134936
0.00414057051
-0.00160597672
0.00456697315
-0.00178046659
0.0049763002
-0.0020042733
0.00544179949
-0.00222330532
0.00591828303
-0.00236021098
0.00626255082
-0.0024965617
0.006486909
-0.00264329007
0.00671634441
-0.00276635167
0.00695635642
-0.00288563584
0.00713989713
-0.00299574477
0.00726665685
-0.00308812687
-0.003193069
0.00736040667
-3.56304251e-08
4.36858384e-07
-1.45793665e-07
1.3694329e-06
-3.34079902e-07
2.37991848e-06
-6.02718675e-07
3.45684537e-06
-9.53296437e-07
4.59250935e-06
-1.3868615e-06
5.78196582e-06
-1.90394913e-06
7.02250127e-06
-2.50476955e-06
8.31292375e-06
-3.18932606e-06
9.65305481e-06
-3.95715857e-06
1.10429892e-05
-4.8072231e-06
1.24829271e-05
-5.73775398e-06
1.39729131e-05
-6.74609213e-06
1.5512613e-05
-7.82850078e-06
1.71011542e-05
-8.97995435e-06
1.87369953e-05
-1.0193898e-05
2.04178156e-05
-1.14619921e-05
2.21404404e-05
-1.27738186e-05
2.39007586e-05
-1.41165672e-05
2.56936478e-05
-1.5474656e-05
2.75128629e-05
-1.68292666e-05
2.93508935e-05
-1.81578369e-05
3.11988377e-05
-1.94335549e-05
3.30463264e-05
-2.06249466e-05
3.48814632e-05
-2.16949929e-05
3.66902031e-05
-2.26018902e-05
3.84578527e-05
-2.32990915e-05
4.01682406e-05
-2.37353123e-05
4.18035616e-05
-2.38507796e-05
4.33384238e-05
-2.3566947e-05
4.47365985e-05
-2.27894649e-05
4.5965231e-05
-2.14028461e-05
4.6984688e-05
-1.92609458e-05
4.77435334e-05
-1.62119452e-05
4.81862043e-05
-1.20798013e-05
4.82454776e-05
-6.66309166e-06
4.7838103e-05
2.63942093e-07
4.68716401e-05
8.93116101e-06
4.52715866e-05
1.95950714e-05
4.29263293e-05
3.2549669e-05
3.97133386e-05
4.81564875e-05
3.54659453e-05
6.67720395e-05
3.00737648e-05
8.85536447e-05
2.36060451e-05
0.000114208045
1.53239104e-05
0.000144352778
5.219992e-06
0.000179736319
-6.75462968e-06
0.000221196697
-2.14994652e-05
0.000269654486
-3.91846095e-05
0.000326405137
-6.01865593e-05
0.00039264364
-8.49290343e-05
0.000469142954
-0.000113991628
0.000557218449
-0.000147916516
0.000658322514
-0.000187304912
0.000773939107
-0.000232830798
0.000905580885
-0.00028516693
0.00105480806
-0.000345012163
0.00122323366
-0.00041312731
0.0014123708
-0.000490214
0.00162381708
-0.000577105613
0.00185897632
-0.00067430477
0.00211916568
-0.000782655815
0.00240567941
-0.000902792716
0.00271875374
-0.00103334679
0.00305534108
-0.00117028618
0.00341063758
-0.00131589261
0.00378330055
-0.00147828881
0.00417245938
-0.00165543869
0.00457664941
-0.00184550847
0.00499669555
-0.00202599294
0.00539660845
-0.00218035145
0.00571696402
-0.00232460267
0.00596359564
-0.00246990824
0.00619043066
-0.00258700831
0.00639624783
-0.00270234197
0.00656339984
-0.00281041524
0.00670867965
-0.00291159953
0.00683244202
-0.00300937055
0.00694732943
-0.00311061057
0.00706313434
-0.00320390701
-0.00329725018
0.00716733751
-3.30109752e-08
4.70464293e-07
-1.33918855e-07
1.47118467e-06
-3.04498361e-07
2.55146869e-06
-5.45067965e-07
3.69850151e-06
-8.55064851e-07
4.90370094e-06
-1.23342445e-06
6.16162497e-06
-1.67841368e-06
7.46889528e-06
-2.18760749e-06
8.82363021e-06
-2.75801368e-06
1.02250859e-05
-3.38600887e-06
1.16727275e-05
-4.06707503e-06
1.31658614e-05
-4.79562301e-06
1.47034618e-05
-5.56479175e-06
1.62839233e-05
-6.36621747e-06
1.79048708e-05
-7.18977535e-06
1.95630028e-05
-8.0233009e-06
2.12539591e-05
-8.85225246e-06
2.29721885e-05
-9.65931099e-06
2.4710803e-05
-1.04239525e-05
2.64614755e-05
-1.11221241e-05
2.82144326e-05
-1.172563e-05
2.99580253e-05
-1.22024378e-05
3.16795142e-05
-1.251652e-05
3.33645234e-05
-1.26264746e-05
3.49957924e-05
-1.24800585e-05
3.65484506e-05
-1.20162567e-05
3.79990111e-05
-1.11627738e-05
3.93200167e-05
-9.83200943e-06
4.04783994e-05
-7.92250076e-06
4.14349003e-05
-5.32505518e-06
4.21455206e-05
-1.90855069e-06
4.25554994e-05
2.48345444e-06
4.25999209e-05
8.03273363e-06
4.22019933e-05
1.49271887e-05
4.12999931e-05
2.33815446e-05
3.97999098e-05
3.36305188e-05
3.75984934e-05
4.59318785e-05
3.45802606e-05
6.06185293e-05
3.05955569e-05
7.80312239e-05
2.55249673e-05
9.83485752e-05
1.94080976e-05
0.00012222739
1.15998316e-05
0.000150235472
2.07897606e-06
0.000183038877
-9.18304781e-06
0.000221399667
-2.3021429e-05
0.000266207106
-3.95709193e-05
0.000318653185
-5.91830309e-05
0.000379461935
-8.22893054e-05
0.000449664635
-0.000109367068
0.000530424508
-0.000140924734
0.000623041265
-0.000177522459
0.000728819788
-0.000219745099
0.000849144489
-0.000268214478
0.000985436612
-0.000323568644
0.00113908998
-0.000386454018
0.0013114852
-0.00045753001
0.00150387034
-0.000537362861
0.00171737447
-0.000626596369
0.00195294985
-0.000725755805
0.00221126268
-0.000835386739
0.00249239278
-0.000955404742
0.00279572309
-0.00108595755
0.00311990501
-0.00122694717
0.00346335563
-0.00137677105
0.00382168811
-0.00152859291
0.00418605838
-0.00168023766
0.00454789292
-0.00184009804
0.00489968846
-0.00200721081
0.00521465387
-0.0021604518
0.00548920581
-0.00230052298
0.00572049322
-0.00241161569
0.00590705594
-0.00251113595
0.00605231221
-0.00261513398
0.0061798033
-0.00271447176
0.00629315049
-0.00281566045
0.00639867167
-0.00291591573
0.00649670901
-0.00300961592
0.00658827174
-0.00310090408
0.00667522184
-0.00319753182
0.00677155334
-0.00330021817
-0.00339671697
0.00687103604
-3.49267886e-08
5.05882874e-07
-1.39436278e-07
1.5763893e-06
-3.13229475e-07
2.72605994e-06
-5.54428588e-07
3.94059377e-06
-8.60095515e-07
5.21035084e-06
-1.22644428e-06
6.52904502e-06
-1.64906759e-06
7.89268058e-06
-2.12268357e-06
9.29850316e-06
-2.64066981e-06
1.07444294e-05
-3.19554096e-06
1.22290629e-05
-3.77847475e-06
1.37503743e-05
-4.37908623e-06
1.53057758e-05
-4.98516322e-06
1.68918355e-05
-5.58237046e-06
1.85040557e-05
-6.15390197e-06
2.01366649e-05
-6.68012324e-06
2.17824741e-05
-7.13825878e-06
2.34327934e-05
-7.50202566e-06
2.50772278e-05
-7.74152642e-06
2.67038291e-05
-7.82106689e-06
2.82970313e-05
-7.69869523e-06
2.98389357e-05
-7.32573844e-06
3.13100789e-05
-6.64495939e-06
3.26875184e-05
-5.59038911e-06
3.39452594e-05
-4.08954341e-06
3.50519218e-05
-2.0554691e-06
3.59695476e-05
6.15217346e-07
3.66542589e-05
4.04436884e-06
3.70545256e-05
8.37118238e-06
3.71137309e-05
1.37466994e-05
3.67760223e-05
2.0342168e-05
3.59664489e-05
2.83499844e-05
3.45989425e-05
3.79823942e-05
3.25768635e-05
4.94982134e-05
2.97919195e-05
6.31994465e-05
2.6106905e-05
7.94107221e-05
2.13959742e-05
9.83222625e-05
1.56780545e-05
0.000120529786
8.39780836e-06
0.000146550077
-4.85114979e-07
0.000176971797
-1.10026803e-05
0.000212477214
-2.38938237e-05
0.000253850627
-3.92819071e-05
0.000302167209
-5.74862811e-05
0.000358077581
-7.89175684e-05
0.000422531505
-0.000104009658
0.000496588787
-0.000133224079
0.000581386934
-0.000167070049
0.000678130831
-0.000206092311
0.000788080199
-0.000250854217
0.000912517236
-0.000301938339
0.00105273665
-0.000359942047
0.00120997791
-0.000425431834
0.00138537598
-0.000498941172
0.00157983161
-0.000580882174
0.00179398056
-0.000671650904
0.00202807683
-0.000771432087
0.00228186126
-0.00088035503
0.00255467311
-0.000998542961
0.00284528188
-0.00112597191
0.00315148522
-0.00126158529
0.00346964548
-0.00140409586
0.00379354307
-0.00155082325
0.00412127323
-0.00170448037
0.00444595755
-0.00185325702
0.00475637744
-0.00199063839
0.00503244053
-0.00211614392
0.00525899485
-0.00223374856
0.00543086309
-0.00233229674
0.00556553409
-0.00243516942
0.00569059855
-0.0025366611
0.00581079509
-0.00263131402
0.00591712895
-0.00272144602
0.00601504163
-0.0028123649
0.00610042613
-0.002901029
0.00617689313
-0.00299236852
0.0062512899
-0.00308399162
0.00633144088
-0.00318103425
0.00641938003
-0.00328545189
0.00651467505
-0.0033954933
-0.00349055358
0.00660852583
-3.87129748e-08
5.45237515e-07
-1.5219139e-07
1.69077271e-06
-3.37668367e-07
2.91257406e-06
-5.90645167e-07
4.19472874e-06
-9.0532585e-07
5.52630259e-06
-1.27477455e-06
6.89987375e-06
-1.69092632e-06
8.31032196e-06
-2.14460863e-06
9.7537888e-06
-2.62510958e-06
1.12266521e-05
-3.1198467e-06
1.27256453e-05
-3.61445071e-06
1.42469544e-05
-4.09230348e-06
1.57857431e-05
-4.53418892e-06
1.73359822e-05
-4.91791956e-06
1.88902041e-05
-5.21796176e-06
2.04392915e-05
-5.40471109e-06
2.19719782e-05
-5.44388444e-06
2.3474902e-05
-5.29533238e-06
2.49318122e-05
-4.91269073e-06
2.63245313e-05
-4.24455236e-06
2.76324498e-05
-3.23138372e-06
2.88295534e-05
-1.80283872e-06
2.98855649e-05
1.23972088e-07
3.07650083e-05
2.64554609e-06
3.14282708e-05
5.86859213e-06
3.18337564e-05
9.91399e-06
3.19293445e-05
1.49188571e-05
3.16549225e-05
2.10380469e-05
3.09412227e-05
2.84490401e-05
2.9709003e-05
3.73629194e-05
2.78688092e-05
4.80171157e-05
2.53193464e-05
6.06874566e-05
2.19361421e-05
7.56794861e-05
1.75928687e-05
9.31912547e-05
1.22887295e-05
0.00011375268
5.5544927e-06
0.000137825428
-2.66732387e-06
0.00016593672
-1.24230935e-05
0.000198694148
-2.43487024e-05
0.000236787523
-3.85668371e-05
0.00028116473
-5.53674505e-05
0.000332416902
-7.51327177e-05
0.000391403729
-9.82545544e-05
0.000459090116
-0.000125157515
0.000536495616
-0.000156306834
0.00062470297
-0.000192199657
0.000724851612
-0.000233354251
0.000838104586
-0.000280303441
0.000965615612
-0.000333582591
0.00110849484
-0.000393711521
0.0012677537
-0.000461174017
0.00144423004
-0.000536393776
0.00163849289
-0.000619668381
0.00185079148
-0.00071121299
0.00208095651
-0.000811021472
0.00232824007
-0.000918910058
0.00259118585
-0.00103435461
0.00286740602
-0.00115655308
0.00315376308
-0.00128487877
0.00344681575
-0.00141900421
0.00374261478
-0.00155736446
0.00403663832
-0.00169810017
0.00431980381
-0.00183397065
0.00457606685
-0.00196072739
0.00479882407
-0.00207599804
0.0049873367
-0.0021791334
0.00514135096
-0.00227014122
0.00526402155
-0.00235640064
0.00537451946
-0.0024427765
0.00546826322
-0.00252889989
0.00554822668
-0.00261660996
0.00562364974
-0.00270672171
0.00569415487
-0.0027919345
0.00575972753
-0.00287792018
0.0058309386
-0.00297222226
0.00590472348
-0.0030661326
0.00598233042
-0.00316158145
0.00606641484
-0.00326510656
0.0061723708
-0.00339139115
0.00629240004
-0.00351550578
-0.00360675331
0.00640861208
-4.1570622e-08
5.87300864e-07
-1.60413595e-07
1.8103094e-06
-3.5065538e-07
3.10361031e-06
-6.04467554e-07
4.44942884e-06
-9.12407826e-07
5.8352195e-06
-1.26350245e-06
7.25203233e-06
-1.64518566e-06
8.69315824e-06
-2.04314334e-06
1.01529939e-05
-2.44127754e-06
1.16261346e-05
-2.82072001e-06
1.31065435e-05
-3.15988519e-06
1.45876906e-05
-3.43396637e-06
1.6061519e-05
-3.61445583e-06
1.75182976e-05
-3.66854132e-06
1.8946259e-05
-3.55824743e-06
2.03311225e-05
-3.24049118e-06
2.16565071e-05
-2.66581487e-06
2.29026819e-05
-1.77725711e-06
2.40459006e-05
-5.08078233e-07
2.50582019e-05
1.21776122e-06
2.59096712e-05
3.4868747e-06
2.65637258e-05
6.3972965e-06
2.69786706e-05
1.00599997e-05
2.71060888e-05
1.46016614e-05
2.6890663e-05
2.01709153e-05
2.62688418e-05
2.69365349e-05
2.51683655e-05
3.50889367e-05
2.35074792e-05
4.48456329e-05
2.11898212e-05
5.64566334e-05
1.81036465e-05
7.02057566e-05
1.41257101e-05
8.62927053e-05
9.23883577e-06
0.000105184859
3.05076672e-06
0.000127293692
-4.50884752e-06
0.000153090439
-1.35003918e-05
0.000183114977
-2.44618659e-05
0.000217971674
-3.75153136e-05
0.000258492702
-5.29348587e-05
0.000305215399
-7.10615427e-05
0.000358910385
-9.22513401e-05
0.000420445416
-0.000116891321
0.000490729745
-0.00014540515
0.000570731932
-0.000178244068
0.000661465455
-0.000215877604
0.000763962332
-0.000258789493
0.00087924399
-0.000307466294
0.00100828607
-0.000362380457
0.00115197139
-0.000423972013
0.00131103327
-0.000492626782
0.0014859909
-0.000568650385
0.00167707088
-0.000652233936
0.00188413506
-0.000743437296
0.00210661651
-0.000842129635
0.00234338229
-0.000947959431
0.00259273354
-0.00106035409
0.00285223705
-0.00117839569
0.00311828933
-0.00130038954
0.00338660975
-0.00142485671
0.00365170244
-0.00154995487
0.00391004275
-0.00167732835
0.00415356735
-0.00180087404
0.00436891472
-0.00191343422
0.00455194897
-0.00201699202
0.00469987195
-0.00210863545
0.00482198437
-0.00219809167
0.00492869595
-0.0022858291
0.00502702675
-0.00236845921
0.00511484836
-0.00244420767
0.0051962889
-0.00252419913
0.00527197657
-0.00260457086
0.00533967052
-0.002684291
0.00540361132
-0.00277064698
0.00547130578
-0.00285961388
0.00553734685
-0.00294395005
0.00560669376
-0.00304155442
0.00568347771
-0.0031429025
0.00575840745
-0.00323650047
0.00584235326
-0.00334904168
0.0059552324
-0.00350425565
0.00608935607
-0.00364961622
-0.00375449408
0.00623710666
-4.01347941e-08
6.28075732e-07
-1.51247848e-07
1.92232237e-06
-3.23584636e-07
3.27697634e-06
-5.451837e-07
4.67217579e-06
-8.02074515e-07
6.09336914e-06
-1.07824356e-06
7.52956757e-06
-1.35544871e-06
8.97183685e-06
-1.61293183e-06
1.0412061e-05
-1.82702697e-06
1.18419309e-05
-1.97072881e-06
1.32520696e-05
-2.01295038e-06
1.46318657e-05
-1.91808001e-06
1.59687386e-05
-1.64534885e-06
1.72477991e-05
-1.14814523e-06
1.84514415e-05
-3.72970204e-07
1.95584977e-05
7.41510615e-07
2.05447488e-05
2.26549997e-06
2.13815991e-05
4.27878364e-06
2.20357167e-05
6.87155591e-06
2.24687339e-05
1.01483687e-05
2.26363825e-05
1.42286247e-05
2.24872274e-05
1.9248365e-05
2.1962934e-05
2.53621523e-05
2.09965665e-05
3.27454241e-05
1.95119337e-05
4.16024115e-05
1.74166887e-05
5.21547949e-05
1.4621123e-05
6.45961125e-05
1.10716454e-05
7.92223908e-05
6.56940184e-06
9.6404242e-05
9.27973532e-07
0.000116511759
-5.97530337e-06
0.000139965535
-1.4207969e-05
0.00016724325
-2.42194646e-05
0.00019887287
-3.61304863e-05
0.000235578446
-5.01974527e-05
0.000277850292
-6.6724628e-05
0.000326378032
-8.60333617e-05
0.000381927235
-0.000108473719
0.000445303846
-0.000134427095
0.000517364564
-0.00016430026
0.000599003694
-0.000198517906
0.000691130022
-0.000237518188
0.000794642687
-0.000281742666
0.000910401636
-0.000331621699
0.00103918563
-0.000387557818
0.00118164143
-0.000449905596
0.00133822651
-0.000518948195
0.00150914355
-0.000594870762
0.00169427041
-0.000677734233
0.00189307174
-0.000767431593
0.00210456862
-0.000863710948
0.00232722974
-0.000966079459
0.0025590088
-0.00107389055
0.00279715774
-0.00118609103
0.00303834586
-0.0013015255
0.00327847787
-0.00141851158
0.00351255515
-0.00153445111
0.00373685353
-0.00164913979
0.00394523149
-0.00175831821
0.00412771487
-0.00185979882
0.00427975144
-0.00195289817
0.00440202208
-0.00203569093
0.00450331588
-0.00211826961
0.00459613185
-0.00220143431
0.0046801992
-0.00228214476
0.0047558649
-0.00236148409
0.00482456538
-0.00243714772
0.00489271552
-0.0025123441
0.0049593134
-0.00259078348
0.00502675289
-0.00267199624
0.00509470367
-0.0027522293
0.00516538857
-0.00284132147
0.00524027514
-0.00293448773
0.00531918615
-0.00302285052
0.00539662354
-0.00311898321
0.00549239538
-0.00323866404
0.00559137351
-0.00333546877
0.0056859306
-0.00344359085
0.00577852365
-0.00359683947
0.00588051503
-0.0037515994
-0.00388122063
0.00600724805
-3.29728059e-08
6.61513191e-07
-1.18434644e-07
2.00843695e-06
-2.41786603e-07
3.40107491e-06
-3.85788279e-07
4.81701137e-06
-5.30630855e-07
6.23912877e-06
-6.53734242e-07
7.65367083e-06
-7.29403538e-07
9.04859088e-06
-7.28407833e-07
1.04122387e-05
-6.17376383e-07
1.17321684e-05
-3.58365414e-07
1.29944303e-05
9.19807998e-08
1.41830008e-05
7.83051134e-07
1.52792678e-05
1.77118499e-06
1.62613925e-05
3.12069549e-06
1.71037957e-05
4.90452005e-06
1.77766847e-05
7.20632182e-06
1.82451159e-05
1.01212393e-05
1.84690209e-05
1.37575941e-05
1.84018836e-05
1.82385559e-05
1.79904877e-05
2.37040364e-05
1.71738245e-05
3.03121224e-05
1.58822842e-05
3.8243565e-05
1.40348668e-05
4.76993494e-05
1.15444092e-05
5.88633548e-05
8.35183082e-06
7.20345144e-05
4.24968969e-06
8.75090334e-05
-8.48993441e-07
0.000105613688
-7.02829589e-06
0.000126726124
-1.45379502e-05
0.000151262936
-2.36033903e-05
0.000179687831
-3.43943743e-05
0.000212628764
-4.71426802e-05
0.000250532058
-6.21161148e-05
0.000294010817
-7.96021576e-05
0.000343736376
-9.99154521e-05
0.000400417952
-0.000123398138
0.000464808695
-0.000150415511
0.000537694424
-0.000181350331
0.000619875359
-0.000216598384
0.000712145558
-0.000256560278
0.000815267745
-0.000301629359
0.000929938275
-0.000352177429
0.0010567448
-0.000408537332
0.00119611761
-0.00047098207
0.00134827397
-0.000539701151
0.00151315687
-0.000614774872
0.00169036979
-0.000696146749
0.00187910453
-0.000783590344
0.00207808572
-0.000876700118
0.00228552394
-0.000974855111
0.00249909259
-0.00107726544
0.00271589331
-0.00118286658
0.00293268198
-0.00129066603
0.00314563901
-0.00139903532
0.00335177192
-0.00150764584
0.00354605169
-0.00161277908
0.00372403913
-0.00171242711
0.00387942678
-0.00180451707
0.00401049436
-0.00188937497
0.00411623882
-0.00196553197
0.00420261458
-0.0020392629
0.00428145129
-0.00211451742
0.00435147326
-0.00218827971
0.00441377386
-0.00226372267
0.00447021668
-0.00233857806
0.00452330949
-0.00241456747
0.00457648048
-0.00249030706
0.00463263065
-0.00256848337
0.00469331843
-0.0026514612
0.00475702696
-0.00273569404
0.00482454695
-0.00281973908
0.00490025894
-0.00291702398
0.00498774914
-0.00302196778
0.00508113825
-0.00311623106
0.00516790524
-0.00320574294
0.00526381858
-0.00333456995
0.00537935296
-0.00345099578
0.00548643197
-0.0035506631
0.00555354305
-0.00366394298
0.00560436339
-0.003802412
-0.00395052551
0.00567367713
-1.92914933e-08
6.81411769e-07
-5.88661124e-08
2.04886312e-06
-9.78136951e-08
3.44099517e-06
-1.12005155e-07
4.83228672e-06
-7.39969239e-08
6.20230869e-06
4.73209245e-08
7.53364294e-06
2.87227306e-07
8.81007672e-06
6.85773413e-07
1.00151896e-05
1.28833526e-06
1.11312129e-05
2.1463479e-06
1.21381392e-05
3.31819932e-06
1.3012993e-05
4.87029347e-06
1.37291467e-05
6.8780022e-06
1.42557929e-05
9.42738418e-06
1.45566671e-05
1.26160476e-05
1.45904304e-05
1.65548877e-05
1.43088511e-05
2.13695019e-05
1.36571569e-05
2.72017955e-05
1.25725261e-05
3.42130029e-05
1.09824128e-05
4.25843466e-05
8.80582605e-06
5.248756e-05
5.98264537e-06
6.4182935e-05
2.34328363e-06
7.7931907e-05
-2.20054497e-06
9.4026205e-05
-7.73816731e-06
0.000112792148
-1.45116505e-05
0.000134600213
-2.26521474e-05
0.000159917937
-3.23407763e-05
0.000189182179
-4.3796592e-05
0.000222840915
-5.72561469e-05
0.000261429498
-7.29765708e-05
0.00030553249
-9.1238853e-05
0.000355771518
-0.000112347851
0.0004128069
-0.000136629753
0.000477327578
-0.000164427836
0.000550036667
-0.000196098419
0.000631634688
-0.000232004191
0.000722798702
-0.00027250446
0.000824154014
-0.000317943245
0.0009362395
-0.000368634747
0.00105946754
-0.000424845793
0.00119407791
-0.000486775619
0.00134008662
-0.000554533266
0.00149723136
-0.000628113468
0.00166491694
-0.000707372726
0.00184216491
-0.000792008128
0.00202756581
-0.000881532415
0.00221925936
-0.00097526891
0.00241492222
-0.00107234857
0.00261179821
-0.0011717173
0.00280672247
-0.00127217639
0.00299629185
-0.00137242306
0.00317714276
-0.0014715042
0.00334647949
-0.00156836011
0.0034980808
-0.00165923668
0.00362875051
-0.00174343893
0.00373850945
-0.0018221746
0.00382956848
-0.00189556506
0.00390792237
-0.0019677178
0.00397972764
-0.00203732514
0.00404437485
-0.00210389885
0.00410167741
-0.00217180937
0.00415472638
-0.00224131862
0.00420312839
-0.00231211485
0.0042473326
-0.00238277204
0.00429044849
-0.00245767306
0.00433585261
-0.00253570144
0.00438224573
-0.00261486629
0.00443048624
-0.00269969115
0.00448975364
-0.00279495142
0.00455772285
-0.00288769868
0.00462760956
-0.00298690196
0.00470793394
-0.00310228408
0.00480360011
-0.00321189015
0.00490050708
-0.00330264355
0.0049791307
-0.00341318759
0.0050727694
-0.00354462879
0.00518061212
-0.00365850104
0.00527772029
-0.00376104628
0.00535043484
-0.00387512262
-0.00399378626
0.00539369967
1.28405364e-09
6.8054836e-07
2.96004904e-08
2.02113686e-06
1.13759158e-07
3.3575113e-06
2.86536755e-07
4.66026306e-06
5.84913638e-07
5.9047616e-06
1.05057765e-06
7.06888421e-06
1.73052351e-06
8.13111379e-06
2.67785058e-06
9.06892727e-06
3.95263442e-06
9.85758126e-06
5.62289204e-06
1.04691279e-05
7.76552562e-06
1.08717065e-05
1.04680797e-05
1.10280483e-05
1.38295282e-05
1.08959192e-05
1.79619206e-05
1.04259785e-05
2.2991838e-05
9.56235476e-06
2.90622971e-05
8.2403816e-06
3.63350366e-05
6.38656768e-06
4.49699373e-05
3.93995031e-06
5.51911693e-05
7.63677564e-07
6.72279434e-05
-3.22827012e-06
8.13373573e-05
-8.12387496e-06
9.78084043e-05
-1.41246371e-05
0.000116964066
-2.13528418e-05
0.00013920407
-2.99745505e-05
0.000164876828
-4.01805181e-05
0.000194407994
-5.21791346e-05
0.00022827136
-6.61996582e-05
0.000266972349
-8.24927715e-05
0.00031105099
-0.000101329632
0.000361080648
-0.000123000705
0.000417660444
-0.000147812753
0.000481404228
-0.000176085359
0.00055292688
-0.000208145741
0.000632827046
-0.00024432094
0.000721664224
-0.000284928131
0.000819930536
-0.000330262623
0.000928017676
-0.00038058331
0.00104617887
-0.000436095726
0.00117448597
-0.000496932734
0.00131278362
-0.000563133911
0.00146064174
-0.00063462381
0.00161730981
-0.000711191002
0.00178167648
-0.000792469387
0.00195224153
-0.000877926492
0.0021271061
-0.000966861227
0.00230399995
-0.00105841504
0.00248032624
-0.00115158441
0.00265322805
-0.00124523997
0.00281969422
-0.00133817345
0.00297671885
-0.00142919121
0.00312158323
-0.00151727786
0.00325140587
-0.00160131812
0.00336259298
-0.00167953953
0.00345512303
-0.00175175792
0.00353316728
-0.0018214729