/*--------------------------------*- C++ -*----------------------------------*\
  =========                 |
  \\      /  F ield         | OpenFOAM: The Open Source CFD Toolbox
   \\    /   O peration     | Website:  https://openfoam.org
    \\  /    A nd           | Version:  8
     \\/     M anipulation  |
\*---------------------------------------------------------------------------*/
FoamFile
{
    version     2.0;
    format      ascii;
    class       volScalarField;
    location    "0.066";
    object      T;
}
// * * * * * * * * * * * * * * * * * * * * * * * * * * * * * * * * * * * * * //

dimensions      [0 0 0 1 0 0 0];

internalField   nonuniform List<scalar> 
42400
(
472.170322
470.492556
468.770598
467.003384
465.18991
463.329251
461.420577
459.463176
457.456473
455.400062
453.29373
451.137492
448.931621
446.676693
444.373617
442.023685
439.628613
437.190581
434.712284
432.196972
429.648489
427.071315
424.470592
421.852154
419.222536
416.588978
413.959419
411.342461
408.747333
406.183821
403.662185
401.193057
398.787314
396.455938
394.209867
392.059836
390.016225
388.088867
386.286906
384.618704
383.091729
381.71247
380.486287
379.417362
378.508657
377.761921
377.177729
376.755514
376.493514
376.392393
376.439785
376.635452
376.972371
377.443639
378.039038
378.745928
379.548122
380.426384
381.347463
382.278054
383.202854
384.161722
384.800401
385.078779
384.977281
384.305458
383.383398
382.121784
380.440395
378.046756
375.094651
371.728482
367.038146
361.609785
356.591402
350.294719
341.746411
334.811167
327.516343
323.233911
472.208682
470.608487
468.96616
467.280707
465.551196
463.776778
461.9567
460.090332
458.177183
456.216932
454.209452
452.154843
450.053467
447.905981
445.713377
443.477025
441.198713
438.880689
436.525708
434.13707
431.718663
429.274996
426.811237
424.333226
421.847503
419.361303
416.882549
414.419834
411.982374
409.579957
407.222858
404.921757
402.687622
400.531579
398.464772
396.498219
394.642698
392.908579
391.305654
389.842954
388.52856
387.369402
386.371049
385.537638
384.871733
384.374247
384.044304
383.879123
383.873443
384.019294
384.309041
384.729332
385.263992
385.89432
386.591331
387.324211
388.071303
388.836658
389.420773
389.693618
389.612593
389.01381
388.184852
387.06046
385.560702
383.552911
380.918577
377.636631
373.682348
368.819968
363.320805
357.787325
351.451233
344.158901
337.403309
330.779998
324.014268
317.144258
311.427363
306.751866
472.257269
470.755328
469.213872
467.631997
466.00887
464.343744
462.635977
460.88505
459.090592
457.252403
455.370481
453.445053
451.476606
449.465926
447.414129
445.322707
443.193563
441.029056
438.83204
436.605905
434.354615
432.08274
429.795492
427.498741
425.199031
422.903588
420.620308
418.357737
416.125033
413.93191
411.78857
409.705611
407.693937
405.764653
403.928907
402.197742
400.581906
399.091614
397.736275
396.524213
395.462424
394.556339
393.809571
393.223659
392.79764
392.527953
392.409005
392.43004
392.578649
392.836322
393.179998
393.583154
394.022261
394.490711
394.83695
394.946358
394.79585
394.207374
393.347309
392.236399
390.802911
388.972462
386.598164
383.638373
380.041052
375.76478
370.821401
365.283311
359.299921
352.729259
345.689301
338.859004
332.26849
325.579364
319.246386
313.663651
308.909648
304.888151
301.646218
300.389089
472.31264
470.922672
469.496175
468.032352
466.530488
464.989961
463.410262
461.791016
460.131999
458.433166
456.694678
454.916928
453.100576
451.246577
449.356225
447.431182
445.473521
443.485763
441.470916
439.432509
437.37463
435.301954
433.219768
431.133989
429.051173
426.978516
424.923836
422.895551
420.902645
418.954605
417.061341
415.233076
413.480224
411.813224
410.242325
408.777354
407.42743
406.200633
405.10372
404.141774
403.317853
402.632543
402.083661
401.666456
401.371684
401.185275
401.091308
401.070267
401.099321
401.171098
401.140966
400.958932
400.546438
399.825536
398.876677
397.7114
396.266416
394.471784
392.214224
389.428998
386.079753
382.146443
377.641439
372.596206
367.015534
360.91583
354.391431
347.601932
340.786313
334.044556
327.409099
321.149707
315.585494
310.745421
306.76952
303.475751
301.011198
300.117461
299.924843
299.868455
472.370893
471.098735
469.793196
468.453605
467.079378
465.670035
464.22522
462.744718
461.228477
459.67663
458.089526
456.46775
454.812158
453.123908
451.404493
449.65577
447.880005
446.079894
444.258606
442.419807
440.567689
438.706989
436.843007
434.981612
433.129238
431.292871
429.48001
427.698622
425.95707
424.264009
422.628254
421.058618
419.563709
418.151675
416.829947
415.604926
414.48162
413.463259
412.550884
411.74296
411.035332
410.420284
409.887126
409.424007
409.017756
408.600043
408.129643
407.558013
406.828563
405.87333
404.77762
403.489736
401.957189
400.12153
397.89363
395.214605
392.048911
388.369631
384.163596
379.434686
374.199951
368.504444
362.429879
356.085258
349.541057
342.846195
336.133117
329.617131
323.470947
317.878279
312.914699
308.703464
305.287385
302.727115
300.816295
300.122683
299.952944
299.908352
299.892485
299.890576
472.427661
471.270314
470.082676
468.864209
467.614469
466.333126
465.019981
463.674984
462.298255
460.890104
459.45106
457.981888
456.483626
454.957602
453.405471
451.829238
450.231288
448.614406
446.981807
445.337146
443.684534
442.02854
440.374186
438.726927
437.092619
435.477464
433.887937
432.330685
430.812397
429.339632
427.918636
426.555102
425.253899
424.018756
422.851949
421.753914
420.722885
419.754817
418.842791
417.977198
417.135999
416.291753
415.412154
414.460304
413.39362
412.226277
410.928455
409.462109
407.785161
405.846579
403.571347
400.922071
397.865111
394.373553
390.430756
386.032011
381.184005
375.905454
370.225091
364.195797
357.887094
351.391215
344.826952
338.338891
332.046195
326.027777
320.392641
315.299283
310.864592
307.207321
304.354538
302.318967
300.860826
300.128953
299.964943
299.914928
299.89683
299.887206
299.87918
299.868375
472.478045
471.422609
470.339653
469.228765
468.089637
466.922078
465.726025
464.501566
463.248957
461.968637
460.661253
459.327677
457.969029
456.586698
455.182358
453.757991
452.315896
450.858703
449.389374
447.911201
446.427795
444.943055
443.461135
441.986382
440.523255
439.076228
437.64966
436.247635
434.873772
433.531008
432.221342
430.945555
429.70288
428.49067
427.304178
426.136051
424.975001
423.804169
422.603522
421.350948
420.031574
418.6232
417.099946
415.431636
413.581869
411.50255
409.153872
406.501703
403.514439
400.165106
396.433891
392.309413
387.790033
382.885126
377.61537
372.013464
366.118398
359.981768
353.669341
347.268229
340.882586
334.627753
328.628839
323.007221
317.873903
313.330328
309.446758
306.274422
303.82363
302.054649
300.925461
300.215263
300.006888
299.943203
299.922382
299.906894
299.888573
299.872068
299.858574
299.847983
472.516894
471.540052
470.537849
469.509987
468.45626
467.37657
466.27094
465.139527
463.982632
462.800721
461.594432
460.36459
459.112219
457.83855
456.545031
455.233323
453.905302
452.563045
451.208812
449.845016
448.474176
447.098861
445.721609
444.344827
442.970672
441.600905
440.236715
438.878524
437.525756
436.176594
434.827738
433.474173
432.108871
430.7225
429.303231
427.836337
426.305129
424.692489
422.977405
421.133811
419.13161
416.942722
414.53813
411.888756
408.966552
405.746296
402.206911
398.332705
394.114634
389.551471
384.650779
379.429739
373.915543
368.145645
362.166613
356.038002
349.829684
343.617038
337.484435
331.539597
325.898352
320.660018
315.925197
311.783562
308.30509
305.52802
303.4283
301.937216
300.956749
300.385916
300.086183
299.993238
299.953205
299.926621
299.902565
299.87437
299.844548
299.829654
299.821557
299.820003
472.539438
471.608218
470.652919
469.673302
468.66921
467.640565
466.587384
465.509783
464.407984
463.28232
462.13324
460.961312
459.767218
458.55175
457.3158
456.06034
454.786398
453.495021
452.187224
450.864025
449.526341
448.174876
446.810026
445.431743
444.039389
442.631546
441.205803
439.758496
438.284316
436.775736
435.224378
433.62029
431.951564
430.204243
428.362222
426.407349
424.319666
422.077689
419.658775
417.039677
414.197259
411.109295
407.755732
404.11958
400.187869
395.952679
391.412108
386.571162
381.442552
376.047329
370.415417
364.585585
358.605822
352.532677
346.438013
340.406
334.522738
328.879058
323.568159
318.684809
314.321718
310.545789
307.409085
304.924953
303.066249
301.763026
300.91221
300.403851
300.132475
300.002046
299.946738
299.90854
299.877489
299.853116
299.835763
299.824937
299.815187
299.805209
299.804876
299.807894
472.542181
471.616521
470.666939
469.693184
468.695056
467.672412
466.625162
465.553272
464.456766
463.335715
462.190238
461.020485
459.826624
458.608818
457.367203
456.101869
454.81283
453.499971
452.162989
450.801221
449.413575
447.998418
446.553397
445.075232
443.559444
441.999343
440.38781
438.71767
436.980685
435.167932
433.26816
431.268178
429.153308
426.907506
424.51356
421.953379
419.208401
416.26006
413.090328
409.682679
406.022803
402.099305
397.904548
393.435489
388.694522
383.69028
378.438393
372.962168
367.293229
361.471843
355.546955
349.574013
343.620537
337.765982
332.099034
326.713345
321.698541
317.136976
313.104282
309.649587
306.803425
304.559756
302.877419
301.688345
300.902784
300.420234
300.145403
299.997995
299.919693
299.875765
299.850834
299.842736
299.8379
299.827087
299.824556
299.822827
299.814918
299.804531
299.791906
299.789748
472.525969
471.567563
470.584425
469.576287
468.542895
467.484007
466.399395
465.288828
464.152074
462.988887
461.799005
460.58213
459.337911
458.065061
456.761686
455.425899
454.056146
452.650486
451.206524
449.721334
448.191382
446.612461
444.979677
443.287427
441.529411
439.699596
437.790253
435.791418
433.691992
431.479821
429.141732
426.663646
424.03077
421.227864
418.239557
415.050735
411.647224
408.016398
404.147683
400.033245
395.668721
391.053992
386.193984
381.099482
375.787939
370.284252
364.621475
358.841363
352.994744
347.14103
341.345523
335.682171
330.236187
325.096157
320.344555
316.05518
312.292165
309.098428
306.487731
304.436713
302.892196
301.784257
301.030029
300.54344
300.244172
300.066979
299.961473
299.90056
299.870598
299.853789
299.844655
299.839154
299.834887
299.826372
299.815482
299.810058
299.804005
299.794601
299.787844
299.784146
472.489999
471.458881
470.401135
469.316403
468.204295
467.064376
465.896156
464.698954
463.471134
462.211573
460.918935
459.591633
458.227778
456.82599
455.384977
453.90283
452.376588
450.802824
449.177584
447.496342
445.753926
443.944424
442.061195
440.096796
438.0429
435.890326
433.629008
431.248017
428.735642
426.079521
423.266813
420.284427
417.119293
413.758826
410.191473
406.407074
402.397432
398.156934
393.683259
388.978129
384.048126
378.90554
373.569224
368.065401
362.428372
356.701057
350.935297
345.191702
339.538893
334.050369
328.803504
323.87866
319.353262
315.293037
311.748029
308.747013
306.297153
304.372825
302.918129
301.86102
301.124675
300.633165
300.316739
300.119549
300.000031
299.929769
299.890367
299.867693
299.854371
299.843855
299.83094
299.818389
299.81169
299.806641
299.798472
299.792414
299.791261
299.792762
299.790661
299.786171
472.43533
471.293653
470.122352
468.92087
467.688551
466.424616
465.127501
463.795961
462.429367
461.026188
459.584645
458.102685
456.577943
455.007711
453.388886
451.717915
449.990746
448.202778
446.348786
444.422927
442.418675
440.328761
438.145195
435.85925
433.461488
430.941794
428.289459
425.493284
422.54174
419.423157
416.126019
412.639471
408.953567
405.059742
400.951349
396.624273
392.077632
387.314534
382.342909
377.176372
371.835086
366.34658
360.746418
355.078594
349.395558
343.757764
338.232741
332.893284
327.814785
323.069776
318.726487
314.843363
311.461262
308.599542
306.252761
304.391396
302.967977
301.919169
301.174764
300.665455
300.329746
300.116725
299.986061
299.910648
299.870123
299.851226
299.841316
299.832141
299.822897
299.815148
299.808617
299.804316
299.7987
299.795443
299.796279
299.793328
299.790738
299.78968
299.790745
299.791401
472.366715
471.086281
469.772506
468.424638
467.041763
465.622601
464.166073
462.670672
461.134637
459.555922
457.932156
456.260609
454.538157
452.761238
450.925812
449.027313
447.060628
445.020055
442.899253
440.691243
438.388394
435.982427
433.464439
430.824948
428.053968
425.141118
422.075762
418.847197
415.445073
411.859613
408.081982
404.104745
399.9224
395.531994
390.933821
386.132188
381.136243
375.96082
370.627284
365.164275
359.608302
354.004068
348.404356
342.869258
337.464766
332.260438
327.326808
322.731562
318.535758
314.787645
311.519829
308.746097
306.457994
304.624986
303.200189
302.126794
301.345233
300.796604
300.425091
300.183043
300.032001
299.942076
299.894448
299.870678
299.857466
299.847487
299.838929
299.830497
299.821068
299.811943
299.806958
299.803567
299.798443
299.79367
299.789931
299.788007
299.785173
299.781922
299.782604
299.791751
472.287536
470.846988
469.368843
467.852157
466.295763
464.698235
463.058086
461.373414
459.641995
457.861251
456.028212
454.13948
452.191194
450.178992
448.09798
445.942694
443.70708
441.384481
438.967634
436.448673
433.819162
431.070137
428.192187
425.175559
422.010298
418.686511
415.194641
411.525726
407.671786
403.626269
399.384591
394.94474
390.307972
385.47956
380.469605
375.293846
369.974444
364.540648
359.029272
353.484859
347.959428
342.511737
337.205755
332.108113
327.285146
322.798464
318.702249
315.038207
311.834247
309.098826
306.822177
304.978022
303.525107
302.412817
301.586407
300.991689
300.577786
300.299926
300.120621
300.008782
299.940679
299.900346
299.875686
299.858665
299.845136
299.833997
299.824959
299.818173
299.81218
299.804979
299.798036
299.794789
299.793122
299.790444
299.785926
299.782596
299.780061
299.776523
299.776557
299.784653
472.199781
470.581779
468.921468
467.217699
465.469036
463.673875
461.830329
459.936086
457.988449
455.984305
453.920085
451.791732
449.594666
447.323762
444.973326
442.53708
440.008165
437.379145
434.642043
431.788386
428.809288
425.695552
422.437827
419.026885
415.453815
411.710327
407.789132
403.684382
399.392202
394.91128
390.243542
385.394881
380.375921
375.20279
369.897834
364.490215
359.016292
353.519685
348.050884
342.666319
337.426807
332.395511
327.634985
323.203334
319.150591
315.514021
312.316994
309.566881
307.256162
305.363887
303.85352
302.679195
301.792469
301.143518
300.683413
300.368024
300.159269
300.025596
299.943065
299.893434
299.862448
299.842225
299.829248
299.820326
299.814206
299.809276
299.804075
299.799966
299.797267
299.794557
299.79023
299.786082
299.784795
299.786358
299.786646
299.783602
299.780596
299.777447
299.774127
299.777486
472.1047
470.294419
468.436721
466.530259
464.573399
462.56423
460.50043
458.379261
456.197537
453.951598
451.637273
449.249859
446.784096
444.234158
441.593648
438.855612
436.01257
433.056566
429.979244
426.771959
423.425954
419.93257
416.283465
412.470918
408.488193
404.329973
399.992868
395.47599
390.781594
385.915772
380.889181
375.717753
370.423361
365.03435
359.585867
354.119871
348.684739
343.334327
338.126437
333.120653
328.375602
323.946099
319.880296
316.214367
312.972566
310.164052
307.784906
305.816565
304.227597
302.97778
302.022427
301.313185
300.803104
300.44847
300.210294
300.055549
299.958149
299.89835
299.862114
299.84031
299.829798
299.824454
299.819132
299.813806
299.809052
299.804227
299.800358
299.795695
299.791041
299.78634
299.782785
299.779844
299.778589
299.780357
299.786722
299.787926
299.786808
299.788534
299.782662
299.777712
472.003237
469.987767
467.919442
465.796718
463.617696
461.380083
459.081159
456.717743
454.286157
451.782203
449.201142
446.537676
443.785951
440.939566
437.991599
434.934661
431.760968
428.462446
425.030913
421.458251
417.736635
413.858823
409.818506
405.610728
401.232363
396.682666
391.96388
387.081896
382.046924
376.874169
371.584438
366.204632
360.768033
355.314319
349.889189
344.543541
339.332107
334.311527
329.53794
325.064204
320.936708
317.192678
313.858278
310.947305
308.461505
306.386353
304.695451
303.35271
302.31538
301.536938
300.970475
300.570512
300.29709
300.116343
300.000544
299.929071
299.886083
299.86074
299.84558
299.836472
299.830034
299.824369
299.818902
299.812738
299.805716
299.799454
299.793357
299.788386
299.784523
299.781395
299.778922
299.777343
299.776903
299.776993
299.784215
299.793914
299.799285
299.802205
299.806803
299.797324
471.896322
469.664629
467.374315
465.023595
462.610277
460.131729
457.584845
454.966012
452.271091
449.495399
446.633705
443.680237
440.628709
437.472361
434.204033
430.816259
427.301439
423.651988
419.860567
415.920349
411.825356
407.570849
403.153785
398.573335
393.831457
388.933512
383.888905
378.711715
373.421271
368.042615
362.606788
357.150863
351.717631
346.354897
341.114318
336.049785
331.21532
326.662608
322.438462
318.582349
315.12362
312.079695
309.454826
307.239689
305.414166
303.945401
302.792348
301.910652
301.254355
300.779858
300.447397
300.221846
300.0738
299.979585
299.921099
299.885479
299.86373
299.849836
299.8398
299.831215
299.823745
299.817675
299.812607
299.807507
299.80127
299.794309
299.789981
299.786752
299.785011
299.782539
299.780891
299.781045
299.781249
299.780562
299.782729
299.792042
299.797586
299.799587
299.810298
299.817459
471.784953
469.328024
466.806465
464.218246
461.560889
458.831438
456.026426
453.141862
450.173217
447.115428
443.962916
440.709622
437.34907
433.874454
430.278781
426.555021
422.696314
418.696221
414.549036
410.250153
405.79649
401.186978
396.423099
391.509468
386.454436
381.270696
375.975833
370.592793
365.150181
359.682347
354.229165
348.83545
343.54996
338.423967
333.509435
328.856899
324.512928
320.517661
316.902629
313.688878
310.885316
308.487731
306.478955
304.831462
303.511415
302.480067
301.694421
301.112062
300.692188
300.397766
300.196751
300.062917
299.976317
299.920731
299.885634
299.863104
299.847656
299.836376
299.827153
299.819364
299.813258
299.809043
299.806586
299.805147
299.801855
299.796647
299.789474
299.786208
299.787441
299.788372
299.789941
299.792056
299.795084
299.79619
299.791538
299.789946
299.797383
299.798948
299.806999
299.829578
472.596561
471.780826
470.943835
470.085197
469.204518
468.301402
467.375446
466.426242
465.453374
464.456415
463.434925
462.38845
461.316515
460.218625
459.094259
457.942865
456.763855
455.556598
454.320415
453.054563
451.75823
450.430522
449.070439
447.676866
446.248571
444.784177
443.282134
441.740696
440.157899
438.53153
436.859104
435.137843
433.364661
431.536119
429.648142
427.696191
425.675222
423.57978
421.404178
419.142667
416.778219
414.299329
411.693252
408.954695
406.078834
403.053893
399.869515
396.517278
392.990588
389.285957
385.404416
381.353025
377.146569
372.809255
368.376131
363.893769
359.421388
355.035986
350.825831
346.885763
343.309252
340.178098
337.551153
335.453999
333.871713
332.747514
331.990589
331.493336
331.151699
330.87964
330.614627
330.318623
329.975294
329.578961
329.120254
328.582249
327.956292
327.265527
326.559934
325.895522
472.592001
471.76706
470.920657
470.052426
469.162001
468.249016
467.313106
466.3539
465.371027
464.364107
463.332755
462.276576
461.195166
460.088106
458.954966
457.795295
456.608624
455.394459
454.152276
452.881515
451.581574
450.251796
448.891463
447.499779
446.075859
444.618704
443.127186
441.600016
440.035721
438.4326
436.788689
435.101711
433.369014
431.58753
429.754018
427.864812
425.91582
423.902536
421.820101
419.662803
417.423999
415.09697
412.675211
410.142465
407.479607
404.672145
401.710355
398.596899
395.319572
391.869414
388.242091
384.437313
380.460941
376.327081
372.059978
367.695746
363.283391
358.884405
354.575525
350.446963
346.595116
343.114474
340.086415
337.56628
335.571551
334.075972
333.013913
332.294113
331.816107
331.483359
331.213092
330.943467
330.6345
330.26267
329.815232
329.289147
328.690013
328.023546
327.290902
326.503052
472.584377
471.744036
470.881865
469.997518
469.090653
468.160934
467.208025
466.231594
465.231307
464.20683
463.157828
462.083963
460.984894
459.860277
458.709763
457.533
456.329627
455.099276
453.841567
452.556107
451.242483
449.900256
448.528954
447.128066
445.697023
444.235192
442.741854
441.216185
439.657233
438.063887
436.434848
434.768585
433.063296
431.316857
429.526762
427.690059
425.803268
423.862284
421.862276
419.798022
417.664229
415.455117
413.164572
410.785878
408.310892
405.732267
403.035774
400.192816
397.188098
394.006338
390.66278
387.146869
383.45447
379.590256
375.566362
371.405282
367.142146
362.82607
358.520319
354.300333
350.254699
346.479525
343.068494
340.101953
337.63472
335.685952
334.234218
333.219124
332.549282
332.116562
331.815041
331.558202
331.287397
330.970962
330.596569
330.1581
329.643653
329.03989
328.351343
327.611831
472.573514
471.711225
470.826566
469.91921
468.988835
468.03513
467.05779
466.056513
465.031004
463.980974
462.906133
461.8062
460.680896
459.529949
458.353091
457.150061
455.920605
454.664474
453.381426
452.071222
450.733623
449.368391
447.975281
446.554033
445.10437
443.625982
442.118518
440.581567
439.014642
437.417156
435.788395
434.127489
432.433368
430.704726
428.939963
427.137131
425.293866
423.407315
421.474054
419.490005
417.450333
415.349331
413.180317
410.935476
408.608235
406.19158
403.678405
401.060636
398.329713
395.475864
392.458851
389.264349
385.874561
382.320753
378.598251
374.713375
370.68646
366.549493
362.349067
358.147563
354.02196
350.059883
346.355938
343.005747
340.093113
337.678087
335.785101
334.394265
333.440293
332.822979
332.42783
332.148499
331.902034
331.633384
331.30977
330.909892
330.419762
329.846561
329.222056
328.578153
472.559298
471.668278
470.754175
469.816676
468.855478
467.870294
466.860845
465.826863
464.76809
463.684275
462.57518
461.440576
460.280247
459.093989
457.881614
456.642951
455.377846
454.086165
452.767792
451.422632
450.050612
448.651672
447.225772
445.772881
444.292979
442.786043
441.252042
439.690929
438.102619
436.486981
434.843808
433.172799
431.473523
429.745386
427.987586
426.199063
424.378445
422.52398
420.633453
418.704117
416.732581
414.71472
412.645586
410.519303
408.328994
406.066644
403.722985
401.287573
398.752795
396.110969
393.355401
390.477074
387.470681
384.28672
380.914665
377.341708
373.617529
369.750019
365.763587
361.702292
357.625761
353.610152
349.7458
346.130895
342.862071
340.026875
337.68818
335.870243
334.549844
333.657586
333.091305
332.737119
332.489932
332.266892
332.011082
331.688562
331.286167
330.809945
330.272818
329.670287
472.541584
471.614764
470.663962
469.688879
468.689229
467.664745
466.615174
465.540278
464.439834
463.313633
462.161483
460.983208
459.778651
458.547679
457.29018
456.00607
454.695293
453.357822
451.993665
450.602864
449.185494
447.741666
446.271526
444.775252
443.253054
441.705165
440.131843
438.533353
436.909968
435.261947
433.589524
431.892888
430.172157
428.427354
426.65837
424.864916
423.046487
421.202299
419.331214
417.431678
415.501629
413.538402
411.538625
409.498113
407.411757
405.273411
403.075801
400.810454
398.46767
396.036437
393.504454
390.86087
388.098984
385.213422
382.198611
379.052933
375.725863
372.216639
368.525944
364.727711
360.851224
356.947551
353.091015
349.37056
345.885118
342.73446
340.006033
337.761261
336.024897
334.775868
333.948337
333.443283
333.147151
332.951984
332.770284
332.54059
332.225894
331.809508
331.287105
330.658717
472.520137
471.549964
470.554713
469.534091
468.487825
467.415663
466.317374
465.192747
464.041589
462.86373
461.65902
460.427335
459.168577
457.882677
456.569601
455.229347
453.861956
452.467509
451.046133
449.598
448.123334
446.622409
445.09555
443.543135
441.96559
440.363392
438.737061
437.087159
435.414281
433.719048
432.002094
430.264049
428.505524
426.727089
424.929249
423.112396
421.276774
419.422434
417.549172
415.656469
413.743418
411.808631
409.850142
407.865301
405.850658
403.801845
401.713452
399.578926
397.390479
395.139053
392.814348
390.404997
387.898817
385.28317
382.543679
379.676988
376.682088
373.560373
370.318404
366.916268
363.372784
359.713987
356.039252
352.405187
348.890665
345.590579
342.600999
340.009354
337.880697
336.243398
335.081932
334.336717
333.911656
333.691802
333.564536
333.436872
333.233421
332.899855
332.420855
331.817778
472.494664
471.472999
470.42494
469.350192
468.248486
467.119579
465.963252
464.779312
463.567592
462.32795
461.060276
459.76449
458.440546
457.08844
455.708208
454.299931
452.863744
451.399835
449.908448
448.389893
446.844541
445.272833
443.675279
442.052462
440.405034
438.73372
437.039314
435.322678
433.584737
431.826476
430.048931
428.253172
426.440287
424.611364
422.767471
420.909622
419.038739
417.15562
415.260886
413.35492
411.437803
409.509231
407.568431
405.614055
403.644072
401.655647
399.645013
397.607348
395.53667
393.425744
391.26604
389.047754
386.759924
384.390754
381.928142
379.360483
376.677519
373.86444
370.926005
367.871094
364.713629
361.474974
358.141915
354.759855
351.383301
348.129446
345.076175
342.31018
339.916312
337.962592
336.484422
335.470676
334.860978
334.559243
334.444686
334.436426
334.435721
334.28499
333.912182
333.346423
472.464925
471.383133
470.273394
469.135399
467.968868
466.773553
465.549236
464.29573
463.012879
461.700561
460.358691
458.987226
457.586166
456.155559
454.695509
453.206178
451.687792
450.140646
448.565112
446.961637
445.330757
443.673093
441.989361
440.28037
438.547032
436.790352
435.011438
433.211493
431.391812
429.553783
427.698874
425.828624
423.944629
422.04852
420.141946
418.226546
416.303917
414.37557
412.442888
410.507066
408.569051
406.629465
404.688521
402.745921
400.800761
398.85141
396.895386
394.92922
392.948355
390.94702
388.91818
386.853514
384.743428
382.577291
380.343721
378.03114
375.628423
373.125969
370.517319
367.800374
364.967183
362.036679
359.033026
355.991335
352.951672
349.936995
347.01881
344.274632
341.807955
339.697743
338.009735
336.785163
336.023826
335.666918
335.65755
335.82334
335.921234
335.923041
335.756779
335.296048
472.430845
471.280141
470.099691
468.889152
467.648218
466.376618
465.074118
463.740518
462.375658
460.979421
459.551732
458.092572
456.601974
455.080033
453.526914
451.942856
450.328178
448.683292
447.008702
445.305016
443.572951
441.813339
440.027133
438.215413
436.379389
434.520403
432.639931
430.739582
428.821097
426.886339
424.937294
422.976055
421.004807
419.02581
417.041372
415.053821
413.06547
411.078568
409.095255
407.117504
405.147041
403.185282
401.233247
399.291453
397.35982
395.437552
393.52302
391.613638
389.705748
387.794463
385.873725
383.936195
381.973177
379.974916
377.930732
375.829537
373.660264
371.412785
369.078989
366.653796
364.136838
361.534164
358.858679
356.130217
353.376316
350.642681
347.982713
345.456026
343.121633
341.058729
339.349304
338.061594
337.242268
336.896387
336.991564
337.422026
337.842326
338.084971
338.120709
337.927052
472.392666
471.164754
469.905057
468.613181
467.288774
465.931521
464.54115
463.11743
461.660179
460.169264
458.644609
457.086201
455.494096
453.86843
452.209421
450.517386
448.792742
447.036023
445.247885
443.429114
441.58064
439.703544
437.799063
435.868602
433.913737
431.936219
429.937982
427.921135
425.887969
423.840944
421.782684
419.715962
417.643681
415.56885
413.494552
411.423906
409.360023
407.305954
405.264624
403.238768
401.230841
399.242952
397.276758
395.333367
393.413234
391.516033
389.640516
387.784509
385.944732
384.116549
382.294064
380.470066
378.636011
376.782263
374.898268
372.973031
370.995616
368.956032
366.846266
364.66137
362.400824
360.06958
357.679059
355.247914
352.802772
350.378306
348.016611
345.763992
343.681874
341.836229
340.295537
339.130984
338.406155
338.179625
338.427089
339.19417
340.084824
340.836836
341.214581
341.286339
472.351066
471.039019
469.692943
468.312373
466.896888
465.446109
463.959704
462.437392
460.878948
459.284206
457.653073
455.985529
454.281645
452.541586
450.765627
448.954163
447.107719
445.226967
443.312737
441.366029
439.388025
437.380106
435.343858
433.281085
431.193816
429.084314
426.955077
424.808841
422.648573
420.477468
418.298931
416.116562
413.934125
411.755514
409.584714
407.425746
405.282607
403.159202
401.059278
398.986309
396.943429
394.933331
392.958152
391.019349
389.117605
387.25265
385.423103
383.626582
381.859528
380.117074
378.392979
376.679682
374.968382
373.249212
371.511566
369.744458
367.937167
366.080033
364.165462
362.189053
360.150893
358.056649
355.918502
353.755772
351.595168
349.470606
347.42259
345.49737
343.747401
342.231545
341.010615
340.145998
339.696369
339.732905
340.32944
341.377485
342.71207
344.067084
345.128182
345.697485
472.307263
470.906619
469.469561
467.995535
466.484029
464.934581
463.346781
461.720279
460.054788
458.350097
456.60608
454.822703
453.000044
451.138299
449.2378
447.299032
445.322645
443.309476
441.26056
439.177153
437.060745
434.913079
432.736165
430.53229
428.304036
426.054282
423.78621
421.503305
419.209349
416.908404
414.604798
412.303092
410.008043
407.724554
405.457625
403.212273
400.993447
398.805927
396.654246
394.542539
392.474449
390.453036
388.480667
386.558904
384.688392
382.868683
381.09813
379.373895
377.691859
376.046577
374.43124
372.837711
371.256657
369.677778
368.090185
366.482878
364.845524
363.169274
361.447805
359.678467
357.863466
356.010941
354.135774
352.259928
350.41271
348.631084
346.95972
345.433867
344.094405
343.023935
342.26403
341.85451
341.860472
342.351203
343.278431
344.602543
346.222659
347.967721
349.587261
350.864262
472.263125
470.773196
469.244433
467.676172
466.067799
464.418753
462.728532
460.9967
459.222901
457.406866
455.54843
453.647542
451.704285
449.718891
447.691761
445.623483
443.514856
441.366907
439.180919
436.958447
434.701343
432.411778
430.092254
427.74563
425.375125
422.984336
420.577233
418.158159
415.731817
413.303247
410.877795
408.461075
406.058905
403.677247
401.322127
398.999546
396.715377
394.475254
392.284448
390.147733
388.069232
386.052309
384.099463
382.212215
380.390981
378.634955
376.942024
375.308712
373.730175
372.200197