/*--------------------------------*- C++ -*----------------------------------*\
  =========                 |
  \\      /  F ield         | OpenFOAM: The Open Source CFD Toolbox
   \\    /   O peration     | Website:  https://openfoam.org
    \\  /    A nd           | Version:  8
     \\/     M anipulation  |
\*---------------------------------------------------------------------------*/
FoamFile
{
    version     2.0;
    format      ascii;
    class       volVectorField;
    location    "0.066";
    object      U;
}
// * * * * * * * * * * * * * * * * * * * * * * * * * * * * * * * * * * * * * //

dimensions      [0 1 -1 0 0 0 0];

internalField   nonuniform List<vector> 
42400
(
(-0.0161741806 0.0154608483 -1.10530249e-26)
(-0.0502984188 0.0469459476 3.6024388e-26)
(-0.0863237827 0.0788551839 3.86946395e-26)
(-0.12364028 0.110532848 0)
(-0.161758976 0.141522287 0)
(-0.2003518 0.17149782 9.08659627e-28)
(-0.239215604 0.200246836 0)
(-0.278233064 0.227641791 -1.01990993e-27)
(-0.317343015 0.253612069 0)
(-0.356518861 0.278122692 -1.14262852e-27)
(-0.39575283 0.30115949 -1.20860894e-27)
(-0.435044742 0.322718982 1.27784528e-27)
(-0.474394502 0.342801885 -3.9465814e-26)
(-0.513797579 0.361409536 -3.95956145e-26)
(-0.553242742 0.378542522 1.50650985e-27)
(-0.592711357 0.394200821 0)
(-0.632177644 0.408384876 0)
(-0.671609426 0.421097132 0)
(-0.710969039 0.432343712 0)
(-0.750214189 0.442136028 0)
(-0.789298598 0.450492169 0)
(-0.828172374 0.45743803 4.36659804e-27)
(-0.866782038 0.46300812 -4.77048836e-26)
(-0.905070201 0.467246073 -1.07659483e-25)
(-0.942974879 0.470204873 -6.10138504e-26)
(-0.980428431 0.471946811 5.36071324e-27)
(-1.01735613 0.472543221 5.63914448e-27)
(-1.05367435 0.472074042 -1.18614373e-26)
(-1.08928841 0.470627265 0)
(-1.12408995 0.468298272 0)
(-1.1579538 0.465189064 1.12129688e-25)
(-1.19073405 0.46140751 1.25223375e-25)
(-1.22226023 0.457066592 -1.52184338e-26)
(-1.25233725 0.452282227 -1.56559387e-25)
(-1.28074308 0.447164391 -1.58552158e-25)
(-1.30722443 0.441807078 0)
(-1.33156326 0.436379732 0)
(-1.35362377 0.431194631 0)
(-1.37261291 0.427375684 0)
(-1.38799509 0.422944722 -1.10357881e-25)
(-1.3988131 0.419032027 -1.99250546e-25)
(-1.40488483 0.413744878 -3.96112063e-25)
(-1.40430085 0.411427216 -1.15788057e-24)
(-1.39718496 0.410361138 4.81180216e-26)
(-1.38042714 0.410662197 4.71151348e-25)
(-1.35278616 0.410771768 4.96349543e-25)
(-1.31235617 0.41095693 -5.78845857e-26)
(-1.25701425 0.411883223 -3.92195722e-25)
(-1.18499628 0.413702284 -6.79597341e-26)
(-1.09409045 0.416694566 -4.94320418e-25)
(-0.981998319 0.420788704 -4.16690524e-33)
(-0.846467143 0.425770824 1.01770113e-24)
(-0.68604699 0.430960859 7.09661048e-25)
(-0.49529744 0.437468258 -1.89022706e-25)
(-0.278340906 0.445740239 0)
(-0.0227896416 0.459097827 0)
(0.262789499 0.475563105 0)
(0.605772897 0.4912094 2.55368486e-25)
(1.00654085 0.505771037 2.70641703e-25)
(1.46592322 0.521571417 0)
(1.98958702 0.540849618 1.98946009e-25)
(2.5850353 0.563480588 -7.85741378e-26)
(3.25669733 0.588145319 -5.36839031e-25)
(4.00935482 0.61380052 -1.11552426e-24)
(4.84699221 0.640021129 0)
(5.77472421 0.667339341 0)
(6.79318361 0.703781328 -3.54074006e-24)
(7.87502495 0.770813957 -3.27926141e-24)
(9.03391197 0.806787245 1.04873824e-24)
(10.5119572 0.647514917 0)
(11.8432462 0.796953234 0)
(12.6972011 1.51428656 1.54498084e-24)
(14.6072968 1.05975684 1.32951867e-24)
(16.7461715 -0.0115137611 0)
(17.1795657 1.46666082 1.8763278e-24)
(17.9812905 2.96877803 7.45205282e-24)
(20.5923202 1.16823258 1.70363453e-23)
(22.2900385 -0.910586976 -2.44837969e-24)
(22.6525387 -0.16267968 -3.03319708e-23)
(22.6486658 1.273437 -8.8627787e-23)
(-0.0208569087 0.0184668791 0)
(-0.0640981843 0.0558765819 2.9078093e-26)
(-0.10902186 0.093692946 3.19029228e-26)
(-0.154912111 0.131225048 0)
(-0.201239984 0.168009944 0)
(-0.247651841 0.203726718 3.32235111e-26)
(-0.293931238 0.238170688 3.28788329e-26)
(-0.339953241 0.271221258 -9.46788385e-28)
(-0.385650861 0.302812496 0)
(-0.430991227 0.332911611 -1.06545879e-27)
(-0.475958526 0.361504175 -1.12973039e-27)
(-0.52054199 0.388584175 -3.43983247e-26)
(-0.564727921 0.414147747 -7.0623722e-26)
(-0.608494947 0.438189822 -3.50156717e-26)
(-0.651811693 0.460702984 3.68797021e-26)
(-0.694636112 0.481677841 3.29951731e-26)
(-0.736915826 0.501104324 0)
(-0.778588973 0.518973463 -3.40419114e-27)
(-0.819585189 0.535279309 0)
(-0.859826475 0.550020773 0)
(-0.8992278 0.563203265 0)
(-0.937697324 0.574840034 -4.11905008e-26)
(-0.975136197 0.584953188 -9.27192081e-26)
(-1.01143793 0.593574399 -5.24704778e-26)
(-1.04648728 0.600745313 0)
(-1.08015877 0.606517738 1.06826867e-26)
(-1.11231468 0.610953647 5.63389684e-27)
(-1.14280253 0.614125015 -1.19298648e-26)
(-1.1714523 0.616113482 -8.44507224e-26)
(-1.19807477 0.617009756 -9.40784349e-26)
(-1.22245911 0.616911063 1.43055232e-26)
(-1.2443666 0.615917468 1.51576527e-26)
(-1.2635212 0.614137518 -1.63501929e-25)
(-1.27967198 0.61171676 -1.47363984e-25)
(-1.29263603 0.60884603 1.61171094e-25)
(-1.30183099 0.606214356 1.23027531e-25)
(-1.30651667 0.602609513 0)
(-1.30595288 0.59874162 -2.15631509e-26)
(-1.30067912 0.594008665 0)
(-1.28872516 0.590837582 -4.6858986e-26)
(-1.2689279 0.58781724 -4.60006085e-25)
(-1.23842553 0.585310825 -3.41851755e-25)
(-1.1974515 0.581513427 -5.65557759e-26)
(-1.14369534 0.577943165 6.20130867e-26)
(-1.07583787 0.574920916 -1.3560345e-25)
(-0.992235856 0.572647177 7.17779806e-26)
(-0.890539707 0.571008504 -7.68915608e-26)
(-0.768127944 0.569774443 -3.68115898e-25)
(-0.623103388 0.568408326 -5.25963344e-25)
(-0.452482457 0.5676856 0)
(-0.259874004 0.568389007 1.01163991e-25)
(-0.0354155238 0.574158484 -2.11261357e-25)
(0.21277276 0.583902016 -2.5965224e-25)
(0.511730123 0.593265531 -8.5776536e-25)
(0.86044099 0.601425292 -2.71764986e-25)
(1.26315437 0.610517535 -5.01121338e-25)
(1.72326636 0.622663561 -3.36214342e-25)
(2.24846631 0.63844687 3.42399143e-25)
(2.84245111 0.65759717 3.77438242e-25)
(3.50917509 0.680435662 3.28887333e-25)
(4.25283608 0.70743657 7.59246941e-25)
(5.07640716 0.7396758 -4.81557907e-25)
(5.98178139 0.777903518 5.14400284e-25)
(6.96987195 0.820657559 0)
(8.04443811 0.863108028 -2.55402751e-24)
(9.21318858 0.902834767 -9.26002747e-24)
(10.4727371 0.944374153 -4.41699003e-24)
(11.7611048 1.039637 0)
(13.0057618 1.20871025 3.21481283e-26)
(14.5996318 1.06210043 1.01251081e-24)
(16.3188263 0.738182591 1.00321454e-23)
(17.2020649 1.40700557 6.90779584e-24)
(18.2848972 2.14467486 -6.67448356e-24)
(20.2301437 1.19134671 -7.13738478e-24)
(21.7550647 0.537138774 3.80433466e-26)
(22.3876756 1.4955825 1.38789052e-23)
(22.7632852 2.15833247 2.50200838e-23)
(23.1121292 1.62001963 -3.18421569e-24)
(23.1450053 1.02045941 -2.99344069e-23)
(23.1387613 0.938245081 -1.35438813e-23)
(-0.0248329905 0.0203317395 3.46524555e-27)
(-0.0758757283 0.0614644847 -3.30605807e-28)
(-0.12845139 0.103037662 3.47314622e-28)
(-0.181743778 0.144337516 -3.72719557e-28)
(-0.235150485 0.184882197 0)
(-0.288299642 0.224360713 -2.57180234e-26)
(-0.340954426 0.262577437 -8.25973275e-34)
(-0.392976956 0.299418199 2.64102183e-26)
(-0.444289132 0.334821132 2.66041401e-26)
(-0.49484614 0.368755098 5.34387224e-26)
(-0.544618027 0.401204952 2.56423025e-26)
(-0.593576856 0.432161736 -1.1895016e-27)
(-0.641688234 0.461616616 -1.26266535e-27)
(-0.688906303 0.489557741 2.6727958e-26)
(-0.735171322 0.515969295 2.67277166e-26)
(-0.780409007 0.54083204 -4.54195712e-27)
(-0.824530922 0.564124782 -2.37132914e-26)
(-0.867435383 0.585826316 -5.44504895e-26)
(-0.909008483 0.605917503 -2.77151541e-26)
(-0.949124947 0.624383284 -3.86895508e-27)
(-0.987648675 0.641214493 4.11320498e-27)
(-1.02443286 0.656409369 4.37472953e-27)
(-1.05931961 0.669974766 0)
(-1.09213897 0.681927039 -9.89012732e-27)
(-1.12270725 0.692292705 3.78062795e-26)
(-1.15082489 0.701108703 -2.53320625e-29)
(-1.17627349 0.708421418 -4.54407187e-26)
(-1.19881188 0.714285792 -5.00930753e-26)
(-1.21817509 0.718774374 -5.55479709e-26)
(-1.23407925 0.721982059 4.86173305e-26)
(-1.24624304 0.72400577 1.56176001e-26)
(-1.25440522 0.724926088 -1.09768762e-25)
(-1.25787308 0.725003525 -8.71224967e-26)
(-1.25647027 0.723872894 0)
(-1.24956673 0.722223529 0)
(-1.2370767 0.719895244 2.10398754e-26)
(-1.2179854 0.717740631 0)
(-1.19006966 0.715193174 -4.74103569e-26)
(-1.15146938 0.711967466 -2.15895336e-25)
(-1.1014107 0.707700564 -1.11985477e-25)
(-1.03889627 0.702960532 1.15525671e-25)
(-0.96244639 0.698326655 0)
(-0.870461952 0.693832202 0)
(-0.760619973 0.689351084 -2.31879997e-25)
(-0.630796197 0.68482804 -3.62636941e-25)
(-0.479803021 0.679835131 -9.0789654e-26)
(-0.304046277 0.674686915 0)
(-0.100710809 0.671749757 0)
(0.122524361 0.674711923 -1.63953845e-25)
(0.37515204 0.680307655 -5.00926306e-25)
(0.684327944 0.684137281 1.25367386e-25)
(1.03841407 0.687049257 0)
(1.4432811 0.693136072 -2.86304607e-25)
(1.90566999 0.703087809 2.19338691e-26)
(2.43006154 0.716587815 -3.14144439e-25)
(3.02069823 0.733849682 -8.53770667e-25)
(3.68214471 0.75530695 -7.8469455e-25)
(4.41890109 0.781379233 5.166988e-32)
(5.23466969 0.813244927 -6.91981197e-32)
(6.13224002 0.852065924 -3.50331276e-24)
(7.11303027 0.898537293 -2.25237234e-24)
(8.1733162 0.955635876 2.64452583e-24)
(9.30294944 1.02803007 3.48408121e-24)
(10.4915019 1.11199795 0)
(11.7503365 1.18301741 5.60164879e-24)
(13.0892991 1.23526686 1.13192985e-23)
(14.4775794 1.27954988 6.69037952e-24)
(15.8908192 1.34499055 0)
(17.1119381 1.56020688 -3.07160203e-26)
(18.3976769 1.75113601 8.98677784e-24)
(19.9452972 1.42060248 8.93908559e-24)
(21.2626052 1.2099014 0)
(22.0391311 1.75606637 0)
(22.6838259 2.029562 1.35959107e-24)
(23.1373366 1.75293123 -1.31262932e-24)
(23.2128147 1.65812223 5.93668914e-24)
(23.2754005 1.73257343 1.04388043e-23)
(23.2557568 1.81145452 0)
(23.1291821 1.8743708 -1.85664624e-24)
(23.0967133 1.64852349 1.68975897e-23)
(-0.0282159208 0.0213212978 -2.13866129e-28)
(-0.0859498661 0.0644298577 -3.34953031e-28)
(-0.145125462 0.10799023 9.98933569e-27)
(-0.204811685 0.151270077 -1.07571885e-26)
(-0.264357225 0.193787865 -1.01127366e-26)
(-0.323321605 0.235225709 0)
(-0.381464042 0.275401979 -2.00255205e-26)
(-0.43862891 0.314214398 -1.88268875e-26)
(-0.494720996 0.351607197 -1.94381934e-26)
(-0.549678589 0.387552374 -1.89355957e-26)
(-0.603452041 0.422035882 -2.05603656e-26)
(-0.655989975 0.455047938 -2.93399673e-34)
(-0.707230353 0.486577101 -1.28952331e-27)
(-0.757095222 0.516607327 -1.75442771e-33)
(-0.805488204 0.545117218 1.45706304e-27)
(-0.852293816 0.572080719 -1.61746374e-26)
(-0.897377894 0.597468712 1.505783e-26)
(-0.940588521 0.621251058 3.50812812e-27)
(-0.981757077 0.643398794 -9.06452554e-27)
(-1.02069906 0.663886311 -3.98992693e-27)
(-1.05721435 0.682693523 8.52265941e-27)
(-1.09108713 0.699808082 5.25717865e-27)
(-1.12208528 0.715227185 4.21157685e-27)
(-1.14995906 0.728958366 -5.19683202e-27)
(-1.17443264 0.741016484 0)
(-1.19520851 0.751421456 -5.9452221e-27)
(-1.21198008 0.760200281 0)
(-1.22441407 0.767425963 -7.90852996e-27)
(-1.23210272 0.773042861 6.51789757e-27)
(-1.23464052 0.777142271 -4.68595533e-27)
(-1.23166687 0.780004171 -2.07465482e-26)
(-1.22275814 0.781976498 9.47070936e-27)
(-1.20786358 0.782947219 -3.84550199e-26)
(-1.1847333 0.783257235 -2.05993362e-26)
(-1.15255216 0.782347296 8.64586582e-26)
(-1.10973162 0.780072048 9.78431552e-26)
(-1.0543395 0.77670811 0)
(-0.986588599 0.772420387 -5.66844905e-26)
(-0.904784603 0.767816501 -3.97579796e-26)
(-0.80738322 0.762963171 -6.52156819e-26)
(-0.69230542 0.757866254 -7.04630763e-26)
(-0.557452955 0.75257161 0)
(-0.401543273 0.74669887 0)
(-0.221091265 0.740849953 0)
(-0.0149132476 0.738557213 -9.09835818e-26)
(0.208923965 0.740169623 -2.51912711e-25)
(0.479045899 0.741199372 -2.36435446e-25)
(0.790636268 0.741101142 0)
(1.14857369 0.742711655 0)
(1.55665303 0.747938467 3.81295515e-26)
(2.020802 0.757041056 1.31218712e-25)
(2.5442098 0.769880413 1.75165295e-26)
(3.13155976 0.787005924 9.95182755e-26)
(3.78790729 0.808914393 3.55060807e-25)
(4.51753323 0.836555669 -9.49586513e-27)
(5.32388114 0.871038644 -9.71195478e-25)
(6.20943934 0.91304525 -1.50204867e-24)
(7.17472912 0.96298385 -2.45005191e-24)
(8.21847731 1.02086868 0)
(9.33466299 1.08845625 -5.06728963e-25)
(10.5194781 1.16476426 -3.90549323e-24)
(11.7649694 1.24963055 -8.39184333e-24)
(13.0483625 1.35417127 5.11073333e-25)
(14.331211 1.48736799 5.18576345e-25)
(15.6267703 1.609542 -6.40711509e-24)
(16.9608893 1.68048325 6.20414432e-24)
(18.2732425 1.71872259 7.31219268e-24)
(19.5794388 1.76067338 -1.03378515e-24)
(20.6821708 1.84432659 -3.2044045e-24)
(21.6820155 2.0355779 -1.16378944e-23)
(22.5222057 2.07515711 9.43443705e-26)
(23.089654 1.90721884 -1.76376695e-23)
(23.2153751 1.88276187 -6.1060712e-24)
(23.2740474 1.9489147 0)
(23.2565133 2.03735412 -7.91468497e-24)
(23.1919109 2.00227944 -2.83809757e-23)
(23.1828881 1.94494196 2.64524082e-24)
(23.1941174 1.90192029 1.09453329e-23)
(23.1951068 1.91175926 1.08076277e-23)
(23.1523267 1.90619411 1.94599334e-23)
(-0.0313525343 0.0218166195 2.33143791e-27)
(-0.095278689 0.0658364699 0)
(-0.160546506 0.1102309 0)
(-0.226110278 0.154258425 2.5974572e-30)
(-0.291249791 0.197445047 0)
(-0.355506648 0.239488097 0)
(-0.418571669 0.280203098 0)
(-0.480272505 0.319496951 1.88672116e-27)
(-0.540517816 0.357332401 0)
(-0.599219833 0.393692093 -1.06357824e-27)
(-0.656303253 0.428566241 -1.12883267e-26)
(-0.711686587 0.461947922 -1.49974303e-33)
(-0.765272471 0.493827555 3.15016219e-27)
(-0.816942258 0.524189965 0)
(-0.866553406 0.553013758 1.44580648e-27)
(-0.913938741 0.580272193 -3.08235499e-27)
(-0.958906803 0.60593498 0)
(-1.00124264 0.629970694 1.20821104e-26)
(-1.04070889 0.652349488 -3.74921801e-27)
(-1.07704647 0.673045037 -4.50847304e-26)
(-1.10996693 0.692033015 -2.08241921e-26)
(-1.13915185 0.709291719 -4.5914718e-27)
(-1.164262 0.724803355 0)
(-1.18496932 0.738510636 -2.77701007e-26)
(-1.20082632 0.750492306 -3.25312995e-26)
(-1.21153058 0.760802993 -4.73441614e-26)
(-1.21671281 0.769604246 -4.92718275e-26)
(-1.21600312 0.777025671 5.14685548e-26)
(-1.20873214 0.783178779 5.6374327e-26)
(-1.19371695 0.787848455 0)
(-1.17004844 0.790977588 -4.92684466e-26)
(-1.13658278 0.792491879 -5.65296405e-26)
(-1.09166139 0.79250276 -2.03392473e-26)
(-1.03523966 0.791383004 -1.07267187e-25)
(-0.965842103 0.78943433 -8.2998833e-26)
(-0.88204101 0.786742838 5.18149343e-26)
(-0.782259413 0.78339992 -2.77928211e-26)
(-0.664525546 0.779499742 -7.1336734e-26)
(-0.526726701 0.775168318 -4.30190039e-26)
(-0.367383992 0.770123026 3.16859542e-26)
(-0.183277134 0.764868106 3.24383413e-25)
(0.0275124757 0.762772401 1.18279542e-25)
(0.256443653 0.764095339 0)
(0.532134346 0.764929702 9.31987358e-26)
(0.848457485 0.765169292 -9.34111882e-26)
(1.21010653 0.767755466 1.05089913e-25)
(1.6213827 0.773840557 -2.22554693e-32)
(2.08618214 0.783661255 -2.35461811e-25)
(2.60875817 0.79769206 0)
(3.19380735 0.81666153 1.41310331e-25)
(3.84614331 0.841420286 2.85906702e-26)
(4.56949257 0.873028656 -3.59346571e-25)
(5.36667911 0.912402372 7.00503409e-25)
(6.23941525 0.960147679 1.51193164e-25)
(7.18777951 1.01661799 -7.85665404e-25)
(8.20995035 1.08200929 -1.05320277e-24)
(9.30240226 1.15601157 -4.65766506e-24)
(10.4579363 1.23937928 -3.84987478e-24)
(11.6698708 1.33123266 -4.01446088e-24)
(12.9251733 1.43047164 -5.13415676e-24)
(14.2142073 1.5347629 0)
(15.5211358 1.63811292 4.79247245e-25)
(16.8142484 1.75277461 -5.09060144e-24)
(18.0274632 1.90435052 -5.92420622e-24)
(19.1511546 2.07438637 -3.01914524e-26)
(20.2502058 2.18528429 0)
(21.2946038 2.18777625 1.008579e-23)
(22.2820299 2.17294607 1.31907929e-23)
(22.9558226 2.14191631 1.17014577e-24)
(23.1741049 2.22098813 -1.11763062e-24)
(23.1974039 2.33680224 -1.88380033e-26)
(23.2035361 2.30687204 -2.11885518e-24)
(23.1972933 2.28427688 -7.79115318e-24)
(23.195686 2.17718961 -1.44388084e-23)
(23.2127737 2.11793086 -9.87108488e-25)
(23.206829 2.07129457 0)
(23.1791475 2.10204896 -1.01035252e-23)
(23.1802417 2.01019061 -1.69120363e-23)
(23.1811614 1.99235996 0)
(23.1732654 1.96813965 -1.27742783e-23)
(-0.0345816145 0.0220986771 -5.15471998e-27)
(-0.104785205 0.0664927484 -8.65130755e-27)
(-0.176137617 0.111071416 -8.13382397e-27)
(-0.247479895 0.15509475 3.44292601e-28)
(-0.318022877 0.198103093 7.07425994e-27)
(-0.387263489 0.239815247 7.75276029e-28)
(-0.454889907 0.280068741 -6.42375967e-27)
(-0.520683352 0.318778509 -3.54533152e-27)
(-0.584513633 0.355913303 -9.23645207e-28)
(-0.646284232 0.391469559 -1.9603842e-27)
(-0.705884299 0.425450344 -1.48447516e-27)
(-0.763193712 0.457856907 -7.19671994e-27)
(-0.818070153 0.488687217 -9.17996461e-27)
(-0.870343048 0.517933558 -1.52912414e-26)
(-0.919810803 0.545582067 -1.34291705e-27)
(-0.966240125 0.571613891 2.23275905e-26)
(-1.00936591 0.596007496 0)
(-1.04888455 0.618739625 0)
(-1.08445498 0.6397839 4.32423784e-26)
(-1.1157443 0.659063298 8.88006369e-26)
(-1.1422961 0.676652455 5.23756633e-26)
(-1.16378772 0.692539083 6.27558515e-26)
(-1.17983178 0.706812205 -1.43656861e-33)
(-1.18993434 0.719582847 -8.77105531e-26)
(-1.19331164 0.730613076 1.0884451e-25)
(-1.18920686 0.739952215 2.19828774e-25)
(-1.17678658 0.74759669 1.23363933e-25)
(-1.15505062 0.753511064 6.81818928e-27)
(-1.12299548 0.757823255 -7.38745734e-27)
(-1.08009483 0.760894786 1.59662028e-26)
(-1.02511956 0.76282145 0)
(-0.956735082 0.763677636 1.42598398e-25)
(-0.873492128 0.763552602 2.0206674e-26)
(-0.773747212 0.762574771 -1.76749426e-25)
(-0.655484063 0.760902349 0)
(-0.516624864 0.758711902 -1.37848619e-25)
(-0.355555103 0.755820532 -2.15178502e-25)
(-0.16929865 0.752680329 0)
(0.0444963452 0.752291079 0)
(0.277827043 0.754774223 -1.7081585e-25)
(0.557508588 0.756980706 -1.20343436e-25)
(0.877103384 0.758974688 -1.57733909e-25)
(1.24064964 0.7637582 0)
(1.65285537 0.772292165 3.44682929e-25)
(2.11733196 0.784788738 6.13222362e-25)
(2.63838992 0.80198539 3.87689215e-25)
(3.22059428 0.824670467 -1.15067605e-25)
(3.86804543 0.853722507 -8.64541574e-28)
(4.5840629 0.890155311 0)
(5.37112823 0.934860793 -3.32024516e-25)
(6.23065172 0.988534673 3.09326635e-25)
(7.16257752 1.0518531 7.29403792e-25)
(8.16506792 1.12537783 3.59117307e-25)
(9.23403461 1.20944693 -7.47112146e-25)
(10.363089 1.3037135 -3.27604884e-24)
(11.5420018 1.40861035 5.12685139e-32)
(12.7607557 1.52181506 1.92046735e-24)
(14.0073045 1.63923189 0)
(15.2687374 1.75920493 0)
(16.5200973 1.8793724 4.03344208e-25)
(17.7454484 2.00192816 4.08593983e-25)
(18.9162882 2.10932054 0)
(20.0221627 2.20791524 7.81035008e-24)
(20.9998073 2.31447277 6.45987963e-24)
(21.8168497 2.44461916 -7.03182943e-24)
(22.5042866 2.52786794 -2.75727875e-23)
(23.0336759 2.5681469 -1.19054726e-23)
(23.1421806 2.58047219 -6.39009752e-24)
(23.2003149 2.52660869 -3.67049028e-24)
(23.2042075 2.48664744 -1.52512964e-24)
(23.1888199 2.48539441 8.07797186e-24)
(23.1620589 2.44912972 8.94077453e-24)
(23.1454601 2.4376197 -1.32816594e-23)
(23.1459615 2.41451092 -8.69535777e-24)
(23.1521335 2.34883862 -1.05236139e-23)
(23.154264 2.31587719 -7.34109473e-24)
(23.156061 2.21295289 -1.51871072e-23)
(23.1669243 2.21234066 8.19537238e-32)
(23.2006198 2.14987985 2.91306396e-23)
(23.1780422 2.15050158 2.0826976e-23)
(-0.0381354818 0.0223074084 2.73273711e-27)
(-0.115080636 0.0668188199 -2.46984432e-28)
(-0.192809071 0.111221722 8.73629399e-27)
(-0.270051943 0.15479103 4.34653023e-34)
(-0.345951394 0.197090817 -6.03976279e-27)
(-0.419961256 0.237863946 -4.08872313e-27)
(-0.49173574 0.276973385 -6.52509994e-27)
(-0.561048052 0.314351289 -8.22834493e-28)
(-0.627695331 0.349980629 7.56457798e-28)
(-0.691568092 0.38386831 3.31570079e-27)
(-0.752507706 0.416035385 6.00279e-27)
(-0.810341343 0.446496105 9.87208535e-27)
(-0.864865895 0.475260982 1.22676933e-26)
(-0.915840952 0.502336002 1.49102051e-26)
(-0.962982102 0.527723164 -1.1198645e-27)
(-1.00596176 0.551421352 -1.20334408e-27)
(-1.04443902 0.5733823 5.2000494e-26)
(-1.0779815 0.593673344 6.19136385e-26)
(-1.10620383 0.612329431 3.02437806e-27)
(-1.12854828 0.629312681 3.20025571e-27)
(-1.14443399 0.644554475 1.13347445e-25)
(-1.15315654 0.658097842 1.24861559e-25)
(-1.15394365 0.669904663 0)
(-1.14599448 0.680025748 -4.40370775e-27)
(-1.12867766 0.688694658 0)
(-1.10101763 0.695933339 0)
(-1.06192289 0.701806314 -5.56860544e-27)
(-1.01019636 0.706389393 -1.8368098e-25)
(-0.944521787 0.709778284 -2.1658443e-25)
(-0.863426481 0.712117358 2.39378067e-25)
(-0.765238073 0.713587533 2.40472841e-25)
(-0.648014677 0.71437869 -1.68635384e-26)
(-0.509707861 0.714710114 1.85592837e-26)
(-0.34858914 0.714486799 0)
(-0.161862777 0.714095221 -2.10229481e-26)
(0.0532159028 0.716100338 0)
(0.289102986 0.720590508 0)
(0.570492447 0.72519487 -2.6992188e-26)
(0.891233537 0.730053084 0)
(1.25474605 0.738054391 0)
(1.66595965 0.75004079 3.75985594e-25)
(2.12826655 0.766232156 3.09411575e-25)
(2.64573552 0.787407572 0)
(3.22260279 0.814380051 0)
(3.86259936 0.848025442 0)
(4.56877165 0.889317043 -1.01480397e-25)
(5.34347377 0.93917833 -1.11009745e-25)
(6.18806129 0.998458552 7.86344663e-25)
(7.10247948 1.06794723 7.7736645e-25)
(8.08496764 1.14829802 9.13789583e-25)
(9.13174598 1.23992505 1.08104935e-24)
(10.2366809 1.3429509 1.44434322e-24)
(11.3912251 1.45684338 1.71626366e-24)
(12.583068 1.581912 0)
(13.7990233 1.71625769 0)
(15.023502 1.85713186 -1.76455195e-24)
(16.2382586 2.00170884 -4.29308407e-24)
(17.4250941 2.14215219 -2.58493563e-24)
(18.5701944 2.27566075 -2.79601255e-24)
(19.6460331 2.3934275 -2.29744666e-24)
(20.6427942 2.51523269 6.08108256e-24)
(21.4995087 2.60076637 1.26084064e-23)
(22.3018787 2.67356988 5.11266449e-25)
(22.8434695 2.71044866 -1.37642228e-23)
(23.1392664 2.75388545 4.10737453e-25)
(23.2038041 2.82814031 -9.45022269e-25)
(23.1752714 2.83749873 3.62753799e-24)
(23.1384986 2.83710448 -1.23663677e-31)
(23.1298669 2.81220297 -6.84876039e-24)
(23.144396 2.73003136 -6.55829546e-25)
(23.1519294 2.64935475 1.0927955e-23)
(23.1382701 2.6202848 7.99937646e-24)
(23.1361708 2.53900748 0)
(23.1384237 2.50157532 9.39014387e-25)
(23.1437496 2.46071139 0)
(23.141384 2.40682701 1.23250702e-23)
(23.1464968 2.38983019 1.55338633e-23)
(23.2194192 2.32665031 1.15394858e-23)
(23.3265177 2.33391406 1.22806682e-23)
(23.3051476 2.37957399 2.30459766e-23)
(-0.0420628816 0.0224334435 2.7847045e-27)
(-0.126239385 0.0668158116 8.70727625e-27)
(-0.21058551 0.110727213 1.53352148e-28)
(-0.293723677 0.15347095 -6.23998001e-27)
(-0.374725626 0.194643212 -4.37989522e-27)
(-0.452998153 0.234016417 -2.1553145e-27)
(-0.528157828 0.271480469 3.92106173e-28)
(-0.599938448 0.306995433 -2.02609279e-27)
(-0.668120268 0.340558996 -4.93759669e-27)
(-0.732487727 0.372196463 -8.44984137e-27)
(-0.792852067 0.401937838 0)
(-0.848965404 0.429823671 1.13678884e-27)
(-0.900541054 0.455885136 -6.0950991e-28)
(-0.947255004 0.480125533 0)
(-0.988700918 0.502627908 0)
(-1.02445734 0.523350049 0)
(-1.05398409 0.542381565 0)
(-1.07669574 0.559651772 9.30823933e-28)
(-1.09189375 0.575163314 0)
(-1.09895261 0.589092634 -6.24783836e-26)
(-1.09708898 0.601440299 -7.00738936e-26)
(-1.08540774 0.61224825 1.63827294e-25)
(-1.06290332 0.621592158 1.77653464e-25)
(-1.02850904 0.629540743 -1.9859453e-25)
(-0.981026258 0.636208604 -2.10322275e-25)
(-0.919125886 0.641739821 -2.32491362e-25)
(-0.841333748 0.646292975 -2.55908872e-25)
(-0.745979344 0.650036635 -2.62394512e-25)
(-0.63119413 0.653187302 -5.78191006e-25)
(-0.494965016 0.655994001 -2.93846582e-25)
(-0.335480002 0.658438353 0)
(-0.15011593 0.660868388 1.29537823e-26)
(0.0641130886 0.665432574 1.38678308e-26)
(0.300427039 0.672233947 0)
(0.580905486 0.679657319 -1.75432554e-26)
(0.899900985 0.687869427 0)
(1.26098874 0.699412008 0)
(1.66856405 0.715066849 4.41614498e-25)
(2.12590188 0.735100225 2.41254894e-26)
(2.63683561 0.760303577 -5.061336e-25)
(3.20530202 0.791508545 5.07306193e-25)
(3.83477015 0.82960796 5.74230887e-25)
(4.52812878 0.875595176 -3.43102004e-26)
(5.28762063 0.930412073 0)
(6.11454079 0.994916871 8.35790368e-25)
(7.00887698 1.06988753 7.54782979e-25)
(7.96902703 1.15595348 0)
(8.99153262 1.25351568 0)
(10.0708453 1.36265412 -1.14920539e-24)
(11.1991586 1.4830559 -1.3334793e-24)
(12.3662601 1.61379345 1.70370309e-24)
(13.5587799 1.75434124 2.04198114e-24)
(14.761883 1.90280296 -1.88645428e-24)
(15.9589916 2.05630074 4.48125726e-32)
(17.1308682 2.21273664 2.36302778e-24)
(18.2541776 2.36920397 1.22973181e-26)
(19.3067937 2.5231519 0)
(20.2705408 2.66162884 3.76821716e-25)
(21.14664 2.77954756 -2.5372997e-24)
(21.9185261 2.8598602 4.80792707e-25)
(22.5747245 2.9204534 6.143377e-24)
(23.003781 2.96720512 0)
(23.1364185 3.00566098 4.30346998e-25)
(23.1849484 3.00261633 0)
(23.1976901 2.99790709 3.98200319e-25)
(23.1867939 2.99122775 -2.37179999e-25)
(23.1368653 3.00306903 -7.18126418e-25)
(23.100148 2.96892181 -1.0602458e-23)
(23.0826832 2.94600933 -1.27953786e-23)
(23.0767189 2.93931842 -6.81491211e-25)
(23.0941816 2.87196634 -6.82016459e-24)
(23.0983222 2.81679742 -1.16863641e-23)
(23.0909461 2.81893597 -7.18185525e-24)
(23.1358936 2.73757279 -1.02815344e-23)
(23.1606258 2.7032119 -1.39768717e-23)
(23.1615515 2.6723964 -1.04573475e-23)
(23.2306893 2.59770438 8.08458259e-24)
(23.441522 2.48104727 1.15846561e-23)
(23.6473415 2.50335357 -2.33601013e-24)
(23.5792172 2.56534843 1.70116607e-24)
(-0.0461538587 0.0223357066 2.51032297e-27)
(-0.137579741 0.0661080649 -7.63174665e-27)
(-0.22825334 0.109027208 -8.77164917e-30)
(-0.316690984 0.150439807 -6.1785917e-36)
(-0.401892937 0.189981345 -1.46549519e-27)
(-0.483212815 0.227458631 -1.26695801e-30)
(-0.560219804 0.262791906 4.49160478e-27)
(-0.632597751 0.295971353 -1.10689869e-35)
(-0.700084015 0.327017442 -2.3342005e-26)
(-0.762381473 0.355990727 -1.61968198e-26)
(-0.819205424 0.382925294 -5.29996356e-29)
(-0.870204919 0.407884847 -2.64265276e-26)
(-0.914977367 0.430923491 -3.27887959e-26)
(-0.953044821 0.452118609 -3.92594661e-26)
(-0.983862408 0.471450616 -4.56998081e-26)
(-1.00681546 0.489049115 5.25158191e-26)
(-1.02121242 0.504947931 6.02493725e-26)
(-1.02626076 0.5192111 3.16466059e-28)
(-1.02107035 0.531914355 0)
(-1.00468388 0.543119848 -8.65030622e-26)
(-0.975970702 0.552959444 -9.58718329e-26)
(-0.933768753 0.561545165 1.07091499e-27)
(-0.876747885 0.569034343 1.16595677e-25)
(-0.803442605 0.57560046 1.26250522e-25)
(-0.712201021 0.581454048 3.45744703e-27)
(-0.601232945 0.586848536 0)
(-0.468794407 0.591898698 -2.26585216e-27)
(-0.312866151 0.596699496 2.09528391e-28)
(-0.130848035 0.601720591 -4.10999467e-25)
(0.0802984408 0.608679659 -4.29311378e-25)
(0.314683649 0.617705967 3.70876474e-25)
(0.591666725 0.627824336 4.07811776e-25)
(0.9062735 0.639226731 1.79670121e-26)
(1.26217028 0.654077584 -5.21705636e-25)
(1.66331148 0.673114307 8.16431591e-33)
(2.11284151 0.696683924 5.39127682e-25)
(2.61435492 0.725601506 -5.56297245e-25)
(3.1714977 0.760722646 -6.03548185e-25)
(3.78751295 0.802950121 3.51526323e-26)
(4.46513784 0.853253559 -1.91987836e-26)
(5.20651403 0.912555662 -2.23412339e-26)
(6.01291366 0.981702899 -8.08846881e-25)
(6.88442512 1.06145977 -1.81021202e-24)
(7.81968328 1.15244645 -9.9214949e-25)
(8.81559857 1.25506289 -1.04458071e-24)
(9.86711124 1.36940815 -1.26380798e-24)
(10.9669979 1.4951994 0)
(12.105755 1.63167812 1.74620752e-24)
(13.2715394 1.77748831 2.01373293e-24)
(14.4501629 1.93092347 2.25112147e-24)
(15.625519 2.08967039 4.73009635e-24)
(16.7804694 2.25024744 5.0021695e-24)
(17.8958248 2.40971804 5.41582061e-24)
(18.9517779 2.56409296 5.83892848e-24)
(19.928553 2.71043939 3.1037495e-24)
(20.7979697 2.84592317 -4.74558447e-25)
(21.5517786 2.97040736 0)
(22.1679327 3.06670095 -3.29543305e-24)
(22.6981661 3.13074277 -4.63013225e-24)
(23.0290578 3.18008415 0)
(23.0907659 3.207494 -3.56732747e-24)
(23.117265 3.20384138 -2.63377916e-24)
(23.1366663 3.17940742 0)
(23.1433897 3.15920809 -3.04622339e-25)
(23.1449734 3.12934178 0)
(23.1223597 3.10783187 -8.53316203e-24)
(23.0726084 3.10732929 -1.15972846e-24)
(23.0762156 3.07926664 7.54819802e-24)
(23.0801399 3.05687936 -7.63066369e-25)
(23.0753859 3.05935061 -9.27839578e-25)
(23.0939405 3.04766238 -7.30128762e-24)
(23.1234692 3.01014456 -8.03196509e-24)
(23.1334074 3.02209957 -1.1111493e-24)
(23.1798626 2.98348247 -7.22224361e-25)
(23.278962 2.94754354 -5.24367632e-26)
(23.3027587 3.00170282 -1.32565805e-24)
(23.393126 2.9602846 9.25567292e-24)
(23.757275 2.80863225 2.24768614e-23)
(24.0104029 2.70601687 1.46734225e-23)
(24.0502901 2.68910732 -1.40052417e-24)
(-0.0499739389 0.0218129227 0)
(-0.147791401 0.0641466281 -2.07310136e-28)
(-0.243604929 0.105277969 2.1495774e-28)
(-0.335826829 0.144612986 -1.0945228e-28)
(-0.423382266 0.18183358 2.33412477e-28)
(-0.5055605 0.216785773 2.42322687e-28)
(-0.581862051 0.249431691 -1.14592984e-26)
(-0.651899755 0.279780256 0)
(-0.715300781 0.307892037 5.21627623e-28)
(-0.771686423 0.333820881 -2.62506559e-26)
(-0.820621831 0.357671502 -3.14394167e-26)
(-0.861631236 0.379516105 3.85446521e-26)
(-0.894155828 0.399444818 5.8125797e-28)
(-0.917551322 0.417549533 -1.05974419e-25)
(-0.931080164 0.433923526 -1.23135895e-25)
(-0.933901287 0.448673966 -6.96434823e-26)
(-0.925079698 0.4618857 -5.86296231e-28)
(-0.903537035 0.473712292 -8.90734936e-26)
(-0.868121391 0.484272911 -9.89429943e-26)
(-0.817526748 0.493733271 4.79265623e-28)
(-0.750310906 0.502274863 -5.27126945e-28)
(-0.664863185 0.51010657 -1.81354822e-27)
(-0.559438926 0.517456217 -1.41411199e-25)
(-0.432283294 0.524421897 -3.10049908e-25)
(-0.281014505 0.531277943 -1.83467728e-25)
(-0.103869414 0.539272314 -5.99391648e-28)
(0.0971466324 0.549099466 -1.91786373e-25)
(0.330417489 0.560344811 -4.0804847e-29)
(0.601024248 0.572590856 2.4765487e-28)
(0.908831598 0.5868306 -2.4659909e-25)
(1.25708472 0.604580518 0)
(1.64925154 0.626573669 -5.34142425e-25)
(2.0883391 0.653253749 2.81556249e-27)
(2.5777368 0.685445785 5.94935888e-25)
(3.12084722 0.724000846 6.30847262e-25)
(3.72072808 0.76981165 6.70575796e-25)
(4.37999783 0.823821085 6.80007219e-27)
(5.10072717 0.886941914 0)
(5.88420624 0.960021363 1.90383192e-26)
(6.7306652 1.04382751 -9.02992128e-25)