/*--------------------------------*- C++ -*----------------------------------*\
  =========                 |
  \\      /  F ield         | OpenFOAM: The Open Source CFD Toolbox
   \\    /   O peration     | Website:  https://openfoam.org
    \\  /    A nd           | Version:  8
     \\/     M anipulation  |
\*---------------------------------------------------------------------------*/
FoamFile
{
    version     2.0;
    format      ascii;
    class       volScalarField;
    location    "0.044";
    object      p;
}
// * * * * * * * * * * * * * * * * * * * * * * * * * * * * * * * * * * * * * //

dimensions      [1 -1 -2 0 0 0 0];

internalField   nonuniform List<scalar> 
42400
(
101429.243
101429.231
101429.217
101429.202
101429.187
101429.169
101429.151
101429.131
101429.11
101429.088
101429.064
101429.039
101429.013
101428.985
101428.956
101428.924
101428.892
101428.857
101428.821
101428.782
101428.742
101428.699
101428.653
101428.605
101428.554
101428.501
101428.444
101428.384
101428.32
101428.253
101428.182
101428.107
101428.028
101427.945
101427.858
101427.766
101427.669
101427.576
101427.485
101427.383
101427.26
101427.122
101426.978
101426.842
101426.709
101426.573
101426.431
101426.285
101426.134
101425.977
101425.813
101425.658
101425.511
101425.367
101425.196
101424.999
101424.818
101424.651
101424.489
101424.317
101424.14
101423.962
101423.785
101423.613
101423.456
101423.333
101423.234
101423.149
101423.191
101423.273
101423.357
101423.993
101424.369
101423.163
101423.72
101425.454
101426.516
101428.712
101433.975
101436.452
101429.281
101429.272
101429.261
101429.249
101429.236
101429.222
101429.206
101429.189
101429.171
101429.152
101429.132
101429.11
101429.087
101429.063
101429.037
101429.01
101428.981
101428.951
101428.919
101428.885
101428.849
101428.811
101428.771
101428.729
101428.684
101428.636
101428.586
101428.533
101428.477
101428.418
101428.355
101428.289
101428.219
101428.144
101428.07
101428.001
101427.93
101427.84
101427.731
101427.616
101427.508
101427.406
101427.3
101427.19
101427.078
101426.961
101426.839
101426.711
101426.593
101426.491
101426.372
101426.218
101426.067
101425.939
101425.823
101425.701
101425.578
101425.456
101425.339
101425.23
101425.137
101425.065
101425.024
101425.01
101425.013
101425.064
101425.185
101425.374
101425.757
101426.363
101427.031
101428.08
101429.585
101430.044
101430.38
101435.25
101442.218
101444.061
101444.338
101446.376
101429.465
101429.458
101429.45
101429.44
101429.43
101429.418
101429.406
101429.392
101429.377
101429.361
101429.345
101429.327
101429.307
101429.287
101429.266
101429.243
101429.219
101429.194
101429.167
101429.139
101429.109
101429.078
101429.045
101429.009
101428.972
101428.933
101428.891
101428.848
101428.801
101428.752
101428.702
101428.652
101428.601
101428.549
101428.485
101428.408
101428.325
101428.246
101428.172
101428.095
101428.014
101427.929
101427.841
101427.748
101427.655
101427.573
101427.498
101427.401
101427.282
101427.179
101427.09
101427
101426.907
101426.814
101426.726
101426.644
101426.574
101426.525
101426.499
101426.494
101426.521
101426.585
101426.702
101426.891
101427.136
101427.476
101427.894
101428.455
101429.134
101430.182
101431.383
101432.355
101435.021
101440.192
101443.947
101444.961
101445.766
101447.589
101451.151
101454.052
101429.801
101429.796
101429.789
101429.781
101429.773
101429.764
101429.753
101429.742
101429.73
101429.718
101429.704
101429.69
101429.675
101429.659
101429.642
101429.625
101429.606
101429.587
101429.567
101429.546
101429.523
101429.5
101429.476
101429.45
101429.423
101429.394
101429.363
101429.332
101429.299
101429.266
101429.23
101429.188
101429.14
101429.089
101429.039
101428.991
101428.941
101428.887
101428.831
101428.772
101428.71
101428.645
101428.591
101428.547
101428.473
101428.379
101428.311
101428.252
101428.188
101428.122
101428.056
101427.995
101427.941
101427.901
101427.878
101427.871
101427.885
101427.923
101428.005
101428.135
101428.324
101428.584
101428.945
101429.424
101429.99
101430.687
101431.451
101432.427
101433.223
101434.339
101437.352
101441.814
101443.415
101443.702
101445.906
101448.72
101450.793
101452.309
101454.054
101456.699
101430.272
101430.267
101430.261
101430.254
101430.247
101430.239
101430.23
101430.221
101430.212
101430.202
101430.191
101430.181
101430.17
101430.158
101430.147
101430.134
101430.122
101430.109
101430.096
101430.083
101430.069
101430.055
101430.039
101430.022
101430.005
101429.988
101429.971
101429.952
101429.932
101429.909
101429.885
101429.861
101429.837
101429.812
101429.784
101429.755
101429.724
101429.691
101429.65
101429.618
101429.601
101429.557
101429.495
101429.454
101429.423
101429.382
101429.339
101429.299
101429.264
101429.238
101429.221
101429.215
101429.222
101429.247
101429.299
101429.384
101429.515
101429.698
101429.944
101430.267
101430.692
101431.201
101431.86
101432.641
101433.624
101434.589
101435.517
101437.221
101440.812
101443.283
101444.005
101444.978
101447.158
101449.454
101451.056
101452.92
101455.022
101456.71
101459.298
101462.187
101430.845
101430.84
101430.834
101430.827
101430.82
101430.813
101430.806
101430.799
101430.791
101430.784
101430.776
101430.769
101430.762
101430.755
101430.749
101430.743
101430.737
101430.731
101430.724
101430.717
101430.71
101430.705
101430.701
101430.699
101430.696
101430.692
101430.689
101430.685
101430.68
101430.675
101430.669
101430.662
101430.655
101430.646
101430.636
101430.621
101430.612
101430.618
101430.605
101430.574
101430.559
101430.552
101430.537
101430.521
101430.509
101430.5
101430.497
101430.501
101430.513
101430.538
101430.581
101430.647
101430.742
101430.871
101431.044
101431.27
101431.556
101431.92
101432.375
101432.918
101433.592
101434.344
101435.24
101435.979
101437.189
101439.928
101443.215
101444.585
101444.846
101446.43
101448.361
101449.611
101451.32
101453.452
101455.491
101457.804
101460.267
101462.532
101465.375
101467.524
101431.474
101431.468
101431.461
101431.455
101431.448
101431.442
101431.436
101431.43
101431.425
101431.42
101431.416
101431.412
101431.41
101431.408
101431.407
101431.405
101431.404
101431.405
101431.409
101431.414
101431.421
101431.427
101431.434
101431.441
101431.449
101431.457
101431.466
101431.475
101431.485
101431.495
101431.505
101431.514
101431.52
101431.532
101431.558
101431.568
101431.562
101431.571
101431.588
101431.599
101431.61
101431.624
101431.64
101431.661
101431.688
101431.723
101431.771
101431.835
101431.92
101432.03
101432.17
101432.347
101432.57
101432.848
101433.189
101433.611
101434.115
101434.715
101435.391
101436.15
101436.979
101437.898
101439.525
101442.519
101444.788
101445.331
101445.664
101447.376
101449.072
101450.567
101452.665
101454.519
101456.487
101458.771
101460.932
101463.184
101465.524
101467.681
101470.077
101472.439
101432.104
101432.098
101432.091
101432.084
101432.079
101432.074
101432.069
101432.066
101432.063
101432.061
101432.061
101432.062
101432.064
101432.067
101432.072
101432.079
101432.088
101432.098
101432.109
101432.122
101432.136
101432.151
101432.168
101432.187
101432.207
101432.228
101432.251
101432.275
101432.299
101432.32
101432.349
101432.389
101432.417
101432.433
101432.462
101432.498
101432.531
101432.564
101432.599
101432.638
101432.681
101432.73
101432.788
101432.857
101432.941
101433.043
101433.167
101433.32
101433.507
101433.733
101434.006
101434.338
101434.736
101435.22
101435.791
101436.455
101437.21
101438.084
101439.005
101440.019
101441.812
101444.32
101445.961
101446.509
101447.192
101448.811
101451.057
101452.878
101454.237
101456.314
101458.15
101459.746
101461.849
101463.946
101466.001
101468.035
101470.258
101472.588
101475.278
101477.539
101432.677
101432.671
101432.665
101432.66
101432.656
101432.653
101432.651
101432.651
101432.652
101432.654
101432.659
101432.665
101432.673
101432.683
101432.695
101432.709
101432.725
101432.743
101432.763
101432.786
101432.81
101432.837
101432.866
101432.897
101432.93
101432.964
101432.997
101433.036
101433.088
101433.129
101433.161
101433.206
101433.257
101433.306
101433.356
101433.409
101433.466
101433.527
101433.595
101433.67
101433.756
101433.854
101433.97
101434.105
101434.267
101434.458
101434.687
101434.958
101435.279
101435.658
101436.107
101436.641
101437.266
101437.989
101438.811
101439.714
101440.735
101441.944
101443.813
101445.937
101446.886
101447.497
101448.869
101450.653
101452.573
101454.083
101455.473
101457.057
101458.637
101460.192
101461.921
101464.071
101466.12
101468.13
101470.214
101472.34
101474.454
101476.677
101479.266
101481.577
101433.132
101433.128
101433.124
101433.121
101433.12
101433.121
101433.123
101433.128
101433.135
101433.143
101433.154
101433.167
101433.182
101433.2
101433.22
101433.243
101433.269
101433.297
101433.328
101433.362
101433.398
101433.438
101433.479
101433.52
101433.568
101433.626
101433.678
101433.722
101433.778
101433.841
101433.902
101433.965
101434.032
101434.103
101434.178
101434.259
101434.347
101434.445
101434.554
101434.678
101434.82
101434.984
101435.175
101435.399
101435.661
101435.968
101436.326
101436.744
101437.232
101437.801
101438.464
101439.224
101440.088
101441.053
101442.151
101443.281
101444.757
101446.303
101447.357
101448.489
101450.306
101451.965
101453.101
101454.137
101455.389
101457.112
101458.714
101460.335
101462.251
101464.217
101466.26
101468.328
101470.413
101472.419
101474.494
101476.591
101478.511
101480.375
101482.881
101485.573
101433.42
101433.419
101433.418
101433.42
101433.424
101433.429
101433.438
101433.448
101433.461
101433.477
101433.495
101433.517
101433.541
101433.569
101433.6
101433.633
101433.67
101433.711
101433.755
101433.8
101433.848
101433.902
101433.965
101434.025
101434.079
101434.144
101434.216
101434.287
101434.361
101434.439
101434.52
101434.606
101434.698
101434.796
101434.903
101435.02
101435.149
101435.294
101435.458
101435.646
101435.861
101436.11
101436.399
101436.732
101437.119
101437.564
101438.076
101438.665
101439.342
101440.109
101440.969
101441.919
101442.959
101444.077
101445.295
101446.701
101447.915
101449.127
101450.52
101451.854
101453.248
101454.635
101456.105
101457.623
101459.195
101460.813
101462.309
101463.976
101466.141
101468.366
101470.586
101472.975
101475.392
101477.393
101479.471
101481.747
101484.296
101487.074
101488.964
101490.5
101433.476
101433.479
101433.484
101433.491
101433.501
101433.514
101433.529
101433.548
101433.569
101433.595
101433.623
101433.656
101433.691
101433.731
101433.774
101433.821
101433.871
101433.925
101433.988
101434.056
101434.118
101434.181
101434.254
101434.333
101434.413
101434.497
101434.584
101434.676
101434.772
101434.873
101434.98
101435.095
101435.219
101435.354
101435.502
101435.667
101435.852
101436.06
101436.297
101436.569
101436.879
101437.236
101437.645
101438.113
101438.646
101439.25
101439.934
101440.704
101441.561
101442.504
101443.526
101444.632
101445.799
101447.047
101448.327
101449.603
101451.002
101452.389
101453.707
101455.008
101456.435
101458.12
101460.035
101462.048
101464.22
101466.434
101468.542
101470.28
101471.726
101473.374
101475.029
101476.619
101478.412
101480.773
101483.498
101485.678
101487.617
101489.632
101491.778
101494.258
101433.235
101433.244
101433.256
101433.271
101433.289
101433.311
101433.336
101433.364
101433.397
101433.434
101433.475
101433.52
101433.57
101433.623
101433.681
101433.747
101433.814
101433.882
101433.957
101434.039
101434.124
101434.212
101434.304
101434.401
101434.502
101434.608
101434.719
101434.836
101434.96
101435.093
101435.235
101435.389
101435.558
101435.743
101435.95
101436.181
101436.441
101436.736
101437.072
101437.453
101437.886
101438.378
101438.935
101439.561
101440.263
101441.048
101441.919
101442.876
101443.916
101445.033
101446.221
101447.48
101448.832
101450.258
101451.705
101453.168
101454.677
101456.253
101457.907
101459.6
101461.298
101463.009
101464.707
101466.435
101468.154
101470.001
101472.037
101473.886
101475.435
101476.884
101478.447
101480.53
101482.827
101485.174
101487.186
101489.303
101492.097
101494.048
101495.678
101497.85
101432.618
101432.635
101432.656
101432.681
101432.709
101432.742
101432.779
101432.82
101432.867
101432.917
101432.972
101433.033
101433.1
101433.171
101433.244
101433.325
101433.411
101433.501
101433.596
101433.697
101433.802
101433.912
101434.028
101434.149
101434.276
101434.411
101434.553
101434.705
101434.868
101435.044
101435.235
101435.445
101435.677
101435.935
101436.223
101436.547
101436.912
101437.323
101437.786
101438.306
101438.89
101439.541
101440.263
101441.059
101441.931
101442.884
101443.916
101445.027
101446.214
101447.452
101448.795
101450.243
101451.698
101453.169
101454.641
101456.156
101457.673
101459.228
101460.96
101462.731
101464.476
101466.253
101467.929
101469.541
101471.123
101472.669
101474.459
101476.478
101478.538
101480.499
101482.17
101484.168
101486.664
101488.865
101491.355
101493.73
101495.437
101497.244
101499.158
101501.516
101431.551
101431.578
101431.611
101431.647
101431.688
101431.734
101431.785
101431.841
101431.902
101431.97
101432.042
101432.118
101432.201
101432.29
101432.385
101432.484
101432.59
101432.701
101432.817
101432.94
101433.069
101433.205
101433.348
101433.499
101433.659
101433.83
101434.013
101434.21
101434.425
101434.66
101434.918
101435.204
101435.523
101435.878
101436.275
101436.721
101437.219
101437.775
101438.394
101439.08
101439.835
101440.661
101441.559
101442.516
101443.529
101444.565
101445.66
101446.993
101448.45
101449.731
101451.217
101452.998
101454.664
101455.967
101457.314
101458.91
101460.275
101461.733
101463.532
101465.212
101466.5
101468.015
101470.13
101472.337
101474.554
101476.408
101478.22
101480.141
101482.229
101484.334
101486.573
101488.613
101489.984
101491.797
101494.31
101496.571
101498.638
101500.277
101502.355
101505.185
101429.96
101429.999
101430.046
101430.097
101430.152
101430.213
101430.28
101430.352
101430.43
101430.514
101430.604
101430.7
101430.802
101430.91
101431.025
101431.146
101431.273
101431.407
101431.549
101431.698
101431.855
101432.022
101432.199
101432.389
101432.592
101432.812
101433.051
101433.312
101433.598
101433.915
101434.266
101434.657
101435.092
101435.576
101436.114
101436.71
101437.367
101438.089
101438.877
101439.73
101440.648
101441.63
101442.673
101443.804
101445.25
101447.135
101448.923
101450.355
101451.618
101452.924
101454.213
101455.45
101456.738
101458.357
101460.093
101461.725
101463.684
101465.314
101466.691
101468.621
101471.115
101473.252
101474.828
101475.915
101476.876
101478.617
101481.129
101483.383
101485.531
101487.684
101489.744
101492.092
101494.696
101496.281
101497.299
101499.391
101501.774
101504.075
101505.805
101507.553
101427.802
101427.855
101427.918
101427.984
101428.055
101428.132
101428.215
101428.305
101428.4
101428.501
101428.61
101428.724
101428.845
101428.974
101429.109
101429.252
101429.403
101429.562
101429.731
101429.911
101430.103
101430.309
101430.531
101430.771
101431.034
101431.322
101431.639
101431.991
101432.381
101432.817
101433.302
101433.844
101434.448
101435.118
101435.861
101436.68
101437.579
101438.558
101439.619
101440.758
101441.971
101443.247
101444.571
101445.944
101447.48
101448.79
101450.054
101451.585
101453.143
101454.736
101456.12
101457.325
101458.738
101460.524
101462.371
101464.164
101466.091
101468.054
101469.726
101471.622
101473.789
101475.406
101476.671
101478.482
101481.15
101482.835
101484.22
101486.163
101488.697
101491.092
101493.673
101495.709
101497.755
101500.643
101502.241
101504.309
101507.201
101509.01
101510.424
101512.814
101425.063
101425.131
101425.211
101425.294
101425.382
101425.476
101425.576
101425.682
101425.795
101425.914
101426.039
101426.172
101426.312
101426.46
101426.616
101426.782
101426.957
101427.144
101427.343
101427.557
101427.788
101428.039
101428.312
101428.612
101428.942
101429.307
101429.711
101430.16
101430.659
101431.214
101431.828
101432.507
101433.255
101434.074
101434.966
101435.934
101436.978
101438.1
101439.306
101440.601
101441.996
101443.453
101444.989
101446.611
101448.014
101449.411
101450.998
101452.551
101454.082
101455.678
101457.389
101459.075
101460.798
101462.619
101464.356
101465.869
101467.385
101469.393
101471.93
101474.281
101476.677
101478.717
101480.391
101481.875
101483.218
101485.858
101488.664
101490.47
101492.349
101494.471
101496.737
101499.103
101501.886
101504.229
101506.375
101508.866
101510.972
101512.776
101515.223
101517.591
101421.772
101421.856
101421.954
101422.054
101422.158
101422.268
101422.383
101422.505
101422.633
101422.768
101422.91
101423.06
101423.218
101423.385
101423.563
101423.752
101423.955
101424.174
101424.41
101424.667
101424.949
101425.258
101425.6
101425.979
101426.4
101426.868
101427.389
101427.968
101428.609
101429.317
101430.095
101430.944
101431.865
101432.856
101433.913
101435.025
101436.178
101437.34
101438.519
101439.677
101441.185
101443.143
101445.013
101446.828
101448.624
101450.549
101452.549
101454.443
101456.375
101458.416
101460.462
101462.563
101464.701
101466.679
101468.708
101470.99
101472.881
101474.625
101475.817
101477.108
101478.356
101479.898
101482.811
101485.59
101487.862
101489.218
101490.885
101493.581
101496.401
101498.46
101500.124
101501.988
101503.89
101506.309
101509.507
101511.056
101511.98
101513.855
101516.132
101517.999
101418.091
101418.191
101418.308
101418.425
101418.547
101418.674
101418.807
101418.947
101419.095
101419.25
101419.414
101419.587
101419.773
101419.971
101420.183
101420.414
101420.664
101420.937
101421.238
101421.57
101421.937
101422.346
101422.801
101423.309
101423.874
101424.502
101425.2
101425.971
101426.82
101427.75
101428.764
101429.864
101431.051
101432.328
101433.699
101435.163
101436.709
101438.39
101440.616
101443.522
101445.806
101447.461
101449.124
101450.742
101452.33
101453.946
101455.654
101457.446
101459.18
101461.184
101463.21
101464.801
101466.424
101468.204
101469.956
101471.654
101474.081
101476.515
101478.594
101480.384
101482.648
101485.351
101487.062
101488.881
101491.054
101493.365
101495.142
101496.424
101497.817
101500.165
101503.077
101505.884
101508.109
101509.714
101511.065
101512.431
101514.858
101517.22
101519.043
101521.014
101442.167
101442.172
101442.178
101442.183
101442.187
101442.192
101442.196
101442.199
101442.202
101442.204
101442.206
101442.208
101442.209
101442.209
101442.209
101442.208
101442.207
101442.204
101442.202
101442.198
101442.193
101442.188
101442.182
101442.175
101442.166
101442.157
101442.146
101442.135
101442.121
101442.107
101442.091
101442.073
101442.054
101442.033
101442.009
101441.984
101441.957
101441.927
101441.894
101441.859
101441.821
101441.779
101441.734
101441.684
101441.63
101441.572
101441.508
101441.437
101441.361
101441.276
101441.183
101441.083
101440.973
101440.849
101440.712
101440.558
101440.387
101440.195
101439.98
101439.738
101439.465
101439.154
101438.801
101438.397
101437.935
101437.407
101436.808
101436.135
101435.387
101434.556
101433.612
101432.561
101431.408
101430.257
101429.136
101427.868
101426.416
101424.88
101423.219
101420.516
101441.519
101441.524
101441.528
101441.533
101441.537
101441.541
101441.544
101441.547
101441.55
101441.553
101441.556
101441.558
101441.559
101441.561
101441.562
101441.563
101441.563
101441.563
101441.562
101441.561
101441.56
101441.558
101441.555
101441.552
101441.548
101441.544
101441.538
101441.532
101441.525
101441.518
101441.509
101441.499
101441.489
101441.477
101441.464
101441.449
101441.433
101441.416
101441.397
101441.376
101441.353
101441.328
101441.301
101441.272
101441.239
101441.201
101441.16
101441.116
101441.067
101441.014
101440.953
101440.886
101440.81
101440.724
101440.628
101440.519
101440.396
101440.256
101440.097
101439.915
101439.705
101439.462
101439.18
101438.852
101438.469
101438.026
101437.518
101436.944
101436.3
101435.582
101434.792
101433.925
101432.981
101431.919
101430.726
101429.433
101427.864
101425.74
101422.995
101419.986
101440.918
101440.921
101440.925
101440.929
101440.932
101440.935
101440.939
101440.942
101440.945
101440.948
101440.951
101440.954
101440.957
101440.96
101440.963
101440.966
101440.968
101440.971
101440.973
101440.975
101440.978
101440.98
101440.981
101440.983
101440.984
101440.986
101440.987
101440.988
101440.988
101440.989
101440.989
101440.989
101440.988
101440.987
101440.986
101440.984
101440.982
101440.981
101440.978
101440.975
101440.97
101440.964
101440.957
101440.95
101440.941
101440.932
101440.92
101440.906
101440.89
101440.87
101440.846
101440.818
101440.784
101440.743
101440.694
101440.636
101440.567
101440.485
101440.386
101440.269
101440.127
101439.957
101439.752
101439.507
101439.214
101438.87
101438.467
101437.999
101437.46
101436.846
101436.159
101435.397
101434.455
101433.258
101432.088
101430.574
101428.69
101426.617
101424.181
101421.914
101440.335
101440.337
101440.34
101440.343
101440.345
101440.348
101440.351
101440.355
101440.358
101440.362
101440.365
101440.369
101440.373
101440.378
101440.382
101440.387
101440.392
101440.397
101440.402
101440.408
101440.414
101440.42
101440.426
101440.432
101440.439
101440.447
101440.454
101440.462
101440.47
101440.479
101440.487
101440.497
101440.507
101440.518
101440.529
101440.54
101440.552
101440.564
101440.576
101440.59
101440.604
101440.619
101440.634
101440.65
101440.666
101440.682
101440.698
101440.714
101440.73
101440.744
101440.757
101440.767
101440.775
101440.779
101440.778
101440.771
101440.757
101440.733
101440.698
101440.647
101440.578
101440.483
101440.358
101440.194
101439.983
101439.717
101439.388
101438.993
101438.535
101438.028
101437.479
101436.718
101436.032
101435.226
101433.715
101432.507
101431.057
101429.075
101426.998
101424.699
101439.744
101439.745
101439.747
101439.749
101439.751
101439.753
101439.756
101439.759
101439.763
101439.767
101439.771
101439.776
101439.781
101439.786
101439.793
101439.799
101439.806
101439.814
101439.822
101439.83
101439.839
101439.849
101439.86
101439.871
101439.882
101439.895
101439.908
101439.922
101439.938
101439.955
101439.973
101439.991
101440.01
101440.03
101440.051
101440.075
101440.1
101440.126
101440.154
101440.184
101440.215
101440.248
101440.283
101440.32
101440.358
101440.398
101440.439
101440.482
101440.526
101440.571
101440.617
101440.663
101440.708
101440.752
101440.794
101440.832
101440.867
101440.895
101440.914
101440.921
101440.912
101440.879
101440.816
101440.71
101440.553
101440.331
101440.037
101439.662
101439.198
101438.62
101437.767
101436.748
101436.083
101435.662
101434.591
101433.32
101432.232
101431.018
101429.942
101427.979
101439.121
101439.121
101439.122
101439.123
101439.124
101439.126
101439.128
101439.131
101439.135
101439.139
101439.143
101439.148
101439.154
101439.161
101439.168
101439.175
101439.184
101439.193
101439.203
101439.214
101439.226
101439.238
101439.252
101439.266
101439.283
101439.3
101439.318
101439.337
101439.357
101439.378
101439.401
101439.426
101439.453
101439.481
101439.512
101439.545
101439.58
101439.617
101439.656
101439.698
101439.742
101439.79
101439.84
101439.892
101439.948
101440.006
101440.067
101440.13
101440.197
101440.265
101440.336
101440.409
101440.483
101440.559
101440.634
101440.71
101440.783
101440.855
101440.921
101440.979
101441.025
101441.052
101441.051
101441.013
101440.924
101440.775
101440.552
101440.241
101439.821
101439.257
101438.5
101437.556
101436.482
101435.448
101434.489
101433.286
101432.06
101430.749
101429.022
101427.025
101438.442
101438.442
101438.441
101438.441
101438.442
101438.443
101438.445
101438.448
101438.451
101438.455
101438.459
101438.464
101438.471
101438.477
101438.485
101438.493
101438.502
101438.512
101438.524
101438.535
101438.548
101438.562
101438.577
101438.594
101438.611
101438.629
101438.649
101438.671
101438.694
101438.72
101438.747
101438.775
101438.806
101438.839
101438.875
101438.912
101438.953
101438.996
101439.042
101439.091
101439.142
101439.198
101439.256
101439.318
101439.383
101439.452
101439.523
101439.598
101439.677
101439.758
101439.843
101439.931
101440.022
101440.115
101440.21
101440.308
101440.406
101440.505
101440.602
101440.695
101440.78
101440.849
101440.894
101440.901
101440.857
101440.744
101440.542
101440.226
101439.773
101439.162
101438.394
101437.502
101436.521
101435.454
101434.296
101433.02
101431.569
101429.878
101428.09
101426.437
101437.702
101437.7
101437.699
101437.698
101437.698
101437.698
101437.699
101437.701
101437.703
101437.706
101437.709
101437.714
101437.718
101437.724
101437.731
101437.739
101437.747
101437.756
101437.766
101437.777
101437.79
101437.803
101437.818
101437.834
101437.851
101437.87
101437.89
101437.911
101437.935
101437.959
101437.986
101438.015
101438.046
101438.079
101438.114
101438.151
101438.192
101438.235
101438.281
101438.329
101438.381
101438.437
101438.495
101438.557
101438.622
101438.69
101438.762
101438.837
101438.915
101438.995
101439.079
101439.165
101439.254
101439.345
101439.439
101439.534
101439.631
101439.728
101439.823
101439.912
101439.989
101440.047
101440.073
101440.052
101439.965
101439.792
101439.513
101439.11
101438.567
101437.883
101437.073
101436.165
101435.177
101434.113
101432.974
101431.767
101430.534
101429.375
101428.33
101426.966
101436.891
101436.888
101436.886
101436.884
101436.882
101436.882
101436.881
101436.881
101436.882
101436.883
101436.885
101436.888
101436.891
101436.895
101436.9
101436.906
101436.912
101436.919
101436.927
101436.936
101436.946
101436.957
101436.969
101436.982
101436.996
101437.011
101437.027
101437.045
101437.064
101437.085
101437.107
101437.131
101437.157
101437.184
101437.213
101437.245
101437.278
101437.314
101437.352
101437.392
101437.435
101437.48
101437.528
101437.578
101437.631
101437.686
101437.743
101437.803
101437.864
101437.927
101437.991
101438.056
101438.12
101438.185
101438.248
101438.309
101438.367
101438.42
101438.466
101438.505
101438.529
101438.529
101438.492
101438.402
101438.239
101437.987
101437.625
101437.133
101436.489
101435.693
101434.781
101433.774
101432.69
101431.542
101430.34
101429.097
101427.849
101426.669
101425.491
101423.941
101436.019
101436.016
101436.012
101436.009
101436.006
101436.004
101436.002
101436
101435.999
101435.998
101435.998
101435.998
101435.999
101436
101436.002
101436.005
101436.008
101436.011
101436.015
101436.02
101436.025
101436.031
101436.038
101436.046
101436.054
101436.063
101436.073
101436.083
101436.095
101436.108
101436.121
101436.136
101436.151
101436.168
101436.186
101436.205
101436.225
101436.247
101436.27
101436.294
101436.319
101436.346
101436.373
101436.402
101436.432
101436.462
101436.492
101436.522
101436.552
101436.581
101436.609
101436.635
101436.66
101436.685
101436.708
101436.729
101436.746
101436.758
101436.76
101436.739
101436.689
101436.603
101436.469
101436.274
101435.999
101435.623
101435.116
101434.45
101433.631
101432.672
101431.602
101430.442
101429.201
101427.881
101426.483
101425.016
101423.534
101422.118
101420.779
101419.257
101435.106
101435.102
101435.097
101435.092
101435.088
101435.084
101435.08
101435.076
101435.072
101435.068
101435.065
101435.062
101435.059
101435.056
101435.054
101435.052
101435.05
101435.048
101435.046
101435.045
101435.044
101435.043
101435.042
101435.042
101435.041
101435.041
101435.041
101435.042
101435.042
101435.042
101435.043
101435.044
101435.044
101435.045
101435.046
101435.047
101435.047
101435.047
101435.047
101435.046
101435.045
101435.042
101435.039
101435.034
101435.027
101435.02
101435.011
101435.001
101434.989
101434.974
101434.957
101434.934
101434.901
101434.859
101434.807
101434.744
101434.669
101434.581
101434.48
101434.357
101434.205
101434.01
101433.756
101433.427
101433
101432.456
101431.769
101430.929
101429.939
101428.802
101427.536
101426.176
101424.735
101423.211
101421.631
101419.874
101418.223
101416.743
101415.366
101413.761
101434.178
101434.173
101434.167
101434.16
101434.154
101434.147
101434.141
101434.134
101434.127
101434.12
101434.113
101434.106
101434.099
101434.091
101434.084
101434.076
101434.068
101434.06
101434.052
101434.043
101434.034
101434.025
101434.015
101434.005
101433.995
101433.984
101433.972
101433.96
101433.947
101433.933
101433.918
101433.903
101433.886
101433.867
101433.848
101433.826
101433.804
101433.779
101433.752
101433.723
101433.693
101433.66
101433.625
101433.586
101433.542
101433.491
101433.432
101433.366
101433.292
101433.209
101433.116
101433.015
101432.902
101432.777
101432.636
101432.477
101432.296
101432.09
101431.852
101431.583
101431.276
101430.924
101430.507
101430.006
101429.411
101428.716
101427.88
101426.909
101425.803
101424.58
101423.19
101421.656
101419.974
101418.247
101416.168
101414.02
101412.396
101410.898
101409.269
101407.582
101433.271
101433.264
101433.255
101433.247
101433.238
101433.229
101433.219
101433.209
101433.199
101433.188
101433.177
101433.165
101433.153
101433.14
101433.127
101433.113
101433.098
101433.083
101433.067
101433.051
101433.033
101433.015
101432.995
101432.975
101432.953
101432.93
101432.905
101432.879
101432.851
101432.821
101432.789
101432.755
101432.719
101432.681
101432.641
101432.598
101432.552
101432.502
101432.448
101432.387
101432.32
101432.248
101432.169
101432.083
101431.992
101431.894
101431.788
101431.671
101431.543
101431.4
101431.244
101431.07
101430.879
101430.67
101430.444
101430.197
101429.927
101429.628
101429.296
101428.921
101428.493
101428.005
101427.447
101426.835
101426.104
101425.221
101424.222
101423.104
101421.868
101420.33
101418.366
101416.422
101414.71
101413.008
101411.224
101409.613
101408.11
101406.701
101405.396
101404.293
101432.41
101432.401
101432.391
101432.38
101432.368
101432.356
101432.343
101432.33
101432.315
101432.3
101432.285
101432.268
101432.251
101432.232
101432.213
101432.193
101432.172
101432.15
101432.126
101432.102
101432.076
101432.048
101432.019
101431.988
101431.955
101431.921
101431.885
101431.846
101431.805
101431.761
101431.715
101431.665
101431.61
101431.551
101431.487
101431.419
101431.345
101431.266
101431.183
101431.095
101431
101430.898
101430.786
101430.666
101430.535
101430.393
101430.241
101430.077
101429.901
101429.712
101429.507
101429.285