/*--------------------------------*- C++ -*----------------------------------*\
  =========                 |
  \\      /  F ield         | OpenFOAM: The Open Source CFD Toolbox
   \\    /   O peration     | Website:  https://openfoam.org
    \\  /    A nd           | Version:  8
     \\/     M anipulation  |
\*---------------------------------------------------------------------------*/
FoamFile
{
    version     2.0;
    format      ascii;
    class       volScalarField;
    location    "0.044";
    object      p_rgh;
}
// * * * * * * * * * * * * * * * * * * * * * * * * * * * * * * * * * * * * * //

dimensions      [1 -1 -2 0 0 0 0];

internalField   nonuniform List<scalar> 
42400
(
101429.512
101429.5
101429.486
101429.471
101429.455
101429.438
101429.42
101429.4
101429.379
101429.357
101429.333
101429.308
101429.282
101429.254
101429.225
101429.194
101429.161
101429.127
101429.091
101429.052
101429.012
101428.969
101428.924
101428.876
101428.825
101428.772
101428.715
101428.655
101428.592
101428.525
101428.454
101428.38
101428.301
101428.218
101428.13
101428.038
101427.942
101427.848
101427.757
101427.657
101427.537
101427.398
101427.254
101427.117
101426.984
101426.848
101426.706
101426.56
101426.41
101426.254
101426.09
101425.932
101425.785
101425.641
101425.47
101425.274
101425.093
101424.926
101424.764
101424.593
101424.417
101424.241
101424.066
101423.896
101423.742
101423.624
101423.53
101423.458
101423.508
101423.578
101423.705
101424.314
101424.486
101423.47
101424.427
101426.049
101426.928
101429.12
101434.028
101436.3
101429.552
101429.543
101429.532
101429.52
101429.507
101429.493
101429.477
101429.461
101429.443
101429.424
101429.403
101429.382
101429.359
101429.334
101429.309
101429.282
101429.253
101429.223
101429.191
101429.157
101429.122
101429.084
101429.044
101429.002
101428.957
101428.91
101428.86
101428.807
101428.751
101428.692
101428.629
101428.564
101428.494
101428.419
101428.346
101428.277
101428.206
101428.117
101428.008
101427.893
101427.785
101427.682
101427.577
101427.467
101427.354
101427.237
101427.116
101426.987
101426.869
101426.767
101426.652
101426.501
101426.347
101426.219
101426.103
101425.982
101425.859
101425.739
101425.621
101425.513
101425.421
101425.351
101425.31
101425.298
101425.304
101425.361
101425.488
101425.693
101426.103
101426.699
101427.385
101428.463
101429.821
101430.211
101430.736
101435.611
101442.169
101443.844
101444.522
101446.964
101429.739
101429.732
101429.723
101429.714
101429.703
101429.692
101429.679
101429.666
101429.651
101429.635
101429.618
101429.6
101429.581
101429.561
101429.54
101429.517
101429.494
101429.468
101429.442
101429.414
101429.384
101429.353
101429.32
101429.285
101429.248
101429.209
101429.168
101429.124
101429.078
101429.029
101428.979
101428.929
101428.879
101428.827
101428.764
101428.687
101428.604
101428.526
101428.452
101428.375
101428.295
101428.211
101428.123
101428.031
101427.937
101427.854
101427.78
101427.684
101427.565
101427.462
101427.373
101427.285
101427.192
101427.1
101427.012
101426.931
101426.862
101426.814
101426.788
101426.785
101426.812
101426.877
101426.994
101427.181
101427.424
101427.769
101428.191
101428.764
101429.477
101430.546
101431.725
101432.725
101435.401
101440.327
101444.01
101445.141
101446.104
101447.955
101451.643
101454.715
101430.077
101430.072
101430.065
101430.057
101430.049
101430.039
101430.029
101430.018
101430.006
101429.994
101429.98
101429.966
101429.951
101429.935
101429.919
101429.901
101429.883
101429.864
101429.844
101429.823
101429.801
101429.778
101429.754
101429.728
101429.701
101429.673
101429.643
101429.611
101429.579
101429.547
101429.511
101429.469
101429.422
101429.371
101429.321
101429.273
101429.224
101429.171
101429.115
101429.058
101428.996
101428.931
101428.875
101428.831
101428.76
101428.669
101428.6
101428.541
101428.478
101428.412
101428.347
101428.287
101428.233
101428.194
101428.172
101428.166
101428.18
101428.22
101428.302
101428.433
101428.623
101428.885
101429.248
101429.724
101430.281
101430.972
101431.727
101432.697
101433.506
101434.713
101437.819
101442.171
101443.748
101444.145
101446.319
101449.132
101451.339
101453.096
101454.963
101457.396
101430.55
101430.545
101430.538
101430.532
101430.525
101430.517
101430.508
101430.499
101430.489
101430.48
101430.469
101430.459
101430.448
101430.437
101430.425
101430.413
101430.401
101430.389
101430.376
101430.363
101430.349
101430.335
101430.32
101430.303
101430.286
101430.27
101430.253
101430.235
101430.215
101430.192
101430.168
101430.145
101430.122
101430.097
101430.07
101430.041
101430.011
101429.977
101429.938
101429.906
101429.889
101429.847
101429.786
101429.746
101429.714
101429.674
101429.633
101429.594
101429.559
101429.534
101429.518
101429.512
101429.521
101429.547
101429.599
101429.685
101429.817
101430.001
101430.247
101430.572
101430.998
101431.512
101432.178
101432.968
101433.947
101434.921
101435.849
101437.533
101441.112
101443.625
101444.406
101445.322
101447.536
101449.888
101451.584
101453.516
101455.485
101457.22
101459.797
101462.715
101431.124
101431.119
101431.112
101431.106
101431.099
101431.092
101431.085
101431.078
101431.07
101431.063
101431.056
101431.049
101431.042
101431.035
101431.029
101431.023
101431.017
101431.012
101431.006
101430.999
101430.992
101430.987
101430.984
101430.982
101430.979
101430.976
101430.973
101430.969
101430.965
101430.961
101430.956
101430.949
101430.942
101430.934
101430.925
101430.91
101430.902
101430.909
101430.897
101430.866
101430.852
101430.845
101430.831
101430.816
101430.805
101430.797
101430.795
101430.8
101430.813
101430.839
101430.883
101430.949
101431.045
101431.174
101431.348
101431.574
101431.862
101432.228
101432.684
101433.228
101433.901
101434.647
101435.545
101436.301
101437.523
101440.232
101443.533
101444.96
101445.225
101446.759
101448.677
101450.05
101451.83
101453.865
101455.881
101458.156
101460.557
101462.852
101465.697
101467.937
101431.754
101431.748
101431.741
101431.734
101431.728
101431.722
101431.716
101431.71
101431.705
101431.7
101431.696
101431.693
101431.69
101431.688
101431.688
101431.687
101431.687
101431.688
101431.691
101431.697
101431.704
101431.711
101431.718
101431.726
101431.734
101431.743
101431.752
101431.762
101431.772
101431.783
101431.794
101431.804
101431.811
101431.824
101431.85
101431.861
101431.856
101431.866
101431.883
101431.896
101431.908
101431.922
101431.94
101431.961
101431.989
101432.025
101432.074
101432.138
101432.224
101432.334
101432.474
101432.651
101432.874
101433.152
101433.493
101433.916
101434.424
101435.027
101435.712
101436.489
101437.338
101438.242
101439.81
101442.78
101445.072
101445.654
101446.001
101447.718
101449.553
101451.078
101452.993
101454.897
101456.893
101459.134
101461.308
101463.558
101465.854
101467.956
101470.449
101472.876
101432.383
101432.377
101432.37
101432.364
101432.358
101432.353
101432.349
101432.345
101432.343
101432.341
101432.341
101432.342
101432.344
101432.348
101432.353
101432.36
101432.37
101432.38
101432.392
101432.405
101432.42
101432.436
101432.453
101432.473
101432.493
101432.515
101432.539
101432.563
101432.588
101432.611
101432.64
101432.682
101432.711
101432.727
101432.757
101432.795
101432.828
101432.862
101432.899
101432.939
101432.983
101433.033
101433.092
101433.162
101433.247
101433.349
101433.474
101433.627
101433.814
101434.039
101434.312
101434.642
101435.039
101435.52
101436.087
101436.749
101437.5
101438.367
101439.27
101440.294
101442.124
101444.667
101446.334
101446.916
101447.669
101449.29
101451.467
101453.21
101454.654
101456.633
101458.454
101460.107
101462.207
101464.315
101466.387
101468.448
101470.736
101473.107
101475.766
101477.911
101432.953
101432.947
101432.941
101432.936
101432.932
101432.93
101432.928
101432.928
101432.929
101432.932
101432.937
101432.943
101432.951
101432.962
101432.974
101432.988
101433.005
101433.024
101433.045
101433.068
101433.093
101433.121
101433.15
101433.182
101433.215
101433.251
101433.285
101433.325
101433.378
101433.42
101433.453
101433.499
101433.552
101433.602
101433.653
101433.708
101433.766
101433.829
101433.898
101433.975
101434.062
101434.162
101434.278
101434.415
101434.577
101434.77
101434.999
101435.27
101435.59
101435.969
101436.417
101436.948
101437.571
101438.29
101439.105
101440.002
101441.012
101442.211
101444.128
101446.26
101447.217
101447.847
101449.228
101451.035
101452.835
101454.364
101455.838
101457.41
101458.965
101460.561
101462.372
101464.473
101466.513
101468.538
101470.629
101472.76
101474.912
101477.178
101479.707
101481.904
101433.404
101433.4
101433.396
101433.393
101433.392
101433.393
101433.396
101433.4
101433.407
101433.416
101433.427
101433.44
101433.456
101433.474
101433.495
101433.519
101433.545
101433.574
101433.606
101433.64
101433.677
101433.717
101433.759
101433.802
101433.85
101433.91
101433.963
101434.008
101434.065
101434.129
101434.192
101434.257
101434.325
101434.398
101434.474
101434.557
101434.647
101434.746
101434.857
101434.983
101435.127
101435.293
101435.486
101435.711
101435.975
101436.283
101436.643
101437.062
101437.549
101438.12
101438.783
101439.542
101440.405
101441.368
101442.458
101443.602
101445.13
101446.697
101447.727
101448.835
101450.6
101452.24
101453.435
101454.577
101455.924
101457.567
101459.082
101460.703
101462.626
101464.603
101466.639
101468.705
101470.766
101472.773
101474.863
101476.947
101478.861
101480.826
101483.465
101486.068
101433.683
101433.681
101433.681
101433.683
101433.687
101433.693
101433.701
101433.712
101433.725
101433.741
101433.76
101433.782
101433.806
101433.835
101433.866
101433.9
101433.938
101433.979
101434.024
101434.07
101434.119
101434.174
101434.238
101434.299
101434.355
101434.421
101434.493
101434.566
101434.642
101434.721
101434.804
101434.892
101434.985
101435.085
101435.193
101435.312
101435.443
101435.591
101435.757
101435.946
101436.164
101436.415
101436.705
101437.041
101437.43
101437.877
101438.391
101438.982
101439.662
101440.435
101441.301
101442.259
101443.313
101444.445
101445.685
101447.09
101448.289
101449.525
101450.959
101452.298
101453.666
101455.01
101456.42
101457.915
101459.507
101461.152
101462.698
101464.394
101466.493
101468.704
101470.996
101473.373
101475.667
101477.619
101479.764
101482.142
101484.746
101487.431
101489.202
101490.779
101433.726
101433.729
101433.734
101433.742
101433.752
101433.764
101433.78
101433.799
101433.821
101433.846
101433.875
101433.908
101433.944
101433.984
101434.028
101434.075
101434.126
101434.181
101434.243
101434.312
101434.376
101434.441
101434.514
101434.595
101434.676
101434.76
101434.849
101434.942
101435.039
101435.142
101435.251
101435.368
101435.493
101435.63
101435.78
101435.947
101436.133
101436.344
101436.583
101436.856
101437.169
101437.527
101437.938
101438.408
101438.942
101439.547
101440.233
101441.004
101441.863
101442.808
101443.831
101444.938
101446.104
101447.355
101448.643
101449.929
101451.334
101452.723
101454.033
101455.343
101456.768
101458.375
101460.173
101462.143
101464.289
101466.532
101468.653
101470.44
101472.066
101473.797
101475.382
101476.98
101478.911
101481.321
101483.94
101486.078
101488.081
101490.114
101492.268
101494.626
101433.468
101433.477
101433.489
101433.504
101433.522
101433.544
101433.569
101433.598
101433.631
101433.669
101433.71
101433.755
101433.805
101433.859
101433.918
101433.984
101434.052
101434.121
101434.196
101434.278
101434.364
101434.453
101434.546
101434.644
101434.746
101434.853
101434.965
101435.083
101435.209
101435.343
101435.486
101435.642
101435.811
101435.999
101436.206
101436.439
101436.701
101436.998
101437.334
101437.717
101438.152
101438.645
101439.202
101439.829
101440.532
101441.317
101442.188
101443.144
101444.182
101445.296
101446.48
101447.736
101449.082
101450.494
101451.932
101453.39
101454.889
101456.443
101458.064
101459.75
101461.502
101463.285
101465.045
101466.774
101468.455
101470.24
101472.205
101474.078
101475.651
101477.152
101478.874
101480.98
101483.154
101485.427
101487.533
101489.694
101492.343
101494.406
101496.06
101498.121
101432.832
101432.849
101432.871
101432.895
101432.924
101432.956
101432.994
101433.035
101433.082
101433.132
101433.188
101433.249
101433.317
101433.387
101433.461
101433.542
101433.629
101433.72
101433.815
101433.916
101434.022
101434.133
101434.249
101434.371
101434.499
101434.634
101434.777
101434.93
101435.093
101435.27
101435.462
101435.672
101435.905
101436.163
101436.452
101436.777
101437.142
101437.554
101438.018
101438.54
101439.126
101439.779
101440.504
101441.303
101442.18
101443.137
101444.173
101445.287
101446.475
101447.717
101449.058
101450.505
101451.956
101453.422
101454.897
101456.413
101457.946
101459.507
101461.204
101462.954
101464.726
101466.547
101468.261
101469.885
101471.458
101473.02
101474.811
101476.805
101478.818
101480.727
101482.402
101484.438
101486.922
101489.314
101491.796
101494.022
101495.802
101497.645
101499.569
101502.046
101431.745
101431.772
101431.805
101431.842
101431.883
101431.929
101431.98
101432.036
101432.097
101432.165
101432.237
101432.314
101432.398
101432.487
101432.582
101432.682
101432.788
101432.899
101433.016
101433.14
101433.269
101433.405
101433.548
101433.7
101433.86
101434.031
101434.215
101434.412
101434.627
101434.862
101435.12
101435.405
101435.723
101436.077
101436.474
101436.918
101437.414
101437.968
101438.586
101439.269
101440.023
101440.85
101441.75
101442.714
101443.741
101444.806
101445.928
101447.234
101448.641
101449.923
101451.429
101453.142
101454.722
101456.076
101457.476
101459.063
101460.496
101461.998
101463.749
101465.403
101466.707
101468.263
101470.397
101472.599
101474.682
101476.516
101478.435
101480.38
101482.461
101484.515
101486.75
101488.757
101490.283
101492.307
101494.799
101497.125
101499.163
101500.862
101503.027
101505.849
101430.135
101430.174
101430.221
101430.272
101430.328
101430.389
101430.455
101430.528
101430.606
101430.69
101430.781
101430.877
101430.979
101431.088
101431.203
101431.324
101431.452
101431.587
101431.729
101431.878
101432.036
101432.204
101432.381
101432.571
101432.775
101432.995
101433.234
101433.495
101433.782
101434.099
101434.449
101434.839
101435.272
101435.754
101436.29
101436.882
101437.535
101438.251
101439.031
101439.873
101440.777
101441.739
101442.752
101443.836
101445.208
101447.001
101448.77
101450.283
101451.675
101453.056
101454.282
101455.458
101456.806
101458.431
101460.175
101461.886
101463.77
101465.391
101466.905
101468.904
101471.326
101473.39
101474.951
101476.143
101477.387
101479.294
101481.582
101483.726
101485.875
101488.034
101490.107
101492.437
101494.879
101496.367
101497.607
101499.852
101502.133
101504.251
101505.993
101507.937
101427.956
101428.009
101428.072
101428.139
101428.21
101428.287
101428.371
101428.46
101428.556
101428.658
101428.766
101428.881
101429.003
101429.131
101429.267
101429.411
101429.562
101429.722
101429.892
101430.073
101430.265
101430.472
101430.695
101430.936
101431.199
101431.488
101431.806
101432.158
101432.549
101432.984
101433.47
101434.012
101434.615
101435.286
101436.028
101436.846
101437.743
101438.722
101439.782
101440.923
101442.139
101443.423
101444.761
101446.169
101447.638
101448.93
101450.257
101451.786
101453.316
101454.868
101456.315
101457.682
101459.172
101460.904
101462.729
101464.533
101466.411
101468.305
101470.062
101472.001
101474.086
101475.721
101477.167
101479.058
101481.384
101482.987
101484.507
101486.593
101488.991
101491.317
101493.801
101495.823
101498.027
101500.731
101502.32
101504.479
101507.203
101509.064
101510.552
101512.793
101425.193
101425.261
101425.342
101425.425
101425.513
101425.607
101425.707
101425.814
101425.927
101426.046
101426.172
101426.306
101426.446
101426.595
101426.752
101426.918
101427.094
101427.282
101427.482
101427.698
101427.93
101428.182
101428.457
101428.759
101429.091
101429.458
101429.866
101430.318
101430.821
101431.379
101431.999
101432.683
101433.437
101434.262
101435.163
101436.138
101437.19
101438.319
101439.528
101440.82
101442.201
101443.644
101445.181
101446.821
101448.33
101449.768
101451.269
101452.749
101454.255
101455.893
101457.66
101459.394
101461.174
101463.011
101464.711
101466.242
101467.845
101469.8
101472.172
101474.549
101476.832
101478.795
101480.506
101482.076
101483.749
101486.433
101488.982
101490.781
101492.659
101494.785
101497.048
101499.355
101502.034
101504.468
101506.617
101509.043
101511.246
101513.103
101515.388
101517.614
101421.877
101421.961
101422.059
101422.159
101422.264
101422.373
101422.489
101422.611
101422.739
101422.874
101423.016
101423.166
101423.324
101423.492
101423.67
101423.859
101424.063
101424.281
101424.518
101424.775
101425.056
101425.366
101425.708
101426.086
101426.507
101426.975
101427.496
101428.074
101428.715
101429.423
101430.201
101431.051
101431.975
101432.971
101434.036
101435.162
101436.337
101437.54
101438.779
101440.015
101441.499
101443.282
101444.997
101446.789
101448.66
101450.57
101452.46
101454.319
101456.32
101458.469
101460.593
101462.668
101464.705
101466.631
101468.615
101470.771
101472.651
101474.466
101475.888
101477.198
101478.636
101480.658
101483.435
101485.913
101487.87
101489.342
101491.298
101493.875
101496.423
101498.454
101500.242
101502.136
101504.221
101506.836
101509.786
101511.48
101512.657
101514.529
101516.82
101518.78
101418.164
101418.265
101418.381
101418.499
101418.62
101418.747
101418.88
101419.02
101419.166
101419.321
101419.484
101419.657
101419.841
101420.039
101420.25
101420.479
101420.728
101421
101421.299
101421.629
101421.994
101422.4
101422.852
101423.356
101423.916
101424.54
101425.231
101425.995
101426.835
101427.754
101428.753
101429.834
101430.997
101432.241
101433.568
101434.971
101436.438
101438.028
101440.14
101442.877
101445.19
101447.065
101448.909
101450.612
101452.231
101453.941
101455.837
101457.656
101459.29
101461.107
101462.902
101464.51
101466.345
101468.308
101470.217
101472.101
101474.518
101476.987
101478.999
101480.765
101482.938
101485.154
101486.84
101489.01
101491.398
101493.543
101495.09
101496.534
101498.36
101500.771
101503.495
101506.137
101508.347
101510.009
101511.553
101513.03
101515.141
101517.425
101519.343
101521.292
101442.262
101442.268
101442.273
101442.278
101442.283
101442.287
101442.291
101442.294
101442.297
101442.299
101442.301
101442.302
101442.303
101442.303
101442.303
101442.301
101442.3
101442.297
101442.294
101442.289
101442.284
101442.278
101442.272
101442.264
101442.255
101442.245
101442.233
101442.221
101442.207
101442.191
101442.174
101442.156
101442.135
101442.113
101442.088
101442.062
101442.033
101442.001
101441.967
101441.93
101441.89
101441.847
101441.799
101441.748
101441.692
101441.631
101441.564
101441.492
101441.413
101441.325
101441.229
101441.126
101441.012
101440.885
101440.744
101440.587
101440.411
101440.215
101439.996
101439.748
101439.469
101439.152
101438.791
101438.379
101437.909
101437.371
101436.76
101436.072
101435.308
101434.461
101433.505
101432.445
101431.279
101430.126
101428.944
101427.6
101426.141
101424.597
101422.981
101420.438
101441.627
101441.631
101441.636
101441.64
101441.644
101441.648
101441.651
101441.654
101441.657
101441.66
101441.662
101441.664
101441.665
101441.667
101441.667
101441.668
101441.668
101441.667
101441.666
101441.665
101441.663
101441.66
101441.657
101441.653
101441.648
101441.643
101441.637
101441.63
101441.623
101441.614
101441.604
101441.593
101441.582
101441.569
101441.554
101441.538
101441.521
101441.502
101441.481
101441.459
101441.434
101441.407
101441.379
101441.347
101441.311
101441.272
101441.228
101441.181
101441.13
101441.073
101441.009
101440.938
101440.858
101440.769
101440.668
101440.555
101440.427
101440.282
101440.117
101439.929
101439.712
101439.463
101439.173
101438.837
101438.445
101437.992
101437.474
101436.888
101436.233
101435.504
101434.702
101433.823
101432.868
101431.806
101430.651
101429.381
101427.886
101425.965
101423.448
101420.415
101441.038
101441.041
101441.045
101441.048
101441.052
101441.055
101441.058
101441.061
101441.064
101441.067
101441.07
101441.073
101441.076
101441.078
101441.081
101441.083
101441.085
101441.088
101441.09
101441.091
101441.093
101441.094
101441.096
101441.097
101441.098
101441.098
101441.099
101441.099
101441.099
101441.098
101441.097
101441.096
101441.094
101441.092
101441.09
101441.087
101441.084
101441.08
101441.077
101441.071
101441.065
101441.057
101441.048
101441.039
101441.028
101441.016
101441.002
101440.985
101440.966
101440.943
101440.916
101440.885
101440.847
101440.802
101440.75
101440.687
101440.613
101440.526
101440.422
101440.299
101440.151
101439.974
101439.762
101439.509
101439.208
101438.854
101438.442
101437.966
101437.42
101436.798
101436.105
101435.341
101434.428
101433.277
101432.117
101430.674
101428.828
101426.729
101424.393
101422.156
101440.468
101440.47
101440.473
101440.476
101440.478
101440.481
101440.484
101440.487
101440.491
101440.494
101440.498
101440.501
101440.505
101440.509
101440.514
101440.518
101440.523
101440.527
101440.532
101440.537
101440.543
101440.548
101440.554
101440.56
101440.567
101440.573
101440.58
101440.587
101440.595
101440.602
101440.61
101440.619
101440.628
101440.638
101440.648
101440.658
101440.669
101440.679
101440.69
101440.702
101440.715
101440.728
101440.742
101440.756
101440.77
101440.784
101440.798
101440.811
101440.824
101440.835
101440.845
101440.853
101440.857
101440.857
101440.853
101440.842
101440.824
101440.796
101440.755
101440.7
101440.625
101440.526
101440.395
101440.226
101440.01
101439.739
101439.405
101439.003
101438.537
101438.016
101437.451
101436.712
101435.963
101435.139
101433.761
101432.536
101431.118
101429.151
101427.017
101424.729
101439.891
101439.892
101439.894
101439.896
101439.898
101439.9
101439.903
101439.906
101439.909
101439.913
101439.917
101439.922
101439.927
101439.932
101439.938
101439.944
101439.951
101439.958
101439.966
101439.974
101439.983
101439.993
101440.003
101440.013
101440.025
101440.037
101440.049
101440.063
101440.078
101440.095
101440.112
101440.129
101440.147
101440.166
101440.187
101440.209
101440.233
101440.258
101440.285
101440.313
101440.344
101440.375
101440.409
101440.444
101440.48
101440.518
101440.558
101440.599
101440.641
101440.683
101440.727
101440.77
101440.812
101440.853
101440.892
101440.928
101440.959
101440.983
101440.999
101441.003
101440.99
101440.955
101440.889
101440.782
101440.624
101440.403
101440.11
101439.738
101439.281
101438.718
101437.919
101436.922
101436.19
101435.718
101434.636
101433.345
101432.242
101430.984
101429.771
101427.772
101439.282
101439.282
101439.283
101439.284
101439.285
101439.287
101439.29
101439.292
101439.296
101439.3
101439.304
101439.309
101439.315
101439.321
101439.328
101439.336
101439.344
101439.353
101439.363
101439.374
101439.385
101439.397
101439.41
101439.425
101439.441
101439.458
101439.475
101439.494
101439.513
101439.534
101439.556
101439.581
101439.607
101439.635
101439.665
101439.697
101439.731
101439.767
101439.806
101439.847
101439.89
101439.936
101439.985
101440.037
101440.091
101440.148
101440.207
101440.269
101440.334
101440.401
101440.47
101440.541
101440.613
101440.686
101440.759
101440.832
101440.903
101440.972
101441.035
101441.091
101441.134
101441.158
101441.156
101441.116
101441.028
101440.879
101440.658
101440.352
101439.943
101439.399
101438.669
101437.753
101436.72
101435.714
101434.748
101433.571
101432.365
101431.147
101429.621
101427.613
101438.618
101438.618
101438.617
101438.617
101438.618
101438.619
101438.621
101438.624
101438.627
101438.63
101438.635
101438.64
101438.646
101438.653
101438.66
101438.668
101438.677
101438.688
101438.699
101438.71
101438.723
101438.737
101438.752
101438.768
101438.785
101438.803
101438.823
101438.845
101438.868
101438.893
101438.919
101438.948
101438.979
101439.011
101439.046
101439.084
101439.123
101439.166
101439.211
101439.26
101439.311
101439.365
101439.423
101439.484
101439.549
101439.616
101439.687
101439.761
101439.839
101439.919
101440.003
101440.09
101440.179
101440.271
101440.364
101440.46
101440.557
101440.654
101440.75
101440.842
101440.925
101440.994
101441.04
101441.05
101441.01
101440.904
101440.714
101440.415
101439.983
101439.397
101438.653
101437.777
101436.81
101435.767
101434.644
101433.411
101432.024
101430.428
101428.705
101427.042
101437.893
101437.891
101437.89
101437.889
101437.889
101437.889
101437.89
101437.892
101437.894
101437.897
101437.9
101437.904
101437.909
101437.915
101437.922
101437.93
101437.938
101437.947
101437.957
101437.968
101437.981
101437.994
101438.009
101438.025
101438.042
101438.061
101438.081
101438.102
101438.125
101438.15
101438.177
101438.205
101438.236
101438.269
101438.304
101438.342
101438.382
101438.425
101438.471
101438.519
101438.571
101438.626
101438.685
101438.746
101438.811
101438.879
101438.951
101439.025
101439.103
101439.183
101439.267
101439.353
101439.441
101439.532
101439.626
101439.721
101439.818
101439.915
101440.01
101440.101
101440.181
101440.243
101440.274
101440.262
101440.186
101440.028
101439.767
101439.383
101438.863
101438.2
101437.41
101436.519
101435.546
101434.495
101433.368
101432.172
101430.94
101429.766
101428.693
101427.346
101437.096
101437.093
101437.091
101437.089
101437.088
101437.087
101437.086
101437.087
101437.087
101437.088
101437.09
101437.093
101437.096
101437.101
101437.106
101437.111
101437.118
101437.125
101437.133
101437.142
101437.152
101437.163
101437.175
101437.188
101437.203
101437.218
101437.235
101437.253
101437.272
101437.293
101437.315
101437.339
101437.365
101437.393
101437.422
101437.454
101437.488
101437.524
101437.562
101437.603
101437.646
101437.691
101437.74
101437.79
101437.844
101437.899
101437.957
101438.017
101438.079
101438.143
101438.207
101438.273
101438.338
101438.403
101438.468
101438.53
101438.59
101438.645
101438.694
101438.735
101438.763
101438.77
101438.741
101438.661
101438.513
101438.277
101437.936
101437.467
101436.849
101436.078
101435.188
101434.202
101433.139
101432.011
101430.831
101429.61
101428.383
101427.222
101426.07
101424.542
101436.238
101436.234
101436.231
101436.228
101436.225
101436.223
101436.221
101436.219
101436.218
101436.217
101436.217
101436.218
101436.218
101436.22
101436.222
101436.224
101436.227
101436.231
101436.236
101436.24
101436.246
101436.252
101436.259
101436.267
101436.276
101436.285
101436.295
101436.307
101436.319
101436.332
101436.346
101436.361
101436.377
101436.394
101436.413
101436.432
101436.453
101436.476
101436.499
101436.524
101436.55
101436.578
101436.607
101436.636
101436.667
101436.698
101436.73
101436.762
101436.793
101436.824
101436.853
101436.881
101436.907
101436.934
101436.959
101436.982
101437.002
101437.017
101437.024
101437.01
101436.97
101436.895
101436.773
101436.593
101436.334
101435.976
101435.492
101434.851
101434.059
101433.126
101432.08
101430.947
101429.734
101428.449
101427.094
101425.675
101424.239
101422.862
101421.56
101420.089
101435.337
101435.332
101435.328
101435.323
101435.319
101435.314
101435.31
101435.306
101435.303
101435.299
101435.296
101435.293
101435.29
101435.288
101435.286
101435.284
101435.282
101435.28
101435.279
101435.278
101435.277
101435.277
101435.277
101435.277
101435.277
101435.277
101435.278
101435.279
101435.28
101435.281
101435.282
101435.284
101435.285
101435.287
101435.288
101435.29
101435.291
101435.293
101435.294
101435.294
101435.294
101435.293
101435.291
101435.287
101435.283
101435.277
101435.27
101435.262
101435.252
101435.239
101435.224
101435.204
101435.175
101435.137
101435.089
101435.03
101434.96
101434.876
101434.779
101434.663
101434.518
101434.334
101434.095
101433.782
101433.376
101432.855
101432.196
101431.382
101430.419
101429.31
101428.074
101426.745
101425.339
101423.859
101422.326
101420.662
101419.043
101417.582
101416.25
101414.719
101434.419
101434.414
101434.408
101434.401
101434.395
101434.388
101434.382
101434.375
101434.368
101434.361
101434.354
101434.347
101434.34
101434.333
101434.326
101434.319
101434.311
101434.303
101434.295
101434.287
101434.279
101434.27
101434.261
101434.252
101434.242
101434.231
101434.22
101434.209
101434.197
101434.184
101434.17
101434.155
101434.139
101434.122
101434.103
101434.083
101434.062
101434.038
101434.013
101433.986
101433.957
101433.926
101433.892
101433.856
101433.815
101433.766
101433.71
101433.647
101433.576
101433.496
101433.407
101433.308
101433.199
101433.077
101432.94
101432.786
101432.611
101432.411
101432.18
101431.918
101431.619
101431.275
101430.87
101430.385
101429.807
101429.132
101428.319
101427.371
101426.288
101425.087
101423.737
101422.244
101420.614
101418.932
101416.992
101414.946
101413.267
101411.797
101410.266
101408.701
101433.519
101433.512
101433.504
101433.496
101433.487
101433.478
101433.468
101433.458
101433.448
101433.437
101433.426
101433.414
101433.402
101433.39
101433.377
101433.363
101433.349
101433.335
101433.319
101433.303
101433.286
101433.268
101433.249
101433.229
101433.208
101433.186
101433.162
101433.136
101433.109
101433.081
101433.05
101433.017
101432.982
101432.945
101432.906
101432.864
101432.82
101432.772
101432.719
101432.66
101432.595
101432.525
101432.449
101432.365
101432.276
101432.181
101432.077
101431.963
101431.838
101431.699
101431.546
101431.376
101431.189
101430.984
101430.762
101430.519
101430.253
101429.96
101429.634
101429.267
101428.85
101428.374
101427.829
101427.227
101426.517
101425.653
101424.666
101423.56
101422.332
101420.861
101419.009
101417.082
101415.354
101413.671
101411.93
101410.319
101408.844
101407.49
101406.265
101405.218
101432.665
101432.656
101432.645
101432.634
101432.623
101432.611
101432.598
101432.585
101432.57
101432.555
101432.54
101432.524
101432.506
101432.489
101432.47
101432.45
101432.429
101432.407
101432.384
101432.36
101432.335
101432.307
101432.279
101432.249
101432.217
101432.183
101432.147
101432.11
101432.069
101432.027
101431.982
101431.933
101431.879
101431.821
101431.759
101431.692
101431.619
101431.542
101431.46
101431.374
101431.281
101431.181
101431.072
101430.953
101430.825
101430.686
101430.535
101430.374
101430.201
101430.014