/*--------------------------------*- C++ -*----------------------------------*\
  =========                 |
  \\      /  F ield         | OpenFOAM: The Open Source CFD Toolbox
   \\    /   O peration     | Website:  https://openfoam.org
    \\  /    A nd           | Version:  8
     \\/     M anipulation  |
\*---------------------------------------------------------------------------*/
FoamFile
{
    version     2.0;
    format      ascii;
    class       volScalarField;
    location    "0.017";
    object      p;
}
// * * * * * * * * * * * * * * * * * * * * * * * * * * * * * * * * * * * * * //

dimensions      [1 -1 -2 0 0 0 0];

internalField   nonuniform List<scalar> 
42400
(
101275.041
101275.032
101275.021
101275.009
101274.996
101274.982
101274.966
101274.95
101274.932
101274.913
101274.893
101274.872
101274.849
101274.825
101274.8
101274.774
101274.746
101274.716
101274.685
101274.653
101274.618
101274.582
101274.544
101274.503
101274.461
101274.416
101274.369
101274.32
101274.268
101274.214
101274.157
101274.097
101274.034
101273.969
101273.901
101273.83
101273.761
101273.696
101273.624
101273.535
101273.435
101273.333
101273.238
101273.15
101273.062
101272.971
101272.879
101272.785
101272.688
101272.586
101272.497
101272.424
101272.348
101272.239
101272.119
101272.023
101271.937
101271.844
101271.744
101271.638
101271.523
101271.399
101271.267
101271.134
101271.006
101270.863
101270.698
101270.542
101270.328
101270.127
101270.106
101269.327
101268.463
101269.745
101270.351
101268.752
101269.906
101270.578
101269.744
101273.702
101274.644
101274.637
101274.629
101274.62
101274.609
101274.598
101274.586
101274.573
101274.559
101274.544
101274.527
101274.51
101274.492
101274.473
101274.452
101274.431
101274.408
101274.384
101274.359
101274.332
101274.304
101274.275
101274.244
101274.211
101274.176
101274.14
101274.101
101274.061
101274.018
101273.973
101273.926
101273.875
101273.825
101273.777
101273.729
101273.681
101273.619
101273.542
101273.463
101273.391
101273.324
101273.255
101273.184
101273.112
101273.037
101272.96
101272.886
101272.824
101272.77
101272.696
101272.602
101272.525
101272.463
101272.405
101272.342
101272.281
101272.222
101272.165
101272.112
101272.072
101272.047
101272.035
101272.033
101272.038
101272.055
101272.104
101272.181
101272.383
101272.625
101272.89
101273.45
101273.73
101273.638
101274.269
101275.398
101276.68
101279.58
101283.544
101285.754
101288.024
101274.381
101274.376
101274.37
101274.363
101274.355
101274.347
101274.338
101274.328
101274.317
101274.305
101274.292
101274.279
101274.265
101274.25
101274.234
101274.218
101274.2
101274.182
101274.162
101274.142
101274.121
101274.098
101274.075
101274.05
101274.024
101273.996
101273.967
101273.937
101273.904
101273.871
101273.839
101273.808
101273.772
101273.728
101273.677
101273.623
101273.573
101273.528
101273.48
101273.43
101273.379
101273.326
101273.27
101273.215
101273.17
101273.134
101273.072
101272.992
101272.94
101272.899
101272.856
101272.814
101272.774
101272.737
101272.706
101272.686
101272.685
101272.703
101272.739
101272.795
101272.882
101273.003
101273.16
101273.361
101273.606
101273.938
101274.307
101274.88
101275.58
101276.451
101277.473
101278.149
101279.118
101281.717
101285.039
101287.785
101289.559
101292.047
101295.672
101297.739
101274.247
101274.244
101274.239
101274.234
101274.228
101274.222
101274.214
101274.207
101274.198
101274.19
101274.18
101274.171
101274.16
101274.15
101274.138
101274.127
101274.115
101274.102
101274.089
101274.075
101274.061
101274.046
101274.03
101274.014
101273.996
101273.977
101273.958
101273.939
101273.92
101273.898
101273.871
101273.842
101273.811
101273.782
101273.755
101273.726
101273.695
101273.663
101273.629
101273.594
101273.557
101273.529
101273.511
101273.469
101273.411
101273.376
101273.352
101273.321
101273.29
101273.263
101273.24
101273.225
101273.224
101273.241
101273.273
101273.322
101273.396
101273.505
101273.659
101273.861
101274.121
101274.448
101274.851
101275.322
101275.858
101276.536
101277.255
101278.171
101279.005
101280.162
101282.989
101286.791
101288.477
101289.226
101290.68
101292.608
101294.847
101296.688
101298.508
101300.901
101274.229
101274.226
101274.222
101274.217
101274.212
101274.207
101274.201
101274.195
101274.188
101274.182
101274.175
101274.168
101274.161
101274.154
101274.147
101274.14
101274.132
101274.125
101274.118
101274.111
101274.102
101274.093
101274.084
101274.075
101274.067
101274.059
101274.05
101274.041
101274.03
101274.02
101274.01
101273.999
101273.986
101273.973
101273.958
101273.943
101273.926
101273.904
101273.889
101273.887
101273.863
101273.825
101273.806
101273.797
101273.78
101273.763
101273.749
101273.741
101273.741
101273.753
101273.777
101273.814
101273.869
101273.95
101274.065
101274.22
101274.423
101274.678
101274.996
101275.386
101275.876
101276.45
101277.158
101277.931
101278.833
101279.74
101280.752
101282.382
101285.833
101288.051
101288.548
101289.192
101290.729
101293.19
101295.227
101297.202
101299.281
101301.741
101304.551
101307.114
101274.294
101274.29
101274.286
101274.281
101274.276
101274.272
101274.267
101274.262
101274.257
101274.252
101274.247
101274.242
101274.238
101274.235
101274.232
101274.229
101274.226
101274.223
101274.22
101274.218
101274.218
101274.22
101274.222
101274.223
101274.225
101274.226
101274.227
101274.228
101274.229
101274.23
101274.23
101274.23
101274.23
101274.228
101274.222
101274.223
101274.235
101274.232
101274.214
101274.211
101274.214
101274.211
101274.209
101274.21
101274.216
101274.228
101274.248
101274.278
101274.322
101274.383
101274.47
101274.586
101274.739
101274.936
101275.186
101275.494
101275.868
101276.316
101276.852
101277.466
101278.214
101279.035
101280.01
101280.87
101282.139
101284.556
101287.626
101289.04
101289.103
101290.125
101292.281
101293.786
101295.695
101297.988
101300.019
101302.182
101304.506
101306.692
101308.915
101311.071
101274.414
101274.41
101274.405
101274.4
101274.395
101274.391
101274.386
101274.382
101274.379
101274.376
101274.373
101274.371
101274.37
101274.37
101274.37
101274.371
101274.373
101274.378
101274.384
101274.39
101274.396
101274.403
101274.411
101274.419
101274.429
101274.438
101274.449
101274.46
101274.471
101274.483
101274.494
101274.501
101274.515
101274.539
101274.55
101274.549
101274.559
101274.577
101274.591
101274.604
101274.62
101274.64
101274.664
101274.694
101274.733
101274.785
101274.852
101274.941
101275.056
101275.204
101275.392
101275.627
101275.919
101276.276
101276.706
101277.218
101277.823
101278.515
101279.311
101280.162
101281.158
101282.201
101283.706
101286.446
101288.461
101289.295
101289.989
101291.437
101293.204
101294.998
101296.699
101298.714
101300.943
101302.883
101304.869
101307.081
101309.424
101311.91
101314.232
101317.05
101274.544
101274.539
101274.533
101274.529
101274.524
101274.521
101274.518
101274.515
101274.514
101274.513
101274.513
101274.514
101274.516
101274.52
101274.525
101274.532
101274.54
101274.549
101274.559
101274.571
101274.585
101274.599
101274.615
101274.632
101274.65
101274.669
101274.69
101274.71
101274.729
101274.752
101274.786
101274.81
101274.823
101274.847
101274.877
101274.904
101274.932
101274.962
101274.995
101275.031
101275.074
101275.125
101275.185
101275.26
101275.352
101275.466
101275.608
101275.785
101276.003
101276.27
101276.599
101276.995
101277.469
101278.032
101278.7
101279.465
101280.346
101281.329
101282.457
101283.629
101285.164
101287.753
101289.239
101289.748
101290.807
101292.393
101294.079
101295.665
101297.369
101299.411
101301.317
101303.321
101305.316
101307.325
101309.512
101311.561
101313.818
101316.524
101319.071
101321.907
101274.642
101274.638
101274.633
101274.629
101274.626
101274.624
101274.623
101274.623
101274.625
101274.628
101274.633
101274.639
101274.647
101274.655
101274.666
101274.678
101274.692
101274.708
101274.726
101274.745
101274.766
101274.789
101274.814
101274.84
101274.868
101274.894
101274.926
101274.967
101275
101275.026
101275.061
101275.103
101275.142
101275.182
101275.226
101275.272
101275.322
101275.377
101275.44
101275.512
101275.595
101275.694
101275.811
101275.952
101276.123
101276.329
101276.577
101276.876
101277.233
101277.657
101278.156
101278.74
101279.421
101280.194
101281.086
101282.084
101283.176
101284.334
101285.768
101288.017
101289.563
101290.228
101291.407
101293.141
101294.749
101296.541
101298.358
101300.01
101301.931
101303.961
101305.888
101307.903
101309.898
101311.936
101314.147
101316.424
101318.414
101320.777
101323.81
101326.182
101274.668
101274.665
101274.663
101274.661
101274.661
101274.662
101274.665
101274.67
101274.676
101274.683
101274.693
101274.704
101274.718
101274.734
101274.752
101274.772
101274.794
101274.819
101274.846
101274.875
101274.906
101274.939
101274.972
101275.011
101275.058
101275.099
101275.135
101275.181
101275.232
101275.282
101275.334
101275.389
101275.448
101275.51
101275.578
101275.653
101275.736
101275.829
101275.936
101276.06
101276.205
101276.375
101276.576
101276.815
101277.097
101277.431
101277.823
101278.281
101278.813
101279.426
101280.124
101280.911
101281.786
101282.727
101283.745
101284.881
101286.369
101288.572
101290.164
101290.917
101292.121
101293.72
101295.259
101296.964
101298.674
101300.396
101302.165
101304.004
101305.91
101307.803
101309.821
101311.921
101314.14
101316.743
101319.353
101321.704
101324.224
101326.078
101327.377
101329.252
101274.581
101274.581
101274.582
101274.585
101274.59
101274.596
101274.604
101274.613
101274.626
101274.64
101274.657
101274.676
101274.699
101274.723
101274.75
101274.78
101274.813
101274.849
101274.887
101274.926
101274.971
101275.023
101275.072
101275.117
101275.171
101275.231
101275.291
101275.353
101275.419
101275.489
101275.563
101275.642
101275.727
101275.82
101275.923
101276.038
101276.168
101276.316
101276.487
101276.686
101276.917
101277.187
101277.502
101277.871
101278.299
101278.794
101279.364
101280.017
101280.762
101281.604
101282.545
101283.59
101284.74
101285.989
101287.478
101289.161
101290.311
101290.98
101292.162
101293.92
101295.613
101297.158
101298.86
101300.645
101302.362
101304.125
101305.851
101307.521
101309.674
101312.366
101314.899
101317.34
101319.845
101321.396
101322.91
101325.372
101327.622
101330.023
101333.08
101335.404
101274.325
101274.329
101274.336
101274.344
101274.354
101274.367
101274.382
101274.4
101274.421
101274.444
101274.471
101274.501
101274.533
101274.569
101274.609
101274.651
101274.696
101274.746
101274.803
101274.859
101274.913
101274.975
101275.043
101275.112
101275.184
101275.26
101275.339
101275.423
101275.513
101275.608
101275.71
101275.821
101275.942
101276.077
101276.228
101276.398
101276.592
101276.814
101277.07
101277.365
101277.707
101278.102
101278.558
101279.08
101279.676
101280.351
101281.113
101281.967
101282.914
101283.95
101285.073
101286.268
101287.522
101288.883
101290.192
101291.474
101292.954
101294.508
101296.129
101297.75
101299.411
101301.149
101302.957
101304.776
101306.64
101308.599
101310.492
101312.997
101315.572
101317.531
101319.094
101320.425
101322.148
101324.607
101326.673
101328.919
101331.512
101334.119
101336.082
101338.208
101273.845
101273.856
101273.869
101273.885
101273.903
101273.925
101273.949
101273.977
101274.009
101274.044
101274.082
101274.124
101274.17
101274.22
101274.274
101274.335
101274.397
101274.459
101274.529
101274.603
101274.681
101274.762
101274.847
101274.936
101275.03
101275.129
101275.234
101275.346
101275.465
101275.594
101275.734
101275.888
101276.058
101276.249
101276.463
101276.707
101276.984
101277.301
101277.664
101278.079
101278.553
101279.093
101279.704
101280.392
101281.16
101282.013
101282.952
101283.972
101285.068
101286.239
101287.475
101288.769
101290.14
101291.629
101293.21
101294.791
101296.364
101297.985
101299.619
101301.188
101302.726
101304.348
101306.349
101308.596
101310.973
101313.34
101315.569
101317.473
101318.768
101320.072
101322.337
101325.449
101327.781
101329.203
101331.301
101333.621
101335.177
101337.094
101339.353
101341.255
101273.069
101273.087
101273.11
101273.135
101273.164
101273.196
101273.233
101273.273
101273.317
101273.366
101273.419
101273.478
101273.54
101273.605
101273.676
101273.752
101273.833
101273.918
101274.008
101274.102
101274.201
101274.305
101274.414
101274.53
101274.652
101274.782
101274.92
101275.07
101275.232
101275.409
101275.603
101275.819
101276.061
101276.332
101276.638
101276.985
101277.378
101277.823
101278.327
101278.895
101279.533
101280.245
101281.036
101281.908
101282.864
101283.903
101285.026
101286.23
101287.503
101288.828
101290.16
101291.32
101292.44
101294.038
101295.961
101297.74
101299.549
101301.662
101304.016
101306.138
101308.092
101309.759
101311.24
101313.181
101314.815
101316.175
101317.656
101319.834
101322.418
101324.776
101326.789
101328.49
101330.305
101332.158
101333.828
101335.731
101338.207
101340.341
101342.635
101344.752
101271.929
101271.957
101271.991
101272.029
101272.07
101272.116
101272.166
101272.221
101272.282
101272.346
101272.416
101272.491
101272.572
101272.657
101272.748
101272.844
101272.946
101273.053
101273.167
101273.286
101273.412
101273.545
101273.685
101273.835
101273.996
101274.169
101274.356
101274.559
101274.783
101275.03
101275.305
101275.612
101275.956
101276.342
101276.777
101277.266
101277.813
101278.425
101279.106
101279.858
101280.683
101281.581
101282.549
101283.569
101284.623
101285.718
101286.794
101288.156
101290.011
101292.003
101294.135
101296.335
101298.127
101299.407
101300.541
101301.8
101303.342
101305.121
101306.832
101308.555
101310.354
101312.292
101313.932
101315.337
101317.336
101320.095
101322.55
101324.585
101325.97
101327.248
101329.184
101331.631
101333.863
101336.294
101338.385
101340.376
101342.437
101344.454
101346.464
101348.663
101270.348
101270.388
101270.436
101270.487
101270.543
101270.604
101270.67
101270.741
101270.818
101270.901
101270.989
101271.084
101271.184
101271.29
101271.402
101271.521
101271.647
101271.779
101271.919
101272.068
101272.225
101272.393
101272.574
101272.767
101272.978
101273.207
101273.458
101273.735
101274.042
101274.384
101274.767
101275.195
101275.676
101276.214
101276.816
101277.487
101278.233
101279.057
101279.964
101280.957
101282.038
101283.211
101284.48
101285.841
101287.323
101289.021
101290.814
101292.45
101293.979
101295.453
101296.897
101298.136
101299.329
101301.023
101303.101
101304.9
101306.691
101308.572
101310.343
101312.19
101313.914
101315.697
101317.906
101320.048
101322.04
101323.853
101325.556
101327.222
101329.561
101332.457
101335.048
101336.817
101338.287
101339.986
101341.966
101344.234
101346.645
101348.94
101351.131
101353.46
101268.274
101268.327
101268.391
101268.458
101268.529
101268.606
101268.689
101268.777
101268.872
101268.972
101269.079
101269.193
101269.313
101269.44
101269.574
101269.716
101269.866
101270.026
101270.196
101270.377
101270.572
101270.782
101271.01
101271.259
101271.532
101271.834
101272.168
101272.54
101272.956
101273.421
101273.942
101274.524
101275.174
101275.897
101276.699
101277.582
101278.551
101279.607
101280.749
101281.976
101283.282
101284.66
101286.105
101287.623
101289.21
101290.822
101292.574
101294.154
101295.5
101296.929
101298.29
101299.883
101301.874
101303.463
101304.844
101307.118
101309.824
101311.545
101312.965
101314.875
101317.664
101320.385
101322.559
101324.409
101326.273
101328.093
101329.902
101332.106
101334.162
101335.753
101337.045
101338.961
101342.499
101345.259
101346.6
101348.35
101350.542
101352.581
101354.508
101356.615
101265.673
101265.742
101265.822
101265.906
101265.993
101266.087
101266.186
101266.291
101266.403
101266.521
101266.646
101266.778
101266.917
101267.064
101267.22
101267.386
101267.562
101267.751
101267.954
101268.172
101268.41
101268.669
101268.953
101269.267
101269.614
101270
101270.43
101270.909
101271.443
101272.038
101272.698
101273.43
101274.235
101275.118
101276.079
101277.119
101278.238
101279.432
101280.701
101282.039
101283.444
101284.898
101286.453
101288.127
101289.864
101291.491
101293.049
101294.645
101296.222
101298.177
101300.635
101302.846
101305.103
101307.665
101310.082
101311.844
101313.357
101315.479
101318.154
101320.537
101322.086
101323.43
101325.071
101326.811
101328.766
101331.111
101333.301
101335.589
101337.726
101339.407
101341.358
101343.871
101345.627
101346.993
101348.646
101350.956
101353.242
101355.297
101357.238
101358.992
101262.607
101262.691
101262.789
101262.889
101262.993
101263.102
101263.217
101263.339
101263.467
101263.601
101263.743
101263.893
101264.052
101264.221
101264.401
101264.593
101264.8
101265.025
101265.269
101265.536
101265.829
101266.154
101266.514
101266.915
101267.363
101267.862
101268.419
101269.04
101269.73
101270.494
101271.335
101272.256
101273.258
101274.34
101275.499
101276.731
101278.029
101279.382
101280.774
101282.189
101283.623
101285.033
101286.763
101289.102
101291.566
101294.018
101296.459
101298.93
101301.594
101303.935
101305.708
101307.645
101309.41
101311.005
101312.517
101314.277
101316.417
101318.208
101319.906
101321.436
101323.52
101326.497
101329.378
101331.463
101332.892
101334.555
101336.33
101338.066
101340.514
101343.192
101345.057
101346.728
101348.719
101350.777
101352.126
101353.838
101356.691
101359.405
101362.182
101364.572
101259.154
101259.254
101259.37
101259.486
101259.606
101259.732
101259.864
101260.002
101260.147
101260.3
101260.463
101260.635
101260.819
101261.017
101261.23
101261.462
101261.715
101261.994
101262.301
101262.642
101263.023
101263.448
101263.924
101264.456
101265.053
101265.719
101266.461
101267.285
101268.196
101269.197
101270.292
101271.482
101272.769
101274.153
101275.634
101277.212
101278.89
101280.67
101282.551
101284.552
101286.739
101289.074
101291.309
101293.417
101295.247
101297.002
101298.803
101300.621
101302.557
101304.506
101306.329
101307.98
101309.978
101312.545
101315.156
101317.667
101319.838
101321.733
101323.355
101325.372
101327.647
101329.277
101330.5
101332.081
101335.15
101338.15
101340.589
101342.441
101344.063
101345.723
101347.744
101350.148
101352.307
101354.604
101357.466
101360.05
101361.788
101363.785
101366.166
101368.477
101323.593
101323.597
101323.602
101323.61
101323.618
101323.629
101323.641
101323.656
101323.671
101323.689
101323.709
101323.73
101323.754
101323.78
101323.807
101323.837
101323.869
101323.904
101323.941
101323.98
101324.022
101324.067
101324.114
101324.164
101324.218
101324.274
101324.333
101324.396
101324.463
101324.533
101324.607
101324.685
101324.767
101324.853
101324.944
101325.04
101325.14
101325.246
101325.357
101325.473
101325.595
101325.723
101325.856
101325.995
101326.14
101326.296
101326.464
101326.643
101326.828
101327.015
101327.209
101327.41
101327.621
101327.841
101328.068
101328.3
101328.538
101328.778
101329.019
101329.256
101329.486
101329.701
101329.895
101330.058
101330.182
101330.255
101330.27
101330.214
101330.074
101329.833
101329.472
101328.976
101328.333
101327.526
101326.412
101325.163
101324.296
101323.313
101322.089
101319.919
101320.897
101320.9
101320.905
101320.911
101320.919
101320.929
101320.94
101320.953
101320.968
101320.985
101321.004
101321.024
101321.047
101321.072
101321.098
101321.127
101321.159
101321.192
101321.228
101321.267
101321.308
101321.352
101321.398
101321.448
101321.501
101321.557
101321.616
101321.678
101321.745
101321.815
101321.889
101321.968
101322.05
101322.138
101322.23
101322.327
101322.429
101322.537
101322.651
101322.77
101322.895
101323.03
101323.175
101323.326
101323.483
101323.647
101323.82
101324.002
101324.194
101324.395
101324.604
101324.821
101325.047
101325.283
101325.527
101325.779
101326.038
101326.301
101326.565
101326.826
101327.078
101327.315
101327.527
101327.705
101327.837
101327.91
101327.909
101327.819
101327.626
101327.309
101326.848
101326.243
101325.492
101324.545
101323.56
101322.299
101320.643
101319.978
101319.769
101317.782
101317.983
101317.985
101317.989
101317.994
101318.001
101318.01
101318.02
101318.032
101318.045
101318.06
101318.077
101318.096
101318.117
101318.14
101318.165
101318.192
101318.221
101318.252
101318.286
101318.322
101318.361
101318.402
101318.446
101318.493
101318.543
101318.596
101318.652
101318.712
101318.775
101318.843
101318.914
101318.989
101319.069
101319.153
101319.243
101319.337
101319.437
101319.543
101319.657
101319.777
101319.903
101320.036
101320.177
101320.327
101320.484
101320.651
101320.826
101321.011
101321.205
101321.408
101321.621
101321.843
101322.073
101322.312
101322.559
101322.815
101323.076
101323.341
101323.605
101323.862
101324.106
101324.329
101324.52
101324.668
101324.759
101324.779
101324.716
101324.556
101324.281
101323.882
101323.37
101322.776
101322.163
101321.252
101319.676
101318.569
101317.523
101315.586
101313.367
101311.197
101314.869
101314.871
101314.874
101314.878
101314.883
101314.89
101314.899
101314.909
101314.92
101314.933
101314.948
101314.964
101314.982
101315.002
101315.024
101315.048
101315.073
101315.101
101315.13
101315.162
101315.197
101315.233
101315.273
101315.315
101315.359
101315.407
101315.457
101315.511
101315.568
101315.629
101315.694
101315.762
101315.835
101315.912
101315.994
101316.082
101316.175
101316.273
101316.377
101316.489
101316.606
101316.732
101316.864
101317.004
101317.153
101317.31
101317.476
101317.65
101317.834
101318.028
101318.23
101318.441
101318.661
101318.887
101319.118
101319.355
101319.595
101319.836
101320.073
101320.301
101320.511
101320.694
101320.836
101320.924
101320.937
101320.855
101320.653
101320.314
101319.846
101319.316
101318.708
101317.894
101316.649
101315.5
101314.461
101312.65
101310.571
101308.895
101307.373
101304.548
101311.574
101311.575
101311.577
101311.58
101311.584
101311.589
101311.596
101311.603
101311.612
101311.622
101311.634
101311.647
101311.661
101311.677
101311.694
101311.713
101311.733
101311.756
101311.78
101311.805
101311.833
101311.863
101311.895
101311.929
101311.965
101312.004
101312.045
101312.089
101312.137
101312.187
101312.24
101312.296
101312.357
101312.422
101312.49
101312.564
101312.642
101312.725
101312.814
101312.908
101313.008
101313.115
101313.228
101313.348
101313.476
101313.611
101313.755
101313.906
101314.066
101314.234
101314.409
101314.593
101314.783
101314.978
101315.176
101315.372
101315.562
101315.744
101315.91
101316.055
101316.168
101316.236
101316.246
101316.18
101316.014
101315.729
101315.324
101314.815
101314.179
101313.282
101312.069
101310.736
101309.396
101307.741
101305.885
101304.045
101302.091
101299.735
101297.087
101294.459
101308.142
101308.142
101308.143
101308.144
101308.147
101308.15
101308.154
101308.159
101308.165
101308.171
101308.179
101308.187
101308.197
101308.208
101308.219
101308.232
101308.246
101308.261
101308.278
101308.295
101308.314
101308.335
101308.357
101308.38
101308.406
101308.433
101308.462
101308.492
101308.525
101308.56
101308.598
101308.639
101308.682
101308.729
101308.778
101308.831
101308.888
101308.948
101309.012
101309.081
101309.155
101309.233
101309.317
101309.406
101309.501
101309.601
101309.708
101309.821
101309.94
101310.064
101310.195
101310.331
101310.472
101310.617
101310.767
101310.92
101311.071
101311.207
101311.319
101311.397
101311.425
101311.383
101311.249
101310.998
101310.608
101310.073
101309.391
101308.542
101307.552
101306.39
101305.032
101303.286
101301.213
101298.958
101296.628
101294.184
101291.515
101288.594
101285.489
101282.233
101304.616
101304.616
101304.616
101304.616
101304.617
101304.617
101304.619
101304.621
101304.623
101304.625
101304.628
101304.632
101304.636
101304.64
101304.645
101304.65
101304.656
101304.662
101304.669
101304.677
101304.686
101304.695
101304.705
101304.715
101304.726
101304.738
101304.751
101304.765
101304.781
101304.797
101304.815
101304.835
101304.855
101304.878
101304.902
101304.928
101304.956
101304.986
101305.018
101305.053
101305.09
101305.13
101305.173
101305.22
101305.269
101305.322
101305.378
101305.437
101305.497
101305.556
101305.617
101305.68
101305.742
101305.798
101305.843
101305.875
101305.893
101305.892
101305.862
101305.792
101305.666
101305.467
101305.173
101304.758
101304.203
101303.498
101302.629
101301.558
101300.215
101298.574
101296.609
101294.486
101292.181
101289.485
101286.423
101283.097
101279.568
101275.926
101272.13
101267.841
101301.064
101301.063
101301.063
101301.062
101301.06
101301.059
101301.058
101301.056
101301.054
101301.052
101301.05
101301.048
101301.046
101301.043
101301.041
101301.038
101301.035
101301.031
101301.028
101301.024
101301.02
101301.016
101301.012
101301.007
101301.003
101300.998
101300.993
101300.988
101300.983
101300.978
101300.972
101300.966
101300.96
101300.954
101300.948
101300.942
101300.936
101300.93
101300.923
101300.917
101300.911
101300.904
101300.898
101300.89
101300.883
101300.875
101300.864
101300.843
101300.826
101300.81
101300.782
101300.746
101300.7
101300.644
101300.57
101300.472
101300.341
101300.173
101299.957
101299.689
101299.355
101298.937
101298.418
101297.779
101296.999
101296.054
101294.913
101293.52
101291.795
101289.747
101287.477
101284.938
101281.94
101278.598
101274.864
101270.583
101265.846
101260.68
101255.331
101249.878
101297.554
101297.554
101297.552
101297.55
101297.546
101297.543
101297.538
101297.533
101297.527
101297.52
101297.512
101297.504
101297.495
101297.485
101297.474
101297.462
101297.449
101297.436
101297.421
101297.405
101297.388
101297.371
101297.351
101297.331
101297.309
101297.286
101297.261
101297.235
101297.208
101297.178
101297.147
101297.114
101297.078
101297.041
101297.002
101296.961
101296.917
101296.871
101296.822
101296.77
101296.715
101296.657
101296.594
101296.527
101296.456
101296.374
101296.286
101296.192
101296.09
101295.983
101295.863
101295.728
101295.573
101295.399
101295.203
101294.98
101294.722
101294.418
101294.058
101293.629
101293.111
101292.484
101291.722
101290.803
101289.699
101288.375
101286.78
101284.881
101282.754
101280.409
101277.704
101274.596
101270.916
101266.565
101261.485
101255.412
101248.5
101241.553
101234.86
101226.055
101294.165
101294.163
101294.161
101294.157
101294.152
101294.146
101294.138
101294.129
101294.119
101294.107
101294.095
101294.08
101294.065
101294.047
101294.029
101294.008
101293.986
101293.962
101293.936
101293.909
101293.879
101293.847
101293.813
101293.777
101293.738
101293.696
101293.652
101293.605
101293.555
101293.502
101293.445
101293.385
101293.322
101293.254
101293.183
101293.107
101293.026
101292.941
101292.85
101292.753
101292.651
101292.542
101292.426
101292.3
101292.158
101292.009
101291.855
101291.692
101291.514
101291.319
101291.107
101290.876
101290.622
101290.34
101290.025
101289.67
101289.269
101288.815
101288.298
101287.693
101286.979
101286.136
101285.136
101283.952
101282.547
101280.895
101279.015
101277.055
101274.57
101271.172
101267.473
101263.669
101259.049
101253.474
101246.399
101238.42
101230.919
101223.488
101216.528
101210.825
101290.968
101290.966
101290.962
101290.957
101290.95
101290.941
101290.931
101290.918
101290.904
101290.888
101290.87
101290.85
101290.828
101290.804
101290.778
101290.749
101290.718
101290.684
101290.648
101290.609
101290.568
101290.523
101290.475
101290.424
101290.37
101290.312
101290.25
101290.183
101290.113
101290.038
101289.958
101289.874
101289.785
101289.689
101289.588
101289.481
101289.367
101289.246
101289.118
101288.981
101288.834
101288.676
101288.504
101288.324
101288.135
101287.933
101287.72
101287.491
101287.246
101286.981
101286.694
101286.383
101286.045
101285.678
101285.273
101284.824
101284.323
101283.758
101283.113
101282.368
101281.5
101280.488
101279.296
101277.914
101276.449
101274.896
101273.078
101270.473
101267.319
101264.178
101260.179
101254.893
101249.496
101243.914
101237.867
101231.636
101225.176
101218.691
101213.158
101208.816
101288.028
101288.025
101288.02
101288.013
101288.004
101287.993
101287.98
101287.965
101287.947
101287.927
101287.904
101287.879
101287.852
101287.822
101287.789
101287.753
101287.715
101287.673
101287.628
101287.58
101287.528
101287.473
101287.414
101287.351
101287.283
101287.211
101287.134
101287.052
101286.965
101286.873
101286.774
101286.67
101286.559
101286.442
101286.317
101286.184
101286.041
101285.89
101285.728
101285.554
101285.371
101285.18
101284.976
101284.759
101284.531
101284.289
101284.03
101283.754
101283.458
101283.141
101282.802
101282.437
101282.042
101281.614
101281.147
101280.637
101280.074
101279.442
101278.723
101277.925
101277.034
101276.045
101274.966
101273.75
101272.129
101269.976
101267.466
101264.85
101262.174
101259.037
101255.302
101251.139
101246.692
101241.917
101236.768
101231.295
101225.973
101220.917
101215.747
101211.02
101285.397
101285.393
101285.387
101285.378
101285.367
101285.354
101285.338
101285.319
101285.298
101285.275
101285.248
101285.219
101285.187
101285.152
101285.114
101285.073
101285.028
101284.981
101284.929
101284.874
101284.814
101284.751
101284.683
101284.611
101284.534
101284.451
101284.363
101284.27
101284.172
101284.068
101283.956
101283.837
101283.71
101283.575
101283.432
101283.281
101283.12
101282.949
101282.771
101282.581
101282.379
101282.167
101281.943
101281.706
101281.453
101281.186
101280.902
101280.6
101280.28
101279.94
101279.577
101279.19
101278.778
101278.336
101277.864
101277.354
101276.785
101276.149
101275.467
101274.685
101273.758
101272.687
101271.437
101270.021
101268.504
101266.863
101264.995
101262.9
101260.545
101257.868
101254.79
101251.408
101247.819
101243.989
101239.873
101235.709
101231.307
101225.949
101220.91
101216.828
101283.101
101283.095
101283.087
101283.076
101283.063
101283.047
101283.029
101283.008
101282.984
101282.958
101282.929
101282.897
101282.862
101282.824
101282.782
101282.738
101282.69
101282.638
101282.583
101282.523
101282.46
101282.392
101282.32
101282.243
101282.161
101282.074
101281.98
101281.881
101281.775
101281.662
101281.543
101281.418
101281.285
101281.145
101280.996
101280.838
101280.67
101280.492
101280.306
101280.11
101279.902
101279.681
101279.449
101279.203
101278.943
101278.669
101278.379
101278.073
101277.75
101277.408
101277.045
101276.661
101276.252