/*--------------------------------*- C++ -*----------------------------------*\
  =========                 |
  \\      /  F ield         | OpenFOAM: The Open Source CFD Toolbox
   \\    /   O peration     | Website:  https://openfoam.org
    \\  /    A nd           | Version:  8
     \\/     M anipulation  |
\*---------------------------------------------------------------------------*/
FoamFile
{
    version     2.0;
    format      ascii;
    class       surfaceScalarField;
    location    "0.017";
    object      phi;
}
// * * * * * * * * * * * * * * * * * * * * * * * * * * * * * * * * * * * * * //

dimensions      [1 0 -1 0 0 0 0];

internalField   nonuniform List<scalar> 
84340
(
-4.10720831e-08
3.06207814e-07
-2.64748637e-07
-1.76537381e-07
9.32795365e-07
-7.96704363e-07
-4.20325611e-07
1.59712128e-06
-1.35256034e-06
-7.84917032e-07
2.30440519e-06
-1.93891397e-06
-1.28127332e-06
3.05874586e-06
-2.56137735e-06
-1.91896312e-06
3.86261752e-06
-3.22381099e-06
-2.70622885e-06
4.71697303e-06
-3.92848839e-06
-3.6501495e-06
5.62171759e-06
-4.67647414e-06
-4.75681553e-06
6.5761138e-06
-5.46801647e-06
-6.03148115e-06
7.57909355e-06
-6.30288157e-06
-7.47867548e-06
8.62948765e-06
-7.18062389e-06
-9.10226532e-06
9.72617084e-06
-8.1007794e-06
-1.09054714e-05
1.08681344e-05
-9.06298447e-06
-1.28908417e-05
1.20545001e-05
-1.0067033e-05
-1.50601776e-05
1.32844862e-05
-1.11128889e-05
-1.74144389e-05
1.45573612e-05
-1.22006614e-05
-1.99536027e-05
1.58723727e-05
-1.33305801e-05
-2.26765092e-05
1.72286805e-05
-1.4502941e-05
-2.55806726e-05
1.86252943e-05
-1.57180786e-05
-2.86620722e-05
2.00610095e-05
-1.69763223e-05
-3.19149195e-05
2.15343524e-05
-1.82779655e-05
-3.53314001e-05
2.30435274e-05
-1.96232372e-05
-3.89013835e-05
2.45863569e-05
-2.10122745e-05
-4.26121136e-05
2.61602287e-05
-2.244509e-05
-4.64478472e-05
2.77620183e-05
-2.39215447e-05
-5.03894566e-05
2.93880108e-05
-2.54413072e-05
-5.44139786e-05
3.10337903e-05
-2.70037953e-05
-5.84940734e-05
3.26940998e-05
-2.86081273e-05
-6.25973653e-05
3.43626329e-05
-3.02530313e-05
-6.66856819e-05
3.60318373e-05
-3.19367495e-05
-7.07144424e-05
3.76929162e-05
-3.36568953e-05
-7.4632214e-05
3.93357365e-05
-3.54101886e-05
-7.8379384e-05
4.09476096e-05
-3.71921094e-05
-8.1882977e-05
4.25093478e-05
-3.89968045e-05
-8.5061828e-05
4.40059252e-05
-4.0817442e-05
-8.78244109e-05
4.54182596e-05
-4.26455007e-05
-9.00797101e-05
4.67333023e-05
-4.44672931e-05
-9.17153406e-05
4.79074242e-05
-4.62603257e-05
-9.25664022e-05
4.88794767e-05
-4.80160682e-05
-9.24365609e-05
4.96035679e-05
-4.97201892e-05
-9.11119233e-05
5.00136466e-05
-5.13242203e-05
-8.83679004e-05
5.00416683e-05
-5.27706604e-05
-8.39737677e-05
4.96028113e-05
-5.39808412e-05
-7.76504032e-05
4.86101898e-05
-5.49163886e-05
-6.90816023e-05
4.69446927e-05
-5.54952185e-05
-5.79258753e-05
4.44728906e-05
-5.56091838e-05
-4.37978205e-05
4.103108e-05
-5.51384676e-05
-2.63311408e-05
3.65205157e-05
-5.39652431e-05
-5.07422416e-06
3.0705259e-05
-5.19388354e-05
2.02446965e-05
2.35937506e-05
-4.88877838e-05
5.03774696e-05
1.44352973e-05
-4.45417807e-05
8.60491294e-05
3.10953011e-06
-3.87540256e-05
0.000128062072
-1.05782437e-05
-3.1406118e-05
0.0001774057
-2.70698685e-05
-2.22426528e-05
0.000235119934
-4.73098782e-05
-1.03706497e-05
0.00030234255
-7.14768226e-05
4.29022864e-06
0.000380543064
-0.000100063038
2.1901202e-05
0.000470788079
-0.000133786565
4.35832026e-05
0.000574403527
-0.000173323466
6.97530605e-05
0.000692981463
-0.000219370127
0.000100841153
0.000828237672
-0.00027267442
0.000137471556
0.000981692923
-0.000333894692
0.000180497139
0.00115474178
-0.000403623516
0.000230637342
0.00134861584
-0.000482420666
0.00028861479
0.00156422211
-0.000570746471
0.000355210139
0.00180223999
-0.000668889446
0.000430939523
0.00206423213
-0.000779046603
0.000517120804
0.00235449494
-0.000903703641
0.000613505416
0.0026687027
-0.00103201403
0.000717869352
0.00300623951
-0.00118238617
0.000844911302
0.00339725475
-0.00135645865
0.000965504947
0.00381191323
-0.00145944399
0.00104484669
0.00414823063
-0.00161008752
0.00127382978
0.00452624906
-0.00197234707
0.00159438741
0.00514390126
-0.00220441229
0.00158681701
0.00573625157
-0.00221098451
0.00161868698
0.00604113486
-0.00242042185
0.00211558705
0.00629930281
-0.00278719109
0.00252906673
0.00669775779
-0.00301473814
0.00261631367
-0.0030903071
0.00260271435
0.00718536365
-2.94304031e-08
3.36145975e-07
-1.28723944e-07
1.03280589e-06
-3.09754591e-07
1.77897524e-06
-5.83222862e-07
2.57879572e-06
-9.58524094e-07
3.43506337e-06
-1.44363026e-06
4.34883259e-06
-2.04529087e-06
5.31983704e-06
-2.76907784e-06
6.34680679e-06
-3.61951538e-06
7.4279585e-06
-4.60019447e-06
8.56129224e-06
-5.71385088e-06
9.74478463e-06
-6.96239971e-06
1.09764906e-05
-8.34692306e-06
1.22545693e-05
-9.86761149e-06
1.35772516e-05
-1.15236731e-05
1.4942774e-05
-1.33131905e-05
1.63492804e-05
-1.52329579e-05
1.77947304e-05
-1.7278281e-05
1.92767962e-05
-1.94427446e-05
2.07927674e-05
-2.17179574e-05
2.23394641e-05
-2.40932659e-05
2.39131515e-05
-2.65554328e-05
2.55094504e-05
-2.90882942e-05
2.7123258e-05
-3.16723674e-05
2.87486439e-05
-3.42843965e-05
3.03787118e-05
-3.68968127e-05
3.20054343e-05
-3.9477131e-05
3.36194809e-05
-4.19873216e-05
3.52100492e-05
-4.43830859e-05
3.67645703e-05
-4.6611971e-05
3.82673442e-05
-4.8613999e-05
3.97020026e-05
-5.03218997e-05
4.10511152e-05
-5.16641559e-05
4.2297857e-05
-5.25692169e-05
4.34229734e-05
-5.29357309e-05
4.43815548e-05
-5.26384633e-05
4.51306912e-05
-5.15072248e-05
4.56123819e-05
-4.93622439e-05
4.57734264e-05
-4.60219717e-05
4.55509438e-05
-4.12745407e-05
4.48686673e-05
-3.48969392e-05
4.36493695e-05
-2.66316085e-05
4.17904935e-05
-1.61914137e-05
3.9177643e-05
-3.24084546e-06
3.56755715e-05
1.25389937e-05
3.11817672e-05
3.15410728e-05
2.54887075e-05
5.39310566e-05
1.86601102e-05
8.05104942e-05
9.96103287e-06
0.000111930818
-6.94184473e-07
0.000148932976
-1.33860734e-05
0.000192351403
-2.89591696e-05
0.000243140394
-4.76539404e-05
0.000302448388
-6.98589357e-05
0.000371526387
-9.6118634e-05
0.000451301073
-0.000127053155
0.000543149629
-0.000163291576
0.000648631264
-0.000205508032
0.000769298899
-0.00025441458
0.000906719608
-0.000310701486
0.00106245019
-0.000375054764
0.00123785174
-0.000448026114
0.00143398432
-0.000529973854
0.00165165539
-0.000621240401
0.00189136809
-0.000722081087
0.00215392524
-0.000833252931
0.00244016552
-0.000955080263
0.00274909834
-0.00108793079
0.00308634256
-0.00124089968
0.00345275022
-0.0013983737
0.00382900137
-0.00155858926
0.00423016805
-0.00175757714
0.00470743819
-0.00193666603
0.00516378755
-0.00206638943
0.00549050024
-0.00229901306
0.00586981539
-0.00258368584
0.00638055942
-0.00272169306
0.00676268911
-0.00280251871
0.00692655571
-0.00295102286
0.00703813841
-0.00312628873
-0.0032673815
0.00721523176
-1.94979879e-08
3.56225747e-07
-8.77209792e-08
1.10185342e-06
-2.14504621e-07
1.90670741e-06
-4.08543964e-07
2.77389789e-06
-6.77392126e-07
3.70508218e-06
-1.02726758e-06
4.6999838e-06
-1.46298262e-06
5.75693376e-06
-1.98804292e-06
6.8733583e-06
-2.60497999e-06
8.04650184e-06
-3.3152745e-06
9.27331497e-06
-4.11940227e-06
1.05507705e-05
-5.0168408e-06
1.18759258e-05
-6.00603293e-06
1.32459061e-05
-7.08430514e-06
1.46578265e-05
-8.24774269e-06
1.61086829e-05
-9.49103119e-06
1.759522e-05
-1.0807253e-05
1.91137951e-05
-1.21876607e-05
2.06602508e-05
-1.36214129e-05
2.22297839e-05
-1.50952835e-05
2.38168302e-05
-1.65933181e-05
2.54149275e-05
-1.80963996e-05
2.70165349e-05
-1.95817402e-05
2.86128797e-05
-2.10223146e-05
3.01937936e-05
-2.23862474e-05
3.17475322e-05
-2.36360131e-05
3.32604218e-05
-2.47288837e-05
3.47179336e-05
-2.56167193e-05
3.61038337e-05
-2.62468834e-05
3.74010466e-05
-2.6564073e-05
3.85912586e-05
-2.64957279e-05
3.9640834e-05
-2.59550591e-05
4.0518057e-05
-2.48323681e-05
4.11832717e-05
-2.29912568e-05
4.1590514e-05
-2.02874999e-05
4.16869932e-05
-1.6558812e-05
4.14118197e-05
-1.16284633e-05
4.06925144e-05
-5.30883164e-06
3.94649405e-05
2.61846064e-06
3.7635499e-05
1.23990249e-05
3.51006818e-05
2.43217219e-05
3.17400318e-05
3.86717417e-05
2.74546349e-05
5.58032998e-05
2.20610892e-05
7.58764652e-05
1.56183598e-05
9.96118533e-05
7.46308373e-06
0.000127576651
-2.45871713e-06
0.000160439956
-1.41846014e-05
0.000199055582
-2.86345981e-05
0.000244239225
-4.58565534e-05
0.000297120239
-6.62444667e-05
0.000358519114
-9.0333937e-05
0.000429557349
-0.000118666476
0.00051154935
-0.000151823427
0.000605893518
-0.000190433257
0.000714025026
-0.000235152909
0.000837447751
-0.000286680416
0.000977675398
-0.000345699521
0.00113610076
-0.000412801292
0.00131400343
-0.000488562502
0.00151241225
-0.000573419533
0.00173227814
-0.000667847884
0.00197426956
-0.000771922912
0.00223882285
-0.000885752796
0.00252552162
-0.00100874011
0.00283369287
-0.00114138519
0.00316416991
-0.00128551868
0.00351305247
-0.00143677483
0.00387850571
-0.00160631411
0.00426562348
-0.00178545232
0.00466994298
-0.00196286882
0.00505697494
-0.00214456882
0.00546137191
-0.00234102359
0.00588464936
-0.00248963045
0.00620284429
-0.00261717377
0.00638371075
-0.00276451736
0.00656330327
-0.00290124485
0.00678817778
-0.00302735737
0.0069652981
-0.00312811389
0.00707688818
-0.00323783749
-0.00334808063
0.00715762097
-1.41858069e-08
3.70899749e-07
-6.47976156e-08
1.15315179e-06
-1.59657122e-07
2.00235287e-06
-3.05426164e-07
2.92054531e-06
-5.07522452e-07
3.90814495e-06
-7.70098164e-07
4.96361302e-06
-1.09585878e-06
6.08383714e-06
-1.48621518e-06
7.26495103e-06
-1.94111134e-06
8.50273348e-06
-2.45927856e-06
9.79292389e-06
-3.03846717e-06
1.1131515e-05
-3.67521158e-06
1.25143491e-05
-4.36476467e-06
1.39372705e-05
-5.10099639e-06
1.53960119e-05
-5.8762448e-06
1.68860379e-05
-6.68112013e-06
1.8402366e-05
-7.50427578e-06
1.99393972e-05
-8.33210692e-06
2.14907163e-05
-9.14836441e-06
2.30488766e-05
-9.93370451e-06
2.4605219e-05
-1.06652851e-05
2.61497839e-05
-1.13162927e-05
2.76710621e-05
-1.1856095e-05
2.91564618e-05
-1.22503592e-05
3.05921031e-05
-1.24612682e-05
3.19627668e-05
-1.24424822e-05
3.32462605e-05
-1.21393653e-05
3.44197548e-05
-1.14870525e-05
3.54567973e-05
-1.04076624e-05
3.63272941e-05
-8.80591758e-06
3.69955271e-05
-6.57857329e-06
3.74198901e-05
-3.60539633e-06
3.7551688e-05
2.52311614e-07
3.73328323e-05
5.15500106e-06
3.669558e-05
1.12681755e-05
3.55820651e-05
1.8780107e-05
3.39086478e-05
2.78983422e-05
3.15835766e-05
3.88698829e-05
2.85032644e-05
5.19848587e-05
2.45309729e-05
6.75571966e-05
1.95394069e-05
8.57444352e-05
1.35645517e-05
0.000107180966
6.03040015e-06
0.000132371322
-3.1164765e-06
0.000161915353
-1.39120024e-05
0.000196572647
-2.71795274e-05
0.000237102762
-4.29732332e-05
0.000284592451
-6.16576953e-05
0.000339685983
-8.37104712e-05
0.00040346274
-0.000109614474
0.000477131227
-0.00013989283
0.000561950189
-0.000175131285
0.000659261663
-0.000215954765
0.000770488079
-0.000263025056
0.00089703323
-0.000316952017
0.00104029516
-0.000378386686
0.00120157039
-0.000447925536
0.00138196597
-0.000526062644
0.00158234976
-0.000613150826
0.00180335121
-0.000709529694
0.0020453751
-0.00081541042
0.00230873246
-0.000931173299
0.0025931721
-0.00105633148
0.00289819797
-0.00119074818
0.00322124899
-0.00133176094
0.00355897567
-0.00147908171
0.00390945116
-0.00163596375
0.00427068422
-0.00179797701
0.00463452306
-0.00197012148
0.00499244928
-0.00214334717
0.00533822367
-0.00230861394
0.00563761602
-0.00244393233
0.00587205385
-0.00257542715
0.00607185823
-0.00268939971
0.0062583353
-0.00280361513
0.00641571889
-0.00292186679
0.00654273648
-0.00302822434
0.00665642093
-0.00314100471
0.00676781227
-0.00323947371
0.00687212722
-0.00334212
-0.00344412592
0.00696819394
-1.39532606e-08
3.85452255e-07
-6.22181491e-08
1.20225908e-06
-1.50670183e-07
2.0917687e-06
-2.83892443e-07
3.05484323e-06
-4.65082012e-07
4.09051514e-06
-6.95929155e-07
5.19574277e-06
-9.76703431e-07
6.36599688e-06
-1.30620825e-06
7.59594744e-06
-1.68159596e-06
8.87972408e-06
-2.09853625e-06
1.02115844e-05
-2.55110595e-06
1.15859289e-05
-3.03215048e-06
1.29973694e-05
-3.53289345e-06
1.44401289e-05
-4.04278249e-06
1.59081647e-05
-4.54927561e-06
1.73949525e-05
-5.03757073e-06
1.88932498e-05
-5.49029549e-06
2.03948876e-05
-5.88724995e-06
2.18906251e-05
-6.2051361e-06
2.33699185e-05
-6.41754968e-06
2.48209942e-05
-6.49316334e-06
2.62289764e-05
-6.39541335e-06
2.75771266e-05
-6.0817374e-06
2.88468485e-05
-5.50196352e-06
3.00166504e-05
-4.59661278e-06
3.1062013e-05
-3.30000502e-06
3.19545471e-05
-1.53550637e-06
3.26604613e-05
7.8661086e-07
3.31402102e-05
3.77249876e-06
3.33473013e-05
7.54693123e-06
3.32273778e-05
1.22422446e-05
3.27312545e-05
1.80089675e-05
3.17920636e-05
2.50152642e-05
3.03340796e-05
3.34465879e-05
2.82722688e-05
4.35269849e-05
2.55101776e-05
5.55195631e-05
2.1925094e-05
6.97168567e-05
1.73958743e-05
8.63037273e-05
1.1926605e-05
0.000105807288
5.03810609e-06
0.000128684172
-3.32632163e-06
0.000155474888
-1.32142265e-05
0.000186852993
-2.53348882e-05
0.000223508114
-3.9757965e-05
0.000266429174
-5.68185671e-05
0.00031620623
-7.69411564e-05
0.000373808272
-0.000100558854
0.000440319099
-0.000128151007
0.000516876243
-0.000160248896
0.000604706589
-0.000197424802
0.000705096912
-0.000240261873
0.000819370019
-0.00028938183
0.000948853678
-0.000345414553
0.00109482938
-0.000408975479
0.00125852166
-0.000480617451
0.00144092316
-0.000560759467
0.00164265232
-0.000649624619
0.00186394624
-0.000747326728
0.00210463332
-0.000853809351
0.0023642451
-0.000969114061
0.00264198176
-0.00109312064
0.00293684403
-0.00122600986
0.00324662306
-0.00136608532
0.00356924319
-0.00151334338
0.00389953643
-0.00166202925
0.00423545097
-0.00181497113
0.00456776171
-0.00196824925
0.00488805654
-0.00211824816
0.00517765073
-0.00225969237
0.00541986017
-0.00238553085
0.00560866736
-0.00249739409
0.00577180348
-0.00260703382
0.0059121107
-0.00271569925
0.0060388418
-0.00281610583
0.00615118334
-0.00291592875
0.00625333898
-0.00302399145
0.00634798724
-0.00312284089
0.0064321952
-0.00322518329
0.00651965664
-0.00332691135
0.00660539792
-0.00342783797
-0.00353248829
0.00669377949
-1.75178388e-08
4.03414254e-07
-7.45415348e-08
1.25990542e-06
-1.75050457e-07
2.19298897e-06
-3.21428284e-07
3.20201513e-06
-5.14415378e-07
4.28437528e-06
-7.529965e-07
5.43527513e-06
-1.03435491e-06
6.64838644e-06
-1.35386346e-06
7.91657092e-06
-1.70531221e-06
9.23237751e-06
-2.08064382e-06
1.05882176e-05
-2.46967307e-06
1.19763636e-05
-2.86024441e-06
1.33894574e-05
-3.23823736e-06
1.48197583e-05
-3.58714879e-06
1.62588411e-05
-3.88781823e-06
1.76975256e-05
-4.11808776e-06
1.91255718e-05
-4.25237122e-06
2.05313782e-05
-4.2609734e-06
2.19015992e-05
-4.10914028e-06
2.32206409e-05
-3.75679918e-06
2.44713992e-05
-3.15953756e-06
2.56346587e-05
-2.26602423e-06
2.66867695e-05
-1.01609465e-06
2.76002987e-05
6.61077763e-07
2.83431023e-05
2.84930471e-06
2.88776726e-05
5.64233318e-06
2.91656752e-05
9.14584745e-06
2.9161387e-05
1.34791161e-05
2.88116816e-05
1.87761091e-05
2.80553645e-05
2.51865702e-05
2.68223038e-05
3.28902514e-05
2.50333079e-05
4.20903211e-05
2.25980933e-05
5.30250644e-05
1.94058141e-05
6.5961491e-05
1.53427296e-05
8.10899509e-05
1.03890497e-05
9.88753352e-05
4.14739996e-06
0.000119734303
-3.45504518e-06
0.000144152681
-1.24831789e-05
0.000172691914
-2.34919295e-05
0.000205984794
-3.66094345e-05
0.000244915216
-5.21342691e-05
0.000290030823
-7.04394646e-05
0.000342199602
-9.19150039e-05
0.000402388173
-0.000116994632
0.000471608099
-0.000146147719
0.000550954189
-0.000179890658
0.000641587542
-0.000218769132
0.000744709625
-0.00026335481
0.000861545499
-0.000314243499
0.000993328346
-0.00037202649
0.00114122698
-0.000437261099
0.00130625953
-0.000510426454
0.00148919917
-0.000591892947
0.00169039753
-0.000681792395
0.00190982172
-0.000780160184
0.00214700085
-0.000886781088
0.00240096695
-0.00100127093
0.00267016089
-0.00112298203
0.00295241944
-0.00125135185
0.0032450307
-0.00138571151
0.0035452239
-0.00152618284
0.00384848825
-0.00166932943
0.00415286286
-0.0018176976
0.00444998863
-0.00195913514
0.00472601931
-0.00209098329
0.00496755881
-0.00220977095
0.00516941038
-0.00232007873
0.00533001774
-0.00242027054
0.0054667243
-0.00252221135
0.00558576944
-0.00261641877
0.00569140791
-0.00271264657
0.005784524
-0.00280878951
0.00587387625
-0.00290543821
0.00595551131
-0.00299754335
0.00602614066
-0.00309459824
0.00610593017
-0.00320260877
0.00619648676
-0.00331571968
0.00629430806
-0.00342470934
0.00639588404
-0.00352939003
-0.00362614958
0.0064895622
-2.24627502e-08
4.26431392e-07
-9.23000612e-08
1.33051893e-06
-2.11306826e-07
2.31288129e-06
-3.79300493e-07
3.37099514e-06
-5.94078985e-07
4.50023475e-06
-8.51320037e-07
5.6936891e-06
-1.14452833e-06
6.94285991e-06
-1.4650033e-06
8.2384056e-06
-1.80179768e-06
9.57063034e-06
-2.14170675e-06
1.09296904e-05
-2.46920316e-06
1.23055358e-05
-2.765699e-06
1.36877471e-05
-3.00969687e-06
1.50656748e-05
-3.17649533e-06
1.64276897e-05
-3.23767517e-06
1.77608964e-05
-3.16062712e-06
1.90508643e-05
-2.90813241e-06
2.02813771e-05
-2.43776749e-06
2.14338895e-05
-1.70074365e-06
2.2486451e-05
-6.39706207e-07
2.34133854e-05
8.10905812e-07
2.41872666e-05
2.72577203e-06
2.47753308e-05
5.18927937e-06
2.51404413e-05
8.29676469e-06
2.52395028e-05
1.21552771e-05
2.50232951e-05
1.68900466e-05
2.44353037e-05
2.26452688e-05
2.3410842e-05
2.95854921e-05
2.18764305e-05
3.78976568e-05
1.97484857e-05
4.77989081e-05
1.69266665e-05
5.9533837e-05
1.33043531e-05
7.3293457e-05
8.84483843e-06
8.948439e-05
3.22158039e-06
0.000108480948
-3.64679028e-06
0.000130715369
-1.18378411e-05
0.000156684027
-2.18131903e-05
0.000186943665
-3.37060894e-05
0.000222256757
-4.77871161e-05
0.00026316002
-6.43854351e-05
0.000310412372
-8.38513836e-05
0.000364861343
-0.000106572138
0.000427406022
-0.000132972277
0.000499019543
-0.000163515824
0.000580735949
-0.0001986975
0.000673642034
-0.000239039422
0.000778849893
-0.000285083264
0.000897470325
-0.000337373395
0.00103057057
-0.000396437939
0.00117910642
-0.000462761239
0.00134384401
-0.000536744879
0.00152528424
-0.000618680827
0.00172347869
-0.000708599202
0.00193805411
-0.000806446515
0.00216818074
-0.000911898018
0.00241256712
-0.00102452635
0.00266945999
-0.00114365442
0.0029364121
-0.00126820407
0.00320998701
-0.00139653838
0.00348650719
-0.00152785374
0.00376123282
-0.00166041884
0.00403105874
-0.00179599054
0.00428848196
-0.00192673545
0.00451952645
-0.00204872577
0.0047177095
-0.00215730034
0.00488010418
-0.00225335832
0.00501717433
-0.0023468224
0.00513723662
-0.00244012006
0.00524628573
-0.0025292983
0.00534137006
-0.00261727961
0.00543135009
-0.00270637909
0.00551218351
-0.00279345954
0.00558384753
-0.00288043541
0.00565323083
-0.00297480362
0.00572381631
-0.00306811394
0.00579371573
-0.00316448258
0.00586989688
-0.00327877353
0.00595808299
-0.00340388949
0.0060570413
-0.00352364863
0.0061587811
-0.00363111143
-0.003727477
0.0062601228
-2.59945666e-08
4.52814158e-07
-1.03762424e-07
1.40883076e-06
-2.32365341e-07
2.44210551e-06
-4.08381093e-07
3.54770435e-06
-6.25868274e-07
4.7184843e-06
-8.76272424e-07
5.94492391e-06
-1.14835197e-06
7.21584006e-06
-1.42810819e-06
8.51913574e-06
-1.69867538e-06
9.84224948e-06
-1.94022282e-06
1.11723736e-05
-2.12966467e-06
1.2496204e-05
-2.24023479e-06
1.37996421e-05
-2.24086897e-06
1.50677397e-05
-2.0962397e-06
1.62846034e-05
-1.76588494e-06
1.74322054e-05
-1.20349956e-06
1.84902721e-05
-3.5609492e-07
1.94359037e-05
8.36942104e-07
2.02429317e-05
2.44420087e-06
2.08814285e-05
4.54333403e-06
2.13166551e-05
7.22378631e-06
2.15093956e-05
1.05876944e-05
2.14141932e-05
1.47516987e-05
2.09794073e-05
1.98487324e-05
2.01456503e-05
2.60300757e-05
1.88453562e-05
3.34673552e-05
1.70016642e-05
4.23582966e-05
1.45237867e-05
5.29264646e-05
1.13124145e-05
6.53594008e-05
7.31998829e-06
8.00127601e-05
2.27799926e-06
9.72215857e-05
-3.89952272e-06
0.000117370289
-1.12985677e-05
0.000140898712
-2.03011684e-05
0.00016829975
-3.10417857e-05
0.000200233409
-4.37650656e-05
0.000237189545
-5.8762476e-05
0.000279838288
-7.63475363e-05
0.000328925918
-9.6866973e-05
0.000385249843
-0.000120701068
0.000449673382
-0.00014826606
0.000523117002
-0.000180006311
0.000606543769
-0.000216389014
0.000700942695
-0.000257904099
0.000807304238
-0.000305047743
0.000926584615
-0.000358307808
0.00105965755
-0.00041814348
0.00120725636
-0.000484958701
0.00136990126
-0.000559068516
0.00154780433
-0.000640648974
0.00174073747
-0.000729661531
0.0019479754
-0.000825901804
0.00216830847
-0.000928915727
0.0024000265
-0.00103814843
0.00264100501
-0.00115286078
0.00288841826
-0.00127192413
0.0031388811
-0.00139410197
0.00338872102
-0.00151802879
0.00363288239
-0.00164068443
0.00386790062
-0.00176285655
0.00408764798
-0.00188015168
0.00428189313
-0.00199022208
0.0044450908
-0.00208991734
0.00457562549
-0.00217924077
0.0046873311
-0.00226898747
0.00478878966
-0.00235480281
0.00488166579
-0.00243968298
0.00496867944
-0.00252711468
0.00505065174
-0.00261125323
0.00512667702
-0.00269329042
0.00520170591
-0.00278139385
0.00527566271
-0.00286740394
0.00535094981
-0.00295570998
0.00542820268
-0.00305204327
0.00550674871
-0.00314664717
0.00558559069
-0.0032433124
0.00566398124
-0.00335715152
0.00574170456
-0.00348159842
0.00582546931
-0.00360739989
0.00591478242
-0.00372041131
-0.00382981415
0.00601713625
-2.48642246e-08
4.78167662e-07
-9.6561161e-08
1.48121216e-06
-2.10705234e-07
2.55702996e-06
-3.59777872e-07
3.69764572e-06
-5.3312552e-07
4.89278366e-06
-7.16865772e-07
6.12969633e-06
-8.93780915e-07
7.39386802e-06
-1.04314837e-06
8.66969955e-06
-1.14052301e-06
9.94090787e-06
-1.15746762e-06
1.11906932e-05
-1.06113556e-06
1.24013435e-05
-8.13952815e-07
1.35540347e-05
-3.72866272e-07
1.46283388e-05
3.11462258e-07
1.56020763e-05
1.29515843e-06
1.64504338e-05
2.64212125e-06
1.71453637e-05
4.42519615e-06
1.76550196e-05
6.7273791e-06
1.7943085e-05
9.64308236e-06
1.79682177e-05
1.32796491e-05
1.76827457e-05
1.7759128e-05
1.70327482e-05
2.32198381e-05
1.59564988e-05
2.98186762e-05
1.43837808e-05
3.77351119e-05
1.22326317e-05
4.71727755e-05
9.41133332e-06
5.83124843e-05
5.86583816e-06
7.14648893e-05
1.37548567e-06
8.69289475e-05
-4.14731164e-06
0.000105046109
-1.07925407e-05
0.000126205438
-1.88763722e-05
0.000150841757
-2.85305567e-05
0.000179524608
-3.99757855e-05
0.000212699411
-5.34699634e-05
0.000250956819
-6.92927833e-05
0.000294952179
-8.77535844e-05
0.000345388599
-0.000109191585
0.000403025817
-0.000133976925
0.000468674077
-0.000162506869
0.000543182144
-0.000195200231
0.000627422805
-0.000232497253
0.000722273472
-0.000274846918
0.000828590202
-0.000322695064
0.000947166084
-0.00037646865
0.00107868613
-0.000436555784
0.00122367208
-0.000503281032
0.00138241649
-0.000576874422
0.00155490189
-0.000657429767
0.00174070678
-0.000744858061
0.00193885893
-0.000838785147
0.00214788144
-0.000938668195
0.00236577278
-0.00104377773
0.00259012701
-0.00115325491
0.00281788092
-0.00126588757
0.00304568909
-0.00138065436
0.00326947609
-0.00149569661
0.00348495097
-0.00160956224
0.00368852552
-0.00172158866
0.00387522066
-0.00182736538
0.00403918725
-0.00192681001
0.0041766471
-0.00201759683
0.00428679424
-0.0021003502
0.00438112785
-0.00218423331
0.00446699469
-0.00226509395
0.00454496111
-0.00234694053
0.00461861205
-0.00242844116
0.00468657273
-0.00250762824
0.00475151374
-0.00259204012
0.00481525081
-0.0026749785
0.004879876
-0.00275790381
0.00495026469
-0.00285177005
0.00502727422
-0.00294440202
0.00510874478
-0.00303716986
0.00519252916
-0.00313581787
0.0052812541
-0.00323536284
0.00536963399
-0.00333168322
0.00545028212
-0.00343778987
0.00551979706
-0.00355110401
0.00558901235
-0.00367660381
0.00566231667
-0.00379370199
-0.00390637024
0.0057388862
-1.83340989e-08
4.9684306e-07
-6.66774263e-08
1.53003443e-06
-1.36001724e-07
2.62690175e-06
-2.13425729e-07
3.77568108e-06
-2.82186518e-07
4.96221696e-06
-3.21493617e-07
6.1697365e-06
-3.06378682e-07
7.37954802e-06
-2.07406858e-07
8.57158803e-06
9.68258821e-09
9.72474835e-06
3.84465784e-07
1.08169142e-05
9.62198849e-07
1.18246947e-05
1.79444628e-06
1.27229577e-05
2.93976821e-06
1.34842801e-05
4.4649167e-06
1.40782901e-05
6.44586268e-06
1.44709562e-05
8.96879439e-06
1.46240149e-05
1.21315916e-05
1.44939283e-05
1.60452149e-05
1.40312985e-05
2.08354012e-05
1.31800074e-05
2.66440562e-05
1.1876215e-05
3.36330296e-05
1.00460555e-05
4.19863525e-05
7.60562546e-06
5.1875699e-05
4.49706611e-06
6.35711092e-05
5.40025314e-07
7.73381561e-05
-4.35273203e-06
9.34791883e-05
-1.02719919e-05
0.000112337232
-1.74791185e-05
0.000134294313
-2.61007163e-05
0.000159840756
-3.63350544e-05
0.000189378466
-4.84098853e-05
0.000223426057
-6.25736662e-05
0.000262556223
-7.91011692e-05
0.000307385153
-9.82937869e-05
0.000358577629
-0.000120479802
0.000416842696
-0.000146012829
0.000482924489
-0.000175267187
0.000557590696
-0.000208636559
0.000641616421
-0.000246525623
0.000735763321
-0.000289339743
0.000840746212
-0.000337472318
0.000957196203
-0.000391288625
0.00108561629
-0.000451106381
0.00122632969
-0.000517172778
0.00137942199
-0.000589638257
0.00154467729
-0.000668525925
0.00172150517
-0.000753691184
0.00190884169
-0.000844754414
0.00210509849
-0.000941102708
0.00230819835
-0.00104187306
0.00251565857
-0.00114611661
0.00272454683
-0.00125265428
0.00293151669
-0.00136021308
0.00313283755
-0.00146719665
0.00332502052
-0.00157282528
0.00350420869
-0.00167487246
0.00366625935
-0.00177160111
0.00380616006
-0.00186147803
0.00392326768
-0.00194445964
0.00401795864
-0.00202148752
0.00409852711
-0.00209815214
0.0041719687
-0.00217377645
0.00423801306
-0.00225026434
0.00429984994
-0.00232691887
0.00435966863
-0.00240674568
0.00441761299
-0.00248637215
0.00447622316
-0.00256622566
0.00453445179
-0.00265025708
0.0045962718
-0.0027367875
0.0046628019
-0.00282442411
0.00473326478
-0.00292222422
0.00481009991
-0.00302122961
0.00488808221
-0.00311514542
0.00496541497
-0.00321314457
0.00504489364
-0.00331483595
0.00512213027
-0.0034089137
0.00519473964
-0.00351039204
0.00525967595
-0.00361603148
0.00531460399
-0.00373151679
0.0053797963
-0.003858878
-0.0039795
0.00545293816
-5.64854338e-09
5.02918548e-07
-1.12614102e-08
1.53624429e-06
-1.56125753e-09
2.61788206e-06
4.33946441e-08
3.73148265e-06
1.48316e-07
4.85812575e-06
3.42899431e-07
5.97605403e-06
6.62098493e-07
7.06132101e-06
1.14642816e-06
8.08830357e-06
1.84238906e-06
9.02990914e-06
2.80308527e-06
9.85742033e-06
4.08896783e-06
1.05401e-05
5.76872675e-06
1.10445766e-05
7.92033716e-06
1.13341429e-05
1.0632219e-05
1.13679842e-05
1.40044859e-05
1.11003745e-05
1.81502557e-05
1.04800458e-05
2.31972824e-05
9.44882485e-06
2.929052e-05
7.94011343e-06
3.65942859e-05
5.87843354e-06
4.52694047e-05
3.20343847e-06
5.55490063e-05
-2.31059696e-07
6.7667724e-05
-4.51045599e-06
8.18918791e-05
-9.72426952e-06
9.85223392e-05
-1.60874183e-05
0.000117893004
-2.37201798e-05
0.000140424282
-3.27998395e-05
0.000166475981
-4.35271588e-05
0.00019650128
-5.61221132e-05
0.000230998275
-7.08278867e-05
0.000270504122
-8.79112904e-05
0.000315597665
-0.000107662464
0.000366896492
-0.000130394931
0.000425049873
-0.000156441774
0.000490729466
-0.000186153663
0.000564616338
-0.000219893614
0.000647383815
-0.000258028206
0.000739671605
-0.000300917505
0.000842055147
-0.000348901916
0.000955009355
-0.000402286279
0.00107886611
-0.00046132096
0.00121376643
-0.000526180369
0.00135960833
-0.000596939237
0.00151599264
-0.00067354753
0.00168216921
-0.000755804701
0.00185698309
-0.000843328991
0.00203880461
-0.000935501357
0.00222554999
-0.0010314884
0.00241474436
-0.00113028582
0.00260363549
-0.00123075304
0.00278913159
-0.00133160158
0.002967947
-0.0014314585
0.00313675472
-0.00152900939
0.00329259661
-0.00162302698
0.00343208607
-0.00171230331
0.00355248812
-0.00179526273
0.00365373805
-0.00187283747
0.00373871797
-0.00194644465
0.00381401357
-0.00201974299
0.00388339101
-0.0020908515
0.00394735178
-0.0021620987
0.00400705142
-0.00223346174
0.00406244553
-0.00230564599
0.00411489519
-0.00237935699
0.00416747117
-0.00245930896
0.00422279366
-0.00254168278
0.00428231749
-0.00262573831
0.00434365958
-0.00271158914
0.00440584948
-0.00279896931
0.00446957657
-0.00288814511
0.00452860783
-0.00298125034
0.00458909785
-0.00308171544
0.00464900393
-0.00317504758
0.00470379233
-0.00326792802
0.00475901375
-0.00337005205
0.00482390482
-0.00347379958
0.00489249283
-0.00357897142
0.00496509557
-0.00368862491
0.00502794148
-0.00379435383
0.00507112011
-0.00390204167
-0.00402381328
0.00511545483
1.37318636e-08
4.89489545e-07
7.22509598e-08
1.47814966e-06
1.98790446e-07
2.49182754e-06
4.2221353e-07
3.50860111e-06
7.77149847e-07
4.50378513e-06
1.30426111e-06
5.44959221e-06
2.05063013e-06
6.3156566e-06
3.07024297e-06
7.0694533e-06
4.42462173e-06
7.67635472e-06
6.18363601e-06
8.09929615e-06
8.42637709e-06
8.29831957e-06
1.12425824e-05
8.22940892e-06
1.47333985e-05
7.84444781e-06
1.90130146e-05
7.08957821e-06
2.42102388e-05
5.90445579e-06
3.04707178e-05
4.2209756e-06
3.79429648e-05
1.97809849e-06
4.68267677e-05
-9.42057383e-07
5.7328831e-05
-4.62188028e-06
6.96823959e-05
-9.14823938e-06
8.41498233e-05
-1.46964524e-05
0.000101021495
-2.13799416e-05
0.000120655879
-2.93563042e-05
0.000143373137
-3.88021568e-05
0.000169567282
-4.99116218e-05
0.00019966955
-6.28992117e-05
0.000234145793
-7.80003009e-05
0.000273497593
-9.54705932e-05
0.000318260364
-0.000115587106
0.000368997949
-0.000138645087
0.00042629539
-0.000164955876
0.000490748502
-0.000194843765
0.000562950096
-0.000228638834
0.000643470115
-0.000266668885
0.000732830535
-0.000309248965
0.000831476076
-0.0003566684
0.000939739494
-0.00040917529
0.00105780214
-0.000466958639
0.00118565028
-0.000530128183
0.00132302898
-0.000598693124
0.00146939554
-0.000672540071
0.00162387586
-0.000751412344
0.00178522832
-0.000834892396
0.00195181946
-0.000922387753
0.00212159561
-0.00101309673
0.0022921389
-0.0011060362
0.00246080686
-0.00120014794
0.00262483326
-0.00129430377
0.00278137434
-0.00138728559
0.00292768127
-0.00147789977
0.00306130535
-0.00156507359
0.00318057216
-0.00164826688
0.00328420683
-0.0017266518
0.00337233029
-0.00180041624
0.00344811997
-0.00187104261
0.00351550476
-0.00194021222