/*--------------------------------*- C++ -*----------------------------------*\
  =========                 |
  \\      /  F ield         | OpenFOAM: The Open Source CFD Toolbox
   \\    /   O peration     | Website:  https://openfoam.org
    \\  /    A nd           | Version:  8
     \\/     M anipulation  |
\*---------------------------------------------------------------------------*/
FoamFile
{
    version     2.0;
    format      ascii;
    class       volVectorField;
    location    "0.017";
    object      U;
}
// * * * * * * * * * * * * * * * * * * * * * * * * * * * * * * * * * * * * * //

dimensions      [0 1 -1 0 0 0 0];

internalField   nonuniform List<vector> 
42400
(
(-0.0175669235 0.0168523959 -7.29033428e-27)
(-0.051849383 0.0490391114 2.5443693e-26)
(-0.0861743618 0.0803220242 2.94167665e-26)
(-0.120850001 0.110879708 0)
(-0.156067052 0.140829853 0)
(-0.191898108 0.17018082 -9.14332705e-28)
(-0.228322878 0.198862519 0)
(-0.265258751 0.226760285 1.00429924e-27)
(-0.302589232 0.253740458 0)
(-0.340185019 0.279668334 1.10077343e-27)
(-0.377918003 0.304420067 1.15141004e-27)
(-0.415669343 0.327889437 -1.20359975e-27)
(-0.453332863 0.349990537 -7.89262614e-26)
(-0.490815156 0.370657657 -8.58438168e-26)
(-0.52803372 0.389843589 -1.3688487e-27)
(-0.564914178 0.407517297 0)
(-0.601387318 0.423661595 0)
(-0.637386375 0.438271178 0)
(-0.672844757 0.451351166 0)
(-0.707694261 0.462916157 0)
(-0.741863698 0.472989723 0)
(-0.775277828 0.481604213 -3.57644033e-27)
(-0.807856472 0.488800765 -1.82091233e-25)
(-0.839513674 0.494629387 -3.9039525e-25)
(-0.870156791 0.499149053 -2.09362713e-25)
(-0.899685408 0.502427723 -4.04766197e-27)
(-0.92798998 0.504542294 -4.15656664e-27)
(-0.954950015 0.505578443 8.51935489e-27)
(-0.980431556 0.505630417 0)
(-1.00428395 0.504800861 0)
(-1.02633688 0.503200173 3.33205533e-25)
(-1.04639524 0.500942531 3.58624409e-25)
(-1.06421317 0.49812791 9.2672975e-27)
(-1.07950908 0.494866202 -4.14479376e-25)
(-1.09201265 0.491285382 -4.54326131e-25)
(-1.10145539 0.487532224 0)
(-1.10721818 0.484069024 0)
(-1.10887724 0.480405979 0)
(-1.1060621 0.476321673 0)
(-1.09827452 0.473182743 -6.81419207e-25)
(-1.08392362 0.470726256 -7.53400905e-25)
(-1.06204707 0.468396032 -7.58624526e-25)
(-1.03045911 0.466419212 -1.44222866e-24)
(-0.98904582 0.463944505 -1.49426192e-26)
(-0.935828926 0.461820044 7.72023325e-25)
(-0.869303225 0.460050217 7.85272805e-25)
(-0.787701299 0.458592023 7.92628651e-27)
(-0.68898525 0.457202412 -8.82201929e-25)
(-0.57099997 0.455661244 1.0159926e-27)
(-0.432022908 0.453368213 -9.32901832e-25)
(-0.267416174 0.450015442 -1.34769469e-34)
(-0.0763749694 0.446781615 1.51352583e-24)
(0.14228417 0.445813164 9.45881178e-25)
(0.391437875 0.445209422 -3.76871314e-26)
(0.691721272 0.440672158 0)
(1.03747514 0.432650723 0)
(1.43382419 0.423523358 0)
(1.88784883 0.4134091 1.02399024e-25)
(2.40394008 0.402036424 1.29128677e-25)
(2.98700559 0.389489857 0)
(3.64154947 0.375776522 -3.079855e-24)
(4.37076159 0.360645644 -3.56877792e-24)
(5.17584653 0.344173266 3.41952087e-24)
(6.05651361 0.32682496 3.34697775e-24)
(7.01178404 0.310590638 0)
(8.03394226 0.296998168 0)
(9.12730729 0.278938593 3.09724591e-24)
(10.2856584 0.268976759 3.21412481e-24)
(11.4589222 0.298910691 1.19968268e-24)
(12.7689187 0.223226442 0)
(14.0452942 0.248894722 0)
(14.8467187 0.833383093 1.76266351e-24)
(16.3280549 0.654338812 1.69943614e-24)
(18.5695211 -0.820848719 0)
(19.240056 -0.241806298 2.19974606e-24)
(19.4130838 1.81819123 -6.70248012e-25)
(21.2145338 1.08093531 5.2466886e-24)
(22.8467311 -0.89779867 -6.20336339e-24)
(23.469746 -0.981654394 -1.34431328e-23)
(23.4692271 -0.0349202107 -6.91298268e-23)
(-0.0204523556 0.018151307 0)
(-0.0608222832 0.0534841421 1.90600484e-26)
(-0.101537519 0.0884414662 2.2160541e-26)
(-0.142780675 0.123086938 0)
(-0.184610411 0.157416381 0)
(-0.226992908 0.191343001 3.17248451e-26)
(-0.269806019 0.224717239 3.62725461e-26)
(-0.312882402 0.25736154 7.1263673e-28)
(-0.356036802 0.289094918 0)
(-0.399084841 0.319748014 7.77553624e-28)
(-0.441854168 0.349171738 8.1115929e-28)
(-0.484189596 0.377241045 -5.89983532e-26)
(-0.525953843 0.403855205 -1.27837774e-25)
(-0.567025398 0.428935859 -7.0076572e-26)
(-0.607294902 0.45242405 7.52563327e-26)
(-0.646661046 0.474277079 8.47134501e-26)
(-0.685026685 0.494465728 0)
(-0.722295473 0.512972109 2.05559501e-27)
(-0.758369167 0.529788198 0)
(-0.793145551 0.544915 0)
(-0.82651686 0.558362215 0)
(-0.858368533 0.570148252 -1.37380256e-25)
(-0.888578131 0.580300437 -2.95269313e-25)
(-0.917014242 0.588855279 -1.58881394e-25)
(-0.94353512 0.595858693 0)
(-0.967986854 0.601366183 -5.04245989e-27)
(-0.990201079 0.605442792 -2.60946314e-27)
(-1.00999151 0.608161986 5.26308972e-27)
(-1.02714737 0.609604073 -2.36925384e-25)
(-1.04142094 0.609856479 -2.56427148e-25)
(-1.05254259 0.609016785 -4.84444867e-27)
(-1.06031531 0.607104875 -4.62453961e-27)
(-1.0641429 0.604643881 -2.88674993e-25)
(-1.06409103 0.601024017 -2.99676981e-25)
(-1.05945063 0.596874225 3.01858321e-25)
(-1.04972711 0.592335847 3.54666454e-25)
(-1.03512046 0.586911068 0)
(-1.01337662 0.581825592 3.6426369e-27)
(-0.98389518 0.576132957 0)
(-0.944940715 0.569992542 5.34006906e-27)
(-0.896257162 0.563052158 -5.12309897e-25)
(-0.83625427 0.555929426 -5.45733626e-25)
(-0.763633953 0.548736353 3.6473457e-28)
(-0.676798151 0.541444631 1.39678502e-27)
(-0.573694501 0.533789015 -9.64607383e-27)
(-0.45227115 0.525438528 7.60867982e-27)
(-0.310042824 0.516473231 -9.92308467e-27)
(-0.147866543 0.50743148 -5.34590737e-25)
(0.0413728722 0.49990554 -6.17746476e-25)
(0.251914967 0.493973009 0)
(0.504728732 0.485666897 2.67511701e-26)
(0.797480066 0.474640139 -5.73093861e-26)
(1.13379888 0.462782738 -5.88919104e-25)
(1.51967848 0.450822057 -7.54110817e-25)
(1.9607189 0.438483173 -1.05453959e-25)
(2.46146797 0.425706965 -1.53473115e-24)
(3.02721408 0.412708544 -1.56288815e-24)
(3.66283694 0.3993821 1.73729312e-25)
(4.37165151 0.385833373 2.08377859e-25)
(5.15625576 0.37274242 -8.8682273e-25)
(6.01822514 0.361505952 -5.61205109e-25)
(6.95632548 0.353977259 -3.54725892e-25)
(7.96553976 0.352051701 4.08708073e-25)
(9.03607235 0.356961157 0)
(10.1604952 0.367450864 4.49464351e-25)
(11.3295392 0.386854152 -1.77418762e-24)
(12.5433176 0.398112093 -7.9505384e-25)
(13.8268723 0.38213006 0)
(15.0531107 0.452304263 1.27563e-26)
(16.3143989 0.515016289 1.36739494e-24)
(17.7330946 0.332994943 3.09149844e-24)
(18.6966233 0.628926439 2.31249145e-24)
(19.4882241 1.37342273 -6.77672719e-25)
(21.0591233 0.749845141 -4.15093952e-24)
(22.6093914 -0.355587246 3.84913149e-26)
(23.0924348 0.25164182 1.24258083e-23)
(23.2415216 1.22434691 2.2847886e-23)
(23.5402183 0.943628155 -5.71408282e-24)
(23.6605922 0.35866484 -2.51931618e-23)
(23.5980528 0.19897919 -1.87570562e-23)
(-0.0227258421 0.0186392903 1.90743728e-27)
(-0.0679935755 0.0554372458 1.6326145e-28)
(-0.113938292 0.0923225468 -1.73120242e-28)
(-0.160623168 0.129269704 1.78212091e-28)
(-0.2080011 0.166188059 0)
(-0.255905945 0.20290315 -2.48633282e-26)
(-0.304125063 0.23920301 3.8074952e-34)
(-0.352400316 0.274860791 3.12783953e-26)
(-0.400472114 0.309656965 3.47553484e-26)
(-0.448095395 0.343393543 7.67562274e-26)
(-0.495047216 0.37590034 4.26316316e-26)
(-0.541129075 0.407036274 4.98816129e-28)
(-0.586165157 0.436687608 5.15097725e-28)
(-0.629998023 0.464764482 5.47473119e-26)
(-0.672483224 0.491196867 5.94566753e-26)
(-0.713483865 0.515930718 1.65699635e-27)
(-0.752865736 0.538924791 -7.09750834e-26)
(-0.790493302 0.560148306 -1.513048e-25)
(-0.82622657 0.579579458 -8.19335053e-26)
(-0.859918769 0.597204649 1.13530814e-27)
(-0.891414596 0.613018328 -1.13563418e-27)
(-0.920548649 0.627023351 -1.12834736e-27)
(-0.947143967 0.639231847 0)
(-0.971010272 0.649666111 2.24833962e-27)
(-0.991941049 0.658358893 1.31637391e-25)
(-1.00970538 0.665351503 -8.74077628e-29)
(-1.02404801 0.67069126 -1.54682513e-25)
(-1.03469685 0.674425851 -1.68549889e-25)
(-1.04137208 0.676590424 -1.78971195e-25)
(-1.04365474 0.677300579 1.83737925e-25)
(-1.04135121 0.676520177 -1.24891143e-27)
(-1.03399092 0.674567761 -3.99175694e-25)
(-1.02143608 0.671347047 -2.34735937e-25)
(-1.00308723 0.667587892 0)
(-0.977571734 0.66280451 0)
(-0.943985645 0.656806058 2.11428742e-28)
(-0.900623912 0.649803647 0)
(-0.84750549 0.641555482 -4.04636808e-27)
(-0.783183827 0.632599432 -3.53466874e-25)
(-0.706457161 0.623030744 -1.6505576e-26)
(-0.615811587 0.612858761 3.9282301e-25)
(-0.509399505 0.601938019 0)
(-0.385294901 0.590127096 0)
(-0.241476516 0.577518197 -4.18378176e-25)
(-0.0780955089 0.564800939 -3.71188762e-25)
(0.111223929 0.553855836 -2.39433394e-26)
(0.318135207 0.544550789 0)
(0.570832749 0.532310119 0)
(0.860153076 0.517794779 -4.55595938e-25)
(1.19103098 0.503707232 -4.24285634e-25)
(1.56972967 0.490170038 4.70423531e-26)
(2.00089448 0.476914293 0)
(2.48973159 0.464152795 2.99938911e-25)
(3.04154979 0.452006634 3.92401869e-25)
(3.66118349 0.440534126 4.65056557e-25)
(4.35237905 0.430057453 -5.64649221e-26)
(5.11848542 0.421403826 -3.00073405e-25)
(5.96199207 0.415913128 3.16633533e-32)
(6.88307116 0.414890551 -4.62826288e-32)
(7.87849176 0.419345577 -2.82079738e-24)
(8.9412863 0.430772813 -1.97063964e-24)
(10.0596871 0.451681663 2.34435006e-24)
(11.2231523 0.483738429 3.14129469e-24)
(12.419916 0.528407709 0)
(13.6378299 0.5771672 4.52737762e-24)
(14.8706943 0.635126586 7.84330765e-24)
(16.0834679 0.702500247 4.8588724e-24)
(17.365682 0.710453447 0)
(18.5760698 0.716690462 -3.23349398e-26)
(19.648443 0.890312543 8.47666735e-24)
(20.7777312 0.911307771 7.37416064e-24)
(21.8777846 0.716786412 0)
(22.6801192 1.00685911 0)
(23.2037191 1.30781641 1.91245541e-24)
(23.5492933 1.09773669 -1.92115275e-24)
(23.623763 0.82995049 7.30845788e-24)
(23.6636665 0.880243537 1.90558941e-23)
(23.6393396 1.05324786 0)
(23.5999463 0.920845217 -4.26227341e-24)
(23.6048815 0.734746647 2.10766855e-23)
(-0.0245160504 0.0185516779 4.34288316e-29)
(-0.073744556 0.0555658451 6.8804989e-29)
(-0.124006327 0.0930197846 6.2136737e-27)
(-0.175251239 0.130817009 -7.06974277e-27)
(-0.227316215 0.168798046 -8.40487623e-27)
(-0.279937479 0.20673082 0)
(-0.33277149 0.244340823 -2.19378387e-26)
(-0.385460928 0.281358444 -2.42281016e-26)
(-0.437692631 0.317541969 -2.62951293e-26)
(-0.48914974 0.352677508 -2.88161641e-26)
(-0.53955208 0.386580025 -3.10775834e-26)
(-0.588651883 0.419097604 4.38212466e-35)
(-0.636228165 0.450108406 1.74922854e-28)
(-0.682080422 0.479515758 2.28971219e-34)
(-0.726021572 0.507243126 -1.679393e-28)
(-0.767871149 0.533229675 -4.55409484e-26)
(-0.807449413 0.557426749 4.88857783e-26)
(-0.84457257 0.57979547 -3.09413046e-28)
(-0.879049146 0.600305615 -5.65851212e-26)
(-0.910677259 0.61893569 2.39586333e-28)
(-0.939242168 0.635672922 -3.51189206e-28)
(-0.964507036 0.650509449 6.9969612e-26)
(-0.986209435 0.663440019 7.56233023e-26)
(-1.0040666 0.674460331 7.461861e-30)
(-1.01778797 0.683541574 0)
(-1.02701137 0.690718267 -2.03802351e-28)
(-1.03146195 0.696040961 0)
(-1.0308161 0.699621786 -1.04554296e-25)
(-1.02474763 0.701684603 -2.30856741e-25)
(-1.01308928 0.702301479 -1.4026977e-25)
(-0.994570324 0.701478729 1.61731668e-25)
(-0.968525456 0.699055687 1.81692577e-25)
(-0.933959168 0.694940498 -6.21052649e-27)
(-0.889427173 0.689254546 -3.90550058e-27)
(-0.834830454 0.682130835 1.85532506e-25)
(-0.768899681 0.673865279 2.08787617e-25)
(-0.69048838 0.664542847 0)
(-0.598221222 0.654213399 -2.44022478e-25)
(-0.490294021 0.642855878 -2.55428001e-25)
(-0.364762558 0.630437382 -1.96380821e-26)
(-0.219807251 0.6169766 -2.25638395e-26)
(-0.0551716878 0.603171498 0)
(0.134844912 0.590825975 0)
(0.342120375 0.580089027 0)
(0.593739588 0.566514198 -3.48570313e-26)
(0.880795152 0.551141723 -3.09691564e-25)
(1.20839144 0.536694214 -2.61380761e-25)
(1.5822169 0.523379164 0)
(2.0063276 0.510941781 0)
(2.48590825 0.499623692 -2.63226979e-25)
(3.0262879 0.489595634 -1.42059157e-25)
(3.6322186 0.481142499 -1.09222437e-25)
(4.30794109 0.475003342 4.35665588e-26)
(5.05729892 0.472390355 2.04501621e-25)
(5.88292015 0.474425321 -1.40823047e-25)
(6.78525836 0.481907723 -8.56421112e-25)
(7.76211463 0.495496513 -1.75103706e-24)
(8.80832335 0.515836104 -2.88869354e-24)
(9.91533948 0.544183854 0)
(11.07111 0.581447399 -4.03373159e-25)
(12.2668599 0.628530341 -4.25297236e-24)
(13.4872466 0.686240033 -9.00934754e-24)
(14.7184434 0.756938777 4.70063966e-25)
(15.9339256 0.846080311 4.94819066e-25)
(17.1201063 0.941212154 -6.93570745e-24)
(18.2931365 1.02408942 6.21780628e-24)
(19.3787765 1.11417654 6.80246981e-24)
(20.4657646 1.19323864 -1.22395749e-24)
(21.4699977 1.17297802 -4.00061986e-24)
(22.4195153 1.17184086 -1.26810982e-23)
(23.0577226 1.27697874 9.01340664e-26)
(23.4829285 1.25533978 -1.61679603e-23)
(23.5562869 1.20824883 -8.10219069e-24)
(23.60977 1.30257187 0)
(23.6225173 1.28818746 -1.20176887e-23)
(23.6143665 1.25847231 -2.19379704e-23)
(23.6250243 1.12200945 4.18334681e-24)
(23.6234138 1.11850242 8.10546052e-24)
(23.6303772 1.1188367 1.50947742e-23)
(23.6056244 1.10676314 1.55756674e-23)
(-0.02616194 0.0182260877 1.33030915e-27)
(-0.0790306557 0.0548361911 0)
(-0.133258867 0.0920864688 0)
(-0.188684727 0.129821859 1.92057242e-30)
(-0.245028224 0.167828257 0)
(-0.30190724 0.205829215 0)
(-0.358886279 0.243522247 0)
(-0.415528816 0.28060701 7.22743674e-29)
(-0.471385708 0.316809536 0)
(-0.526079446 0.351903331 -5.19317754e-29)
(-0.57929768 0.385706209 -2.28077819e-26)
(-0.630729342 0.41806993 -8.47181353e-35)
(-0.680101761 0.448871207 2.50711696e-26)
(-0.727164143 0.478013651 0)
(-0.771678212 0.505421969 1.09328372e-28)
(-0.813409999 0.531036751 -2.69426653e-28)
(-0.852122664 0.554810899 0)
(-0.88757038 0.576706458 -3.06007225e-26)
(-0.919484634 0.59669129 -4.41309245e-28)
(-0.947570798 0.614731041 7.01791917e-26)
(-0.97154397 0.630750279 4.11906018e-26)
(-0.9910207 0.644804582 -6.86038171e-28)
(-1.00573347 0.656881684 0)
(-1.01538047 0.667055689 4.45810293e-26)
(-1.0196462 0.675489921 4.35059313e-26)
(-1.01795511 0.682043046 4.51335351e-26)
(-1.00965111 0.686739406 5.28161857e-26)
(-0.994041933 0.689533266 -5.99635719e-26)
(-0.97029021 0.690365749 -6.20664782e-26)
(-0.937317411 0.68924061 0)
(-0.894782784 0.686436627 6.67647377e-26)
(-0.841653142 0.682073577 7.50611271e-26)
(-0.776863992 0.676224919 -6.39425535e-27)
(-0.699261367 0.668978122 8.70875713e-26)
(-0.607504563 0.660429206 1.01872858e-25)
(-0.499914818 0.650677198 1.79186665e-26)
(-0.374703512 0.639848736 -1.03609626e-26)
(-0.230384167 0.627800602 1.38147058e-25)
(-0.0643171754 0.614761414 7.316482e-26)
(0.126325609 0.602808395 -1.14707138e-25)
(0.334526634 0.592474134 -4.98273902e-25)
(0.58535935 0.579800469 -2.63775084e-25)
(0.870820463 0.565870714 0)
(1.19580675 0.553173425 4.02939643e-26)
(1.56556789 0.541873141 1.56501192e-25)
(1.98392845 0.531766225 5.11432046e-26)
(2.45581934 0.523254653 -1.09157434e-32)
(2.98637291 0.516718227 -6.12022356e-27)
(3.5803954 0.51282774 0)
(4.24225067 0.512579803 8.03422929e-26)
(4.97558283 0.516950097 -7.57732355e-26)
(5.78298718 0.526736034 -4.08486223e-25)
(6.66540041 0.542642001 4.72578345e-25)
(7.62173529 0.565401626 -3.51873397e-25)
(8.64849201 0.595895011 -1.22705008e-24)
(9.73892611 0.635087485 -1.63762399e-24)
(10.8820456 0.684338547 -6.35469519e-24)
(12.0633067 0.74411963 -4.85271056e-24)
(13.2716449 0.81404447 -4.93485209e-24)
(14.492548 0.890658288 -5.95614073e-24)
(15.7174004 0.97490049 0)
(16.9196861 1.06336731 4.76270164e-25)
(18.0942795 1.16236061 -5.97654694e-24)
(19.187609 1.27105416 -7.26657047e-24)
(20.2029314 1.39976201 -3.61744866e-26)
(21.1556846 1.49528481 0)
(22.0268078 1.56257063 1.18685042e-23)
(22.7903131 1.58347511 1.35872756e-23)
(23.3362359 1.64658428 1.28115752e-24)
(23.5306715 1.57632002 -1.49699442e-24)
(23.5777143 1.61881113 -1.71247774e-26)
(23.5797273 1.60001612 -2.85072406e-24)
(23.5544352 1.60984233 -1.13014389e-23)
(23.5535264 1.55141527 -1.07235778e-23)
(23.5927842 1.44629294 -1.48436988e-24)
(23.6108219 1.44064043 0)
(23.6301901 1.38100942 -1.27414916e-23)
(23.6280418 1.35044984 -1.31958214e-23)
(23.6371279 1.30615302 0)
(23.628058 1.21624328 -1.69002409e-23)
(-0.0279709479 0.0178917577 -3.02607446e-27)
(-0.0847147707 0.0539324281 -5.19367482e-27)
(-0.143054143 0.0906615585 -5.74696358e-27)
(-0.202709558 0.127873298 6.93566469e-29)
(-0.263279246 0.165312042 6.56283239e-27)
(-0.324262081 0.202667043 1.59879938e-28)
(-0.385110506 0.239610607 -7.43648414e-27)
(-0.445281196 0.275831898 -7.4463413e-27)
(-0.504269243 0.311052715 -1.96191304e-28)
(-0.561610195 0.345035284 -4.17983468e-28)
(-0.616872055 0.377599017 7.5927189e-27)
(-0.669734397 0.408598316 2.23801528e-26)
(-0.719853876 0.437928816 1.44617233e-26)
(-0.766917811 0.465502282 1.3523951e-26)
(-0.810622636 0.491252271 -3.21954096e-28)
(-0.850659716 0.515129821 -1.24844356e-26)
(-0.886709084 0.537098454 0)
(-0.918465147 0.557086942 0)
(-0.945548858 0.575144242 -1.3732729e-26)
(-0.967645696 0.591302933 -1.5070861e-26)
(-0.984328746 0.605511149 1.52245345e-29)
(-0.995130342 0.617730656 2.97574872e-27)
(-0.999467041 0.627971764 -4.50274544e-34)
(-0.996692998 0.63619195 -1.14652304e-27)
(-0.986051111 0.642326116 3.45353728e-27)
(-0.966974469 0.646562688 1.84124117e-27)
(-0.938738493 0.648963041 2.90640011e-27)
(-0.90048193 0.649591352 2.49977315e-27)
(-0.851238607 0.648508956 -2.77741677e-27)
(-0.789939612 0.645776802 6.15440158e-27)
(-0.715383687 0.641482223 0)
(-0.626188184 0.635739516 -1.55727757e-26)
(-0.520737188 0.628670017 8.23285567e-27)
(-0.397289738 0.620421573 3.12179633e-26)
(-0.254273926 0.610901589 0)
(-0.0891728162 0.600318768 -1.92534365e-26)
(0.100835775 0.590442633 -3.32331105e-26)
(0.31018925 0.581903605 0)
(0.558898181 0.571913986 0)
(0.842188194 0.561043193 -2.78654677e-27)
(1.16427615 0.551381793 9.01174584e-27)
(1.52987703 0.543304098 -8.03153886e-26)
(1.94266656 0.536804035 0)
(2.40730773 0.53246052 6.40514401e-26)
(2.92871086 0.530912933 1.73984876e-25)
(3.51140099 0.532910512 1.80685715e-25)
(4.15940389 0.5392835 -6.8763539e-26)
(4.87609619 0.550866411 -7.33118369e-28)
(5.66410608 0.568390262 0)
(6.52480718 0.592584447 -5.29963135e-25)
(7.45802841 0.624254601 2.26979719e-25)
(8.46147045 0.66420715 1.1668199e-24)
(9.53027076 0.713184204 3.02500897e-25)
(10.6560894 0.771848576 -1.5771534e-24)
(11.826718 0.841102252 -4.97721395e-24)
(13.0256675 0.921655383 4.87258409e-32)
(14.2385314 1.01370283 2.71589944e-24)
(15.4480246 1.11437601 0)
(16.6404882 1.22305246 0)
(17.7969649 1.33015241 4.42659297e-25)
(18.9159262 1.43890361 4.58417354e-25)
(19.9564725 1.53669827 0)
(20.9370829 1.6392901 7.91058103e-24)
(21.7767342 1.72795702 7.20670195e-24)
(22.5532904 1.8221999 -1.03907187e-23)
(23.1019676 1.88016023 -3.29944528e-23)
(23.4545102 1.95050037 -1.24710437e-23)
(23.5471078 1.93536798 -5.55373754e-24)
(23.5710611 1.94087639 -5.58776013e-24)
(23.5461644 1.99144286 -1.62799647e-24)
(23.5459534 1.91267942 9.9028257e-24)
(23.5665088 1.84420282 1.06265675e-23)
(23.5691061 1.80055225 -1.19891515e-23)
(23.5684608 1.77496525 -8.42228695e-24)
(23.6004801 1.70182103 -1.36014129e-23)
(23.6308444 1.62269556 -1.32004539e-23)
(23.6755135 1.58829968 -1.31051421e-23)
(23.7152395 1.53493822 2.17898747e-31)
(23.7378965 1.55408953 3.15477159e-23)
(23.7152211 1.52570108 2.69397549e-23)
(-0.0301486958 0.0176497139 1.79045539e-27)
(-0.0913540787 0.0531738683 -8.77999364e-29)
(-0.154237142 0.0893038063 6.46732022e-27)
(-0.218385634 0.125787657 1.54416042e-34)
(-0.283264223 0.162337229 -6.30931498e-27)
(-0.348243858 0.198618172 -6.02160716e-27)
(-0.412659328 0.234288659 -1.20796676e-26)
(-0.475862131 0.269033084 -5.46162316e-27)
(-0.537251473 0.302579432 -5.3633374e-27)
(-0.596287656 0.334700872 -4.99526468e-27)
(-0.652476492 0.36521895 -4.23664276e-27)
(-0.705366919 0.394010278 -2.64969381e-27)
(-0.75457953 0.4209748 -1.76733617e-27)
(-0.799714151 0.446049001 -1.27764694e-27)
(-0.840382226 0.469184912 -4.30616085e-28)
(-0.876187209 0.490355628 -4.71140738e-28)
(-0.906720515 0.509536613 9.91073885e-27)
(-0.931510274 0.526760116 1.70831864e-26)
(-0.950062791 0.541942437 1.24908866e-27)
(-0.961785286 0.555057609 1.36493501e-27)
(-0.966129524 0.566245646 2.60062775e-26)
(-0.962465007 0.57548631 3.03234803e-26)
(-0.950076163 0.582818374 0)
(-0.9281465 0.588290778 -1.96466927e-27)
(-0.895799704 0.591941276 0)
(-0.852048937 0.593829465 0)
(-0.795793328 0.59403926 -2.61443837e-27)
(-0.725802416 0.592675466 -4.53850758e-26)
(-0.64069834 0.589859767 -5.76350833e-26)
(-0.538898133 0.585730854 6.20349859e-26)
(-0.418691834 0.580453668 4.56933917e-26)
(-0.278456344 0.573997944 -8.62269544e-27)
(-0.115834448 0.566602342 9.30714483e-27)
(0.0718222868 0.559796864 0)
(0.280035894 0.55405989 -1.11112642e-26)
(0.526254603 0.547350793 0)
(0.806618024 0.540147844 0)
(1.12496693 0.534323177 -1.46539286e-26)
(1.48564726 0.530380503 0)
(1.89230303 0.528514144 0)
(2.34921272 0.529345561 1.20208473e-25)
(2.8608255 0.533508005 1.06776691e-25)
(3.43129143 0.54172629 0)
(4.06437525 0.554801772 0)
(4.76326846 0.573565591 0)
(5.53064742 0.598818561 -7.14230265e-26)
(6.36812688 0.63136606 -8.23729661e-26)
(7.27593804 0.671989621 9.20729101e-25)
(8.25253789 0.721397127 1.07248649e-24)
(9.29416653 0.780136867 1.37175031e-24)
(10.3945659 0.848593554 1.73086478e-24)
(11.5440614 0.926904926 2.30210461e-24)
(12.7298869 1.01514676 2.73963743e-24)
(13.9341083 1.11338452 0)
(15.1416638 1.22094269 0)
(16.3346703 1.33494471 -2.84631172e-24)
(17.4955545 1.45701661 -6.43955437e-24)
(18.6015694 1.58120725 -3.61788555e-24)
(19.6407333 1.70789761 -3.71441106e-24)
(20.5933933 1.81991398 -2.91498325e-24)
(21.472197 1.92305963 8.59505792e-24)
(22.2278354 1.99917608 1.88441879e-23)
(22.9110694 2.0516176 5.62265521e-25)
(23.3491422 2.11188648 -1.49215138e-23)
(23.5014756 2.14544825 5.80500731e-25)
(23.5415971 2.19698065 -1.21009957e-24)
(23.5463784 2.19929896 5.74561504e-24)
(23.5281761 2.2229176 -1.63951691e-31)
(23.5337983 2.18688534 -9.06926001e-24)
(23.5419421 2.15343322 -9.52303071e-25)
(23.5402839 2.12593589 1.388197e-23)
(23.5401892 2.10312792 9.98423804e-24)
(23.5686017 2.03891155 0)
(23.5823302 1.98749902 1.16622821e-24)
(23.5944463 1.94680367 0)
(23.6785818 1.84037544 1.37138737e-23)
(23.8087239 1.75109293 2.89632202e-23)
(23.8576767 1.72149373 1.45937255e-23)
(23.8797746 1.71678496 1.51967709e-23)
(23.8223299 1.78767417 3.1444795e-23)
(-0.0327237798 0.0174644719 1.94106022e-27)
(-0.0989733248 0.0524862737 6.30422268e-27)
(-0.166761109 0.0879378753 8.57522306e-29)
(-0.235522616 0.123527991 -5.97241471e-27)
(-0.304574788 0.158944487 -5.49070938e-27)
(-0.373149091 0.19383998 -4.81609064e-27)
(-0.440451763 0.227869372 2.18213303e-28)
(-0.50571728 0.260721671 3.42117123e-27)
(-0.568237415 0.292136326 2.25823088e-27)
(-0.627370322 0.321907216 1.13948073e-27)
(-0.682540694 0.349870271 0)
(-0.733200871 0.375908401 6.59202082e-28)
(-0.778830556 0.399974097 -3.5910775e-28)
(-0.818965115 0.421995864 0)
(-0.853087303 0.441970561 0)
(-0.880671184 0.459887463 0)
(-0.901159949 0.475765519 0)
(-0.913951057 0.489631941 5.66222214e-28)
(-0.918378208 0.501517302 0)
(-0.91369894 0.511463342 -2.285379e-26)
(-0.89911069 0.519509644 -2.60112723e-26)
(-0.873687302 0.525734018 6.39180426e-26)
(-0.836453776 0.530211447 6.95908688e-26)
(-0.786297223 0.533043729 -7.88180634e-26)
(-0.721986042 0.534345398 -8.17049533e-26)
(-0.64215178 0.534250832 -9.12470211e-26)
(-0.545244723 0.532916469 -9.94628242e-26)
(-0.429585007 0.530523687 -8.86091959e-26)
(-0.293521857 0.527102912 -2.11207858e-25)
(-0.134838164 0.522914883 -1.50052546e-25)
(0.0489853081 0.519257207 0)
(0.254483643 0.516507104 8.69809902e-27)
(0.496635136 0.513283772 9.711104e-27)
(0.772485191 0.51002018 0)
(1.0855897 0.508362049 -1.1769508e-26)
(1.43989464 0.508846809 0)
(1.83884228 0.511747046 0)
(2.28637067 0.517704798 1.86764118e-25)
(2.78655117 0.527389273 1.7846347e-26)
(3.34324016 0.541538333 -2.73955832e-25)
(3.96000004 0.560983363 3.08726281e-25)
(4.63986985 0.586615115 4.03911806e-25)
(5.38546198 0.619269167 -2.86438374e-26)
(6.19845988 0.659754348 0)
(7.0793412 0.708836467 8.56557749e-25)
(8.02705172 0.767187481 8.94869792e-25)
(9.03866417 0.835324333 0)
(10.1090415 0.913547909 0)
(11.2304721 1.00189592 -1.74677306e-24)
(12.3921872 1.09998664 -2.14301831e-24)
(13.580728 1.20714262 2.75140486e-24)
(14.776841 1.32273143 3.18108356e-24)
(15.9641583 1.44510805 -3.05737928e-24)
(17.1246642 1.57062402 5.1399641e-32)
(18.241533 1.69929602 3.75269831e-24)
(19.2940073 1.82289813 1.95656289e-26)
(20.267043 1.94626107 0)
(21.1324382 2.06038341 4.39474177e-25)
(21.8933251 2.16621337 -4.09234792e-24)
(22.5268585 2.24444342 5.76761014e-25)
(23.0756917 2.29608011 6.74125009e-24)
(23.4308716 2.35475012 0)
(23.5078031 2.34147566 6.13839114e-25)
(23.5383422 2.36759644 0)
(23.5204291 2.38213845 3.81623908e-25)
(23.5214251 2.36121085 -4.01116588e-25)
(23.5335532 2.34128958 -1.1036194e-24)
(23.5451526 2.31670036 -1.20670352e-23)
(23.5420746 2.32138811 -1.07470642e-23)
(23.5501556 2.2984206 -1.02967017e-24)
(23.5534062 2.29128776 -1.04381398e-23)
(23.5652178 2.28326618 -9.35491513e-24)
(23.614082 2.24922722 -1.21412339e-23)
(23.6345034 2.23504377 -1.26957485e-23)
(23.662706 2.21607202 -1.41057537e-23)
(23.7557817 2.13115658 -1.45517242e-23)
(23.902208 2.04767534 1.5235371e-23)
(24.0231124 1.94732859 1.91074162e-23)
(24.0265222 1.93103085 -2.20495135e-24)
(24.0000128 1.95598612 2.66254559e-24)
(-0.0354563432 0.017170224 1.74825819e-27)
(-0.106825055 0.0514254014 -5.50895865e-27)
(-0.179324842 0.0858941161 4.1824743e-29)
(-0.252210347 0.120251637 4.54317456e-35)
(-0.324629904 0.154168017 -3.44622385e-27)
(-0.395658164 0.187291516 5.60326417e-29)
(-0.464357988 0.219283673 -9.87875868e-28)
(-0.529834956 0.2498476 -1.05814321e-34)
(-0.591258794 0.278753611 -6.43557589e-27)
(-0.647888368 0.305809142 -5.64991735e-27)
(-0.699016085 0.330893635 -1.94260847e-28)
(-0.743977744 0.353921944 -1.04149336e-26)
(-0.782134322 0.37482579 -1.31917305e-26)
(-0.812850057 0.393630523 -1.57886922e-26)
(-0.835478773 0.410332979 -1.9298488e-26)
(-0.849326565 0.424969841 2.31430365e-26)
(-0.853644917 0.437597432 2.72254721e-26)
(-0.847617402 0.448277949 4.63544595e-28)
(-0.830354087 0.457094179 0)
(-0.800830905 0.464148981 -4.07590054e-26)
(-0.757981004 0.46954962 -4.50678318e-26)
(-0.700587861 0.473435328 1.4154412e-27)
(-0.627309225 0.475959392 5.50808196e-26)
(-0.536639562 0.477299004 5.79196825e-26)
(-0.426942361 0.477657113 4.11115932e-27)
(-0.296564418 0.477124146 0)
(-0.143415732 0.475978583 -2.451424e-27)
(0.034921632 0.4753147 1.1243961e-28)
(0.235859702 0.475449487 -1.44264389e-25)
(0.472139737 0.475537238 -1.59098359e-25)
(0.741587677 0.475985018 2.0831366e-25)
(1.04751903 0.478215672 2.38343656e-25)
(1.39352043 0.482786827 1.93949708e-26)
(1.78284167 0.490046579 -2.56703369e-25)
(2.2191233 0.500658978 8.58695611e-33)
(2.70611858 0.515330998 3.0020016e-25)
(3.24741626 0.534831412 -3.24275378e-25)
(3.84636538 0.560001405 -3.90531887e-25)
(4.50585395 0.591735816 3.94677365e-26)
(5.22839746 0.630881452 -2.21145383e-26)
(6.01572078 0.678254421 -2.60038682e-26)
(6.8685072 0.734625435 -7.64029057e-25)
(7.78611052 0.800672194 -1.88578091e-24)
(8.76624907 0.876916837 -1.12472555e-24)
(9.80471127 0.963668306 -1.2748455e-24)
(10.8950735 1.06096613 -1.65343054e-24)
(12.0284181 1.16851436 0)
(13.1931139 1.28564325 2.51086495e-24)
(14.3743628 1.41131373 2.97350501e-24)
(15.5533144 1.54425742 3.2972867e-24)
(16.7107501 1.68233779 6.86760676e-24)
(17.8289015 1.8220735 7.1651804e-24)
(18.8895316 1.96109168 7.60388799e-24)
(19.874828 2.09247257 8.09828829e-24)
(20.7692766 2.21969737 4.28418522e-24)
(21.554102 2.3284389 -6.13982761e-25)
(22.2286849 2.42329437 0)
(22.7618765 2.49894957 -4.5189212e-24)
(23.1877315 2.54907016 -5.79100469e-24)
(23.4555533 2.60918363 0)
(23.5055237 2.59511214 -4.88737675e-24)
(23.5125923 2.59834352 -4.80564573e-24)
(23.4991499 2.61320339 0)
(23.5034493 2.57735909 -3.86216264e-25)
(23.5111364 2.54686412 0)
(23.5126686 2.53996415 -9.34658724e-24)
(23.5470237 2.48814171 -1.90593605e-24)
(23.551261 2.47205651 9.63603213e-24)
(23.5543612 2.46031515 -9.36031183e-25)
(23.6110681 2.41988681 -1.23088241e-24)
(23.6456391 2.41532782 -1.24198252e-23)
(23.6806357 2.42444941 -1.12388653e-23)
(23.7346364 2.41309231 -1.25236814e-24)
(23.7728509 2.42206237 -1.34179653e-24)
(23.7958705 2.44568503 -6.7242309e-26)
(23.8791706 2.41677587 -1.54203069e-24)
(23.9770512 2.32802522 1.52391272e-23)
(24.059655 2.26038366 2.71784834e-23)
(24.0858132 2.2126969 1.42756683e-23)
(24.0873699 2.14722879 -1.95259463e-24)
(-0.0379167634 0.0165616693 0)
(-0.113609525 0.0494157422 -3.39322227e-29)
(-0.189732352 0.0822691799 3.25395745e-29)
(-0.265328988 0.114775096 1.02012022e-27)
(-0.339356878 0.146594942 3.04349013e-29)
(-0.410714101 0.177389537 2.84672721e-29)
(-0.478304541 0.206835608 -4.93494151e-27)
(-0.541075848 0.234667229 0)
(-0.598052124 0.260663561 2.89402249e-29)
(-0.648323492 0.284691048 -1.26876384e-26)
(-0.691048518 0.306649126 -1.60898304e-26)
(-0.725417705 0.326496317 1.9811367e-26)
(-0.75063294 0.344230331 -2.6382914e-29)
(-0.765884606 0.35988489 -5.66377782e-26)
(-0.770324694 0.373528395 -6.59129933e-26)
(-0.763049883 0.385228927 -3.78236056e-26)
(-0.743063078 0.395114673 1.51187044e-28)
(-0.709295543 0.40330147 -4.85161738e-26)
(-0.660569389 0.409942786 -5.45816395e-26)
(-0.595584618 0.415212673 -3.35906032e-28)
(-0.512895937 0.419308777 3.64346228e-28)
(-0.410926217 0.422455922 1.89077991e-27)
(-0.288046288 0.424800533 -7.81576948e-26)
(-0.142289662 0.42663592 -1.91830453e-25)
(0.0286635788 0.428883583 -1.01177062e-25)
(0.222987669 0.431827997 1.6744678e-27)
(0.451392291 0.435054134 -1.03072429e-25)
(0.712387772 0.438955168 -2.32451535e-27)
(1.00908356 0.444759224 2.66467937e-27)
(1.34475052 0.453039194 -1.38821793e-25)
(1.72245221 0.464213181 0)
(2.14555929 0.47896349 -3.15027291e-25)
(2.61753512 0.498018384 9.22500689e-27)
(3.14171959 0.522159409 3.77334166e-25)
(3.72125786 0.55222586 4.23806893e-25)
(4.35892356 0.589102596 4.78668178e-25)
(5.05712383 0.633648123 1.62299674e-26)