/*--------------------------------*- C++ -*----------------------------------*\
  =========                 |
  \\      /  F ield         | OpenFOAM: The Open Source CFD Toolbox
   \\    /   O peration     | Website:  https://openfoam.org
    \\  /    A nd           | Version:  8
     \\/     M anipulation  |
\*---------------------------------------------------------------------------*/
FoamFile
{
    version     2.0;
    format      ascii;
    class       volVectorField;
    location    "0.075";
    object      U;
}
// * * * * * * * * * * * * * * * * * * * * * * * * * * * * * * * * * * * * * //

dimensions      [0 1 -1 0 0 0 0];

internalField   nonuniform List<vector> 
42400
(
(-0.0170657482 0.0163674579 -6.8027352e-27)
(-0.0504637904 0.0477295869 2.34637759e-26)
(-0.0838741544 0.0782095467 2.66212084e-26)
(-0.117480547 0.107871397 0)
(-0.151432155 0.136790247 0)
(-0.185827881 0.164993242 -7.59766369e-28)
(-0.220705642 0.192458076 0)
(-0.256046112 0.219122617 8.33008081e-28)
(-0.291788102 0.244899059 0)
(-0.327844849 0.269687891 9.10824544e-28)
(-0.364117384 0.293389401 9.51345237e-28)
(-0.400504041 0.315911776 -9.92860461e-28)
(-0.436906335 0.337175991 -6.37691571e-26)
(-0.47323189 0.357118174 -6.88154532e-26)
(-0.50939518 0.375690183 -1.12248444e-27)
(-0.5453168 0.392859039 0)
(-0.580921884 0.408605752 0)
(-0.616138139 0.422923971 0)
(-0.650893865 0.435818725 0)
(-0.68511614 0.447305422 0)
(-0.718729257 0.457409153 0)
(-0.751653401 0.466164272 -2.87013652e-27)
(-0.783803504 0.473614194 -1.36547657e-25)
(-0.815088177 0.479811333 -2.90320538e-25)
(-0.845408623 0.484817084 -1.54373943e-25)
(-0.874657405 0.488701812 -3.18817417e-27)
(-0.902716959 0.491544774 -3.25569688e-27)
(-0.929457576 0.493433952 6.6328113e-27)
(-0.954734457 0.494465586 0)
(-0.978384082 0.494742959 0)
(-1.00022 0.494372803 2.32921095e-25)
(-1.0200247 0.493460472 2.48156175e-25)
(-1.03753953 0.4921025 6.92514026e-27)
(-1.05251101 0.490419922 -2.80156928e-25)
(-1.06470539 0.488569804 -2.8761963e-25)
(-1.07356848 0.487040286 0)
(-1.07889215 0.48515891 0)
(-1.07986388 0.483572242 0)
(-1.07668626 0.481648916 0)
(-1.06782469 0.48096874 -4.39654762e-25)
(-1.05256324 0.480608896 -4.4947871e-25)
(-1.02920411 0.48048383 -4.20186793e-25)
(-0.996627143 0.480227205 -7.5813867e-25)
(-0.953950875 0.479967683 -9.42955203e-27)
(-0.899617299 0.480014496 3.87129558e-25)
(-0.832144515 0.480305375 3.73293399e-25)
(-0.749713281 0.480674517 5.1509512e-27)
(-0.650218005 0.480814359 -3.90926477e-25)
(-0.531553722 0.480447909 -7.65585352e-30)
(-0.392047871 0.479029655 -3.66943972e-25)
(-0.227759767 0.476688008 -1.02720185e-34)
(-0.0374979088 0.475680832 4.38972461e-25)
(0.175220364 0.476512967 4.49776564e-25)
(0.429686858 0.475523611 -2.20563664e-26)
(0.726766889 0.470695358 0)
(1.07042878 0.463781205 0)
(1.46472904 0.456088001 0)
(1.91694788 0.447473869 5.46354666e-26)
(2.43145691 0.437736818 7.1389918e-26)
(3.01335888 0.427005721 0)
(3.66759051 0.414923548 -2.14542809e-24)
(4.39754565 0.401494169 -2.77317752e-24)
(5.20562957 0.386747189 3.0405277e-24)
(6.09306109 0.37108522 3.45971229e-24)
(7.05964461 0.356710941 0)
(8.09658275 0.350831638 0)
(9.19277511 0.350376788 5.10159105e-24)
(10.3602186 0.343136903 5.37234352e-24)
(11.546149 0.365382411 1.03319301e-24)
(12.8744902 0.279328455 0)
(14.3629239 0.0917821577 0)
(15.1682879 0.698238751 1.75987051e-24)
(16.1620162 1.27019793 1.84750722e-24)
(18.46604 -0.393429215 0)
(20.2115997 -0.869661464 2.45186174e-24)
(20.4118402 0.339107465 -7.39720944e-24)
(20.6088105 2.27685873 -1.87949971e-23)
(22.6093069 0.788350526 -7.50969716e-24)
(23.6922222 -0.449661469 -8.11159346e-24)
(23.7588747 -0.68635855 -6.06265305e-23)
(-0.0198943961 0.0176508437 0)
(-0.0591562838 0.052005838 1.76455401e-26)
(-0.0986755691 0.0859393958 1.99465799e-26)
(-0.138565136 0.119459267 0)
(-0.178874895 0.152552922 0)
(-0.219613678 0.185166976 2.66936257e-26)
(-0.260722818 0.21720138 3.01339789e-26)
(-0.302095442 0.248524969 6.61788751e-28)
(-0.34359424 0.278992564 0)
(-0.385068232 0.308458872 7.21661284e-28)
(-0.426365097 0.336788435 7.52623354e-28)
(-0.46733878 0.363861621 -4.62761779e-26)
(-0.507853166 0.389577382 -9.91370255e-26)
(-0.54778288 0.413853721 -5.3884895e-26)
(-0.587012176 0.436626749 5.71565656e-26)
(-0.625432687 0.457848985 6.42488432e-26)
(-0.662940672 0.477487418 0)
(-0.699434192 0.495521694 1.91449955e-27)
(-0.734810506 0.511942628 0)
(-0.768963815 0.52675113 0)
(-0.801783372 0.539957543 0)
(-0.833151881 0.551581308 -9.87388862e-26)
(-0.862944082 0.561650863 -2.09848134e-25)
(-0.891025347 0.570203686 -1.11652431e-25)
(-0.917250085 0.577286372 0)
(-0.941459759 0.582954733 -4.7101118e-27)
(-0.963480282 0.587273112 -2.4279895e-27)
(-0.983117038 0.590312647 4.90801641e-27)
(-1.00014874 0.592149841 -1.58609566e-25)
(-1.0143309 0.592876885 -1.70491254e-25)
(-1.02541391 0.592590457 -4.62546428e-27)
(-1.03316416 0.591359276 -4.461637e-27)
(-1.03702852 0.589527026 -1.66684137e-25)
(-1.03691499 0.586733325 -1.69998597e-25)
(-1.03220982 0.58341672 1.82558356e-25)
(-1.02274937 0.579472411 2.36304269e-25)
(-1.00804037 0.575550665 0)
(-0.986375237 0.571362115 4.27614923e-27)
(-0.956447532 0.566796023 0)
(-0.917810829 0.561428453 7.07125926e-27)
(-0.86925512 0.555745847 -2.73733816e-25)
(-0.809582915 0.549944258 -2.88501391e-25)
(-0.737480934 0.544048726 4.26560913e-27)
(-0.651194822 0.537938811 -3.37294454e-27)
(-0.548787024 0.531368025 2.73877452e-27)
(-0.428225703 0.524077235 6.71089512e-28)
(-0.287247005 0.516179958 -1.75187188e-27)
(-0.126390895 0.50821686 -1.40637929e-25)
(0.0615266901 0.501707529 -1.77348642e-25)
(0.270253247 0.496573206 0)
(0.521422874 0.488898382 9.69226272e-27)
(0.812280237 0.478405794 -1.99550028e-26)
(1.14691335 0.467164226 -1.24460451e-25)
(1.53120635 0.455712869 -1.99045854e-25)
(1.97009896 0.443918532 -4.78117618e-26)
(2.46894497 0.431805979 -4.29113842e-25)
(3.03315305 0.419436549 -4.7063208e-25)
(3.66788727 0.406744029 9.14215029e-26)
(4.37680646 0.393788925 1.16263803e-25)
(5.16282451 0.381069192 -1.38708248e-25)
(6.02812089 0.37009058 -2.04919302e-26)
(6.97197828 0.362710785 -2.36976233e-25)
(7.9899808 0.35996502 2.86025211e-25)
(9.07513185 0.361241197 0)
(10.2237222 0.364109666 5.15142343e-25)
(11.4209327 0.383308607 -9.63557677e-26)
(12.6275122 0.43020855 8.06942245e-25)
(13.8903973 0.447689334 0)
(15.135405 0.487002989 4.3945603e-27)
(16.3734577 0.557027591 1.20013112e-24)
(17.89299 0.295146668 4.56381424e-24)
(19.0764403 0.249036658 2.83183567e-24)
(19.6217267 1.25176952 5.19186297e-26)
(20.8150743 1.36706098 -6.0787334e-24)
(22.55785 -0.126291226 4.98218082e-26)
(23.4348517 -0.434199749 1.41303535e-23)
(23.5658389 0.44319178 2.1241409e-23)
(23.6571017 1.06420305 -6.15580613e-24)
(23.7952828 0.625157287 -2.05224779e-23)
(23.8092545 0.234136786 -2.08101691e-23)
(-0.0221431032 0.018156138 1.77008702e-27)
(-0.066128739 0.053903547 1.87216288e-28)
(-0.110630377 0.0896320446 -1.98215889e-28)
(-0.155696941 0.125310568 2.05168851e-28)
(-0.20130649 0.160869646 0)
(-0.247356779 0.196183265 -2.01715266e-26)
(-0.293705504 0.231091636 4.40272753e-34)
(-0.340154532 0.265410084 2.45307794e-26)
(-0.386486409 0.298947103 2.68691063e-26)
(-0.432481248 0.331519796 5.85404804e-26)
(-0.477927576 0.36296299 3.22923048e-26)
(-0.522628253 0.393133525 5.84822143e-28)
(-0.56640221 0.42191128 6.06950011e-28)
(-0.609083268 0.449198126 3.96972866e-26)
(-0.650517237 0.474915725 4.25946366e-26)
(-0.690558178 0.499002899 2.00108098e-27)
(-0.729064463 0.521413036 -5.02534585e-26)
(-0.765895083 0.542111864 -1.04695595e-25)
(-0.800906415 0.561075755 -5.60778744e-26)
(-0.833949532 0.578290596 1.45541081e-27)
(-0.864867976 0.593751235 -1.48192669e-27)
(-0.893495671 0.607461443 -1.50359456e-27)
(-0.919654794 0.619434293 0)
(-0.943153394 0.629692571 3.10809241e-27)
(-0.963781877 0.63826889 8.50562686e-26)
(-0.981308148 0.645201788 -5.61365936e-29)
(-0.995480148 0.650537084 -9.85363972e-26)
(-1.00603648 0.654317703 -1.03554844e-25)
(-1.01264131 0.656658398 -1.0412674e-25)
(-1.01499443 0.657454292 1.0718034e-25)
(-1.01277814 0.656915375 -2.82925215e-27)
(-1.00561493 0.655245085 -2.35853675e-25)
(-0.993328769 0.652480744 -1.42441188e-25)
(-0.975296234 0.649089806 0)
(-0.950100985 0.644726304 0)
(-0.916827969 0.639101139 -2.30118075e-27)
(-0.873957932 0.632472316 0)
(-0.821494835 0.624750793 2.26432792e-27)
(-0.758077376 0.616412719 -1.84865958e-25)
(-0.682464154 0.607494163 5.91015374e-28)
(-0.592985515 0.597966043 2.02494839e-25)
(-0.487792893 0.587763742 0)
(-0.365430009 0.576678222 0)
(-0.223813219 0.564752757 -1.73750069e-25)
(-0.0625412886 0.552731155 -9.33562763e-26)
(0.124647275 0.542409212 -7.82899168e-27)
(0.329467964 0.533616475 0)
(0.579663135 0.521774979 0)
(0.866502594 0.507579608 -1.11624604e-25)
(1.19493641 0.493763634 -6.66192469e-26)
(1.57121582 0.480504836 1.98830593e-26)
(1.99991591 0.467501499 0)
(2.48637859 0.454839917 -2.2660644e-26)
(3.03615263 0.442601153 -1.03148156e-26)
(3.65421167 0.430929752 -2.79659453e-25)
(4.34475834 0.420248079 -6.92212211e-25)
(5.11159105 0.411635223 -9.2280618e-25)
(5.95724213 0.406401063 1.94833495e-32)
(6.88176684 0.40564102 -3.01365865e-32)
(7.88192606 0.410118645 -3.44836738e-24)
(8.95141426 0.420823591 -2.13279837e-24)
(10.078943 0.440095493 2.3444636e-24)
(11.25395 0.469159274 2.90191132e-24)
(12.4669263 0.50577201 0)
(13.7160394 0.536536712 4.2403766e-24)
(14.9924941 0.573657132 7.10616655e-24)
(16.202526 0.669138038 3.48952997e-24)
(17.4152338 0.765777961 0)
(18.6193639 0.783388338 -2.16262253e-26)
(19.7217235 0.888956838 6.43648361e-24)
(20.8264678 0.943475266 6.94173087e-24)
(21.9983063 0.635797718 0)
(22.8607409 0.699486391 0)
(23.2766433 1.20895627 1.66480517e-24)
(23.5561619 1.2999519 -1.61624424e-24)
(23.6544718 0.798561539 5.42835007e-24)
(23.6737058 0.751324186 1.39496585e-23)
(23.6879199 0.742340171 0)
(23.6955008 0.769104288 -3.65599605e-24)
(23.6984496 0.724906968 1.58151531e-23)
(-0.0239050386 0.0180850819 8.42064651e-29)
(-0.0716653419 0.0539942001 1.32742872e-28)
(-0.120219031 0.0901894106 5.28113831e-27)
(-0.169557319 0.12661128 -5.63546286e-27)
(-0.21957783 0.163146384 -6.73047116e-27)
(-0.270100636 0.199622884 0)
(-0.320864558 0.235822769 -1.69428167e-26)
(-0.371574211 0.27151611 -1.85629414e-26)
(-0.421951071 0.306481667 -1.95277771e-26)
(-0.471696155 0.340512935 -2.10365978e-26)
(-0.520532296 0.373422793 -2.17918783e-26)
(-0.568205644 0.405051016 9.87248884e-35)
(-0.614483768 0.435264242 4.17410055e-28)
(-0.65915263 0.463953542 5.57148325e-34)
(-0.702012079 0.491031161 -4.42277889e-28)
(-0.742870662 0.516427122 -2.92528664e-26)
(-0.781540488 0.540086149 3.08260549e-26)
(-0.817832522 0.561965228 -9.6135724e-28)
(-0.851552402 0.582032068 -3.51853214e-26)
(-0.882496843 0.600264375 9.81677883e-28)
(-0.910450261 0.616648981 -1.9516688e-27)
(-0.935176029 0.631177199 4.13061175e-26)
(-0.9564137 0.643841787 4.40712283e-26)
(-0.973883345 0.654636372 9.75230592e-28)
(-0.987295566 0.663535955 0)
(-0.996314478 0.670587212 9.03234714e-28)
(-1.00066242 0.675853114 0)
(-1.00001615 0.679454205 -5.57125582e-26)
(-0.994109872 0.681517865 -1.32587024e-25)
(-0.982568295 0.682294086 -7.98010482e-26)
(-0.964278929 0.681545914 9.39421978e-26)
(-0.938523974 0.679200244 1.02457476e-25)
(-0.904304605 0.675193864 1.36447567e-27)
(-0.860416684 0.669658416 2.54511927e-28)
(-0.806640472 0.662771658 9.01330119e-26)
(-0.741783432 0.654791097 9.99051819e-26)
(-0.664688264 0.645777718 0)
(-0.573974395 0.635764056 -1.14903319e-25)
(-0.467779085 0.624751624 -1.30270073e-25)
(-0.344182381 0.612543203 -6.42560074e-27)
(-0.201290554 0.598981498 -7.46695045e-27)
(-0.0373266171 0.585634754 0)
(0.144192337 0.574864449 0)
(0.352326927 0.564189345 0)
(0.600484739 0.55034821 -1.39150061e-26)
(0.884525544 0.535091263 -6.35335232e-26)
(1.20886037 0.520798787 -2.91749667e-26)
(1.57941965 0.50751575 0)
(2.00019776 0.494916108 0)
(2.47645557 0.483255423 1.23317799e-26)
(3.01370098 0.47273298 1.17822087e-25)
(3.61702667 0.463724482 1.98692204e-25)
(4.29106621 0.457058565 3.40299278e-25)
(5.03982456 0.453827036 1.17480391e-25)
(5.86600925 0.455023343 -5.02219171e-25)
(6.77021296 0.461439332 -1.01912948e-24)
(7.75045839 0.473839617 -2.22174592e-24)
(8.80178085 0.493187128 -3.1510326e-24)
(9.91551514 0.521054367 0)
(11.079017 0.558231837 -3.08473054e-25)
(12.2839257 0.604225946 -4.10643346e-24)
(13.5134987 0.660434572 -8.52328806e-24)
(14.7523408 0.72952324 3.82816402e-25)
(15.9792063 0.810236825 4.08931994e-25)
(17.195239 0.881993801 -6.70775785e-24)
(18.4135754 0.931318115 6.35374669e-24)
(19.522287 1.01074566 6.31241395e-24)
(20.5432269 1.15633822 -1.12486863e-24)
(21.481166 1.24258386 -2.61907233e-24)
(22.4330927 1.21839153 -1.00195413e-23)
(23.114936 1.27530983 7.9064423e-26)
(23.5339167 1.29567108 -1.47474501e-23)
(23.6204627 1.15489004 -6.89689807e-24)
(23.6474441 1.22490665 0)
(23.6513869 1.25421403 -8.35492066e-24)
(23.6340057 1.24646198 -3.65954958e-23)
(23.6409987 1.12179139 2.36191562e-24)
(23.6751339 0.998084108 1.21541296e-23)
(23.7145922 0.949358483 1.4866692e-23)
(23.7014586 0.906930027 1.59184269e-23)
(-0.0254857072 0.0177517518 1.22706837e-27)
(-0.0766378624 0.0531802453 0)
(-0.12883821 0.0890652889 0)
(-0.182019696 0.125322559 1.54108226e-30)
(-0.235998149 0.161803774 0)
(-0.290496968 0.198302103 0)
(-0.345171994 0.234573288 0)
(-0.399648797 0.270354471 -4.74750359e-28)
(-0.453515324 0.305385668 0)
(-0.506388695 0.339440257 2.55535314e-28)
(-0.557963556 0.372326026 -1.47137346e-26)
(-0.607913954 0.403884355 3.45990431e-34)
(-0.655949022 0.433976108 1.61259993e-26)
(-0.701799647 0.462488856 0)
(-0.745210939 0.489333311 -2.99297797e-28)
(-0.785935531 0.514438796 6.01618464e-28)
(-0.823726913 0.537749377 0)
(-0.85833256 0.559220756 -1.51908772e-26)
(-0.889481643 0.578815513 6.07277092e-28)
(-0.91688045 0.596497882 3.35068835e-26)
(-0.940246907 0.612197334 1.8960971e-26)
(-0.959224016 0.625978318 5.59181621e-28)
(-0.973550253 0.637836016 0)
(-0.982926025 0.647845089 1.5687746e-26)
(-0.987025354 0.656149605 1.25587955e-26)
(-0.985205589 0.662558301 1.34074802e-26)
(-0.976871453 0.66712545 1.63756775e-26)
(-0.961357621 0.669815698 -2.00466802e-26)
(-0.937855816 0.670581729 -2.04257109e-26)
(-0.905337539 0.669449403 0)
(-0.863490336 0.66669724 1.70640395e-26)
(-0.811300239 0.66243551 2.10292448e-26)
(-0.74771413 0.656720985 -1.21981866e-27)
(-0.671582495 0.649629658 2.86355066e-26)
(-0.581573139 0.641256123 3.25841043e-26)
(-0.47602558 0.631701578 4.98966347e-27)
(-0.3531588 0.621103743 -3.34313939e-27)
(-0.211596595 0.609154725 2.91458026e-26)
(-0.046027502 0.596219724 -4.08630035e-26)
(0.136784257 0.5850419 -2.89600224e-26)
(0.344597717 0.574518655 -2.93896723e-25)
(0.591500981 0.561635587 -1.03493758e-25)
(0.873067896 0.547809324 0)
(1.19429647 0.535126672 1.69321661e-26)
(1.55991207 0.523625453 1.16272932e-26)
(1.97393955 0.513214895 2.35856584e-26)
(2.44148474 0.504269509 -5.17172484e-33)
(2.9678907 0.49719528 -1.58696061e-25)
(3.55819652 0.492711534 0)
(4.21694278 0.491711639 4.30865519e-26)
(4.94793668 0.495045569 -3.50097596e-25)
(5.75394431 0.503464645 -6.14409554e-25)
(6.6361488 0.51766616 2.97089255e-25)
(7.59377011 0.538423297 -7.52740893e-25)
(8.62358626 0.566647864 -1.43862791e-24)
(9.71912497 0.603297926 -1.83578213e-24)
(10.8699924 0.649596152 -6.77264618e-24)
(12.0618196 0.706483931 -4.99649298e-24)
(13.2813866 0.774753296 -5.00334532e-24)
(14.5112197 0.852942632 -5.75328095e-24)
(15.7429957 0.937509637 0)
(16.9519152 1.02621582 4.19935874e-25)
(18.1261259 1.12352964 -5.49867871e-24)
(19.2281282 1.23079043 -6.53657602e-24)
(20.2677073 1.33096639 -3.30504791e-26)
(21.2520109 1.39891252 0)
(22.1419791 1.43759798 1.16549978e-23)
(22.8816857 1.47924087 1.26972651e-23)
(23.3751066 1.57266596 1.20331121e-24)
(23.572562 1.58743751 -1.41448186e-24)
(23.6264194 1.62369235 -1.89119851e-26)
(23.6240844 1.61807065 -1.69267127e-24)
(23.6074835 1.61287348 -1.05480019e-23)
(23.6042846 1.53581926 -1.10627101e-23)
(23.6379443 1.44786305 -1.43025742e-24)
(23.648862 1.42487227 0)
(23.6469429 1.41736514 -7.90914848e-24)
(23.6828297 1.3371477 -1.46588066e-23)
(23.7933719 1.21209284 0)
(23.7701433 1.16154925 -1.35438803e-23)
(-0.0271826316 0.0173854069 -2.6477335e-27)
(-0.0818875972 0.0521446831 -4.36199328e-27)
(-0.137822034 0.0873966314 -4.94038715e-27)
(-0.194851698 0.123031684 -7.15332588e-29)
(-0.25270267 0.158873465 5.19552562e-27)
(-0.310997954 0.19468566 -1.55443511e-28)
(-0.369289622 0.230197772 -5.26450063e-27)
(-0.427096987 0.265132586 -5.63430815e-27)
(-0.483942519 0.299227109 1.76242328e-28)
(-0.539382623 0.332235322 3.68233291e-28)
(-0.592946292 0.363961202 5.35511327e-27)
(-0.644292793 0.394237237 1.3054354e-26)
(-0.693067669 0.422941241 7.42529486e-27)
(-0.738930968 0.449969364 6.25709977e-27)
(-0.781558081 0.475237646 2.05822147e-28)
(-0.820627322 0.498684502 -1.9897743e-27)
(-0.855813194 0.520266145 0)
(-0.886804708 0.539907951 0)
(-0.913233322 0.557656556 -9.92021118e-28)
(-0.934777023 0.573532378 1.35439518e-26)
(-0.950993884 0.587478051 1.42776094e-26)
(-0.961423569 0.599447732 1.84044062e-26)
(-0.965500587 0.6094564 6.32369721e-35)
(-0.962599658 0.617470128 -2.17947177e-26)
(-0.952002927 0.623439717 2.22134831e-26)
(-0.933219089 0.627593145 4.7202254e-26)
(-0.905484295 0.629939638 2.56765558e-26)
(-0.867940808 0.630533209 1.98161824e-28)
(-0.819645212 0.62943333 -3.2846133e-28)
(-0.759555837 0.626703367 9.41007687e-28)
(-0.686494981 0.622433468 0)
(-0.599099598 0.61673888 2.85962077e-26)
(-0.495769474 0.609738874 1.9321801e-27)
(-0.374764096 0.601580493 -1.48249349e-26)
(-0.23449535 0.592174177 0)
(-0.0724594495 0.581694263 -7.65455836e-26)
(0.114317082 0.571807881 -7.91179716e-26)
(0.320299769 0.563201808 0)
(0.564958806 0.553165752 0)
(0.843849679 0.542315852 -6.84366202e-26)
(1.16134757 0.532629694 -6.30262278e-26)
(1.52200375 0.524379093 -3.46790722e-26)
(1.92969321 0.51764661 0)
(2.3892297 0.512969446 1.28085763e-25)
(2.90558418 0.510961394 3.32813659e-25)
(3.48342316 0.512340061 2.48341786e-25)
(4.12697705 0.517897852 -3.61838229e-26)
(4.83983211 0.528418138 -1.00029208e-27)
(5.62482102 0.544627139 0)
(6.48355956 0.567272906 -6.90130869e-25)
(7.41607436 0.59715574 1.45975594e-25)
(8.42024264 0.635045712 1.29987488e-24)
(9.49137713 0.681640412 2.14983786e-25)
(10.6213566 0.737550223 -1.82142452e-24)
(11.7983879 0.803472397 -5.21692372e-24)
(13.0064447 0.879909368 3.84704346e-32)
(14.2309331 0.966405032 2.86499006e-24)
(15.4551517 1.06134735 0)
(16.6613914 1.1642948 0)
(17.8257834 1.27380856 3.93314888e-25)
(18.9406525 1.38285991 4.16606154e-25)
(19.980735 1.48501949 0)
(20.944884 1.57457846 8.51086863e-24)
(21.790176 1.67039237 7.93515075e-24)
(22.5382231 1.73438104 -9.60228503e-24)
(23.1392961 1.79574987 -2.75863266e-23)
(23.5118658 1.80949465 -1.09117075e-23)
(23.6128076 1.80430435 -5.29945565e-24)
(23.633351 1.83958407 -8.08853248e-24)
(23.6007089 1.90135034 -1.3646628e-24)
(23.6133926 1.82094541 1.5901065e-23)
(23.6180552 1.80722781 8.5707813e-24)
(23.6176434 1.79393255 -1.03005226e-23)
(23.6381665 1.75402868 -1.09291781e-23)
(23.6803485 1.72075109 -1.41019752e-23)
(23.7158221 1.65215435 -1.29124672e-23)
(23.7327765 1.61661906 -1.28762879e-23)
(23.7827655 1.560113 2.14004213e-31)
(23.9362945 1.49516967 3.05560578e-23)
(23.9192154 1.46392932 2.36510246e-23)
(-0.0292043849 0.0170952035 1.58281822e-27)
(-0.0879820494 0.0512256562 6.20958083e-29)
(-0.148036598 0.0857681575 5.36611695e-27)
(-0.209150424 0.120586446 -1.08049926e-34)
(-0.270946019 0.155480391 -5.05402094e-27)
(-0.332934991 0.190191853 -4.97869082e-27)
(-0.394558152 0.22443373 -8.92986315e-27)
(-0.455229057 0.25791877 -4.10868548e-27)
(-0.514370343 0.290382003 -3.29163274e-27)
(-0.571436591 0.321593134 -2.80017599e-27)
(-0.625932074 0.351348691 -2.41351088e-27)
(-0.677353754 0.379496239 -1.70949396e-27)
(-0.725273616 0.405916304 -3.10402715e-28)
(-0.769300915 0.430511 1.38760571e-27)
(-0.8089927 0.453262696 1.84122767e-28)
(-0.843981827 0.474076149 1.80629797e-28)
(-0.873823311 0.49293989 1.70347526e-26)
(-0.898040256 0.509872959 2.44126609e-26)
(-0.916146901 0.524790056 -2.96497729e-28)
(-0.927574382 0.537675034 -2.8286729e-28)
(-0.93179249 0.548657369 3.40014795e-26)
(-0.928180108 0.557721222 3.9183835e-26)
(-0.916029372 0.564894189 0)
(-0.894539175 0.570222501 1.1105691e-28)
(-0.862858235 0.573743107 0)
(-0.820025198 0.575521805 0)
(-0.764963361 0.575646614 -1.42699464e-28)
(-0.696468292 0.57422135 -6.88112773e-26)
(-0.613187877 0.57136563 -7.46885885e-26)
(-0.513561611 0.567215434 7.79890393e-26)
(-0.395887703 0.561934746 6.98570685e-26)
(-0.258534287 0.555496964 -2.01590829e-27)
(-0.0991554745 0.548113476 2.3117001e-27)
(0.0850142644 0.541223501 0)
(0.289561289 0.535352444 -3.33406137e-27)
(0.531467689 0.528547355 0)
(0.807050766 0.521269359 0)
(1.12028995 0.515311466 -5.19119601e-27)
(1.47555269 0.511159423 0)
(1.87656 0.509020594 0)
(2.3277133 0.509487317 1.65336897e-25)
(2.83355476 0.513183605 1.77262545e-25)
(3.39837824 0.520815192 0)
(4.0261405 0.533164343 0)
(4.72025528 0.551052412 0)
(5.48359121 0.575292533 -4.08575647e-26)
(6.3179604 0.606689885 -5.03503392e-26)
(7.22378266 0.646023212 9.33268946e-25)
(8.19967716 0.693997107 1.1193235e-24)
(9.24201827 0.75115418 1.42206833e-24)
(10.3446365 0.817870674 1.78910097e-24)
(11.4979527 0.894265434 2.33190145e-24)
(12.6893495 0.980305563 2.78877766e-24)
(13.901267 1.07581255 0)
(15.1178001 1.17979004 0)
(16.3211439 1.29044039 -3.01038207e-24)
(17.4925849 1.40571115 -6.7772749e-24)
(18.6132955 1.52296238 -3.78362388e-24)
(19.6629767 1.63808845 -3.9867318e-24)
(20.6204696 1.75224655 -3.26496344e-24)
(21.4720151 1.85456384 9.18924041e-24)
(22.2096699 1.94426189 1.80641379e-23)
(22.8320261 1.987775 5.04253152e-25)
(23.3329452 2.0374348 -1.29654805e-23)
(23.5807688 2.06254216 5.21616554e-25)
(23.6169332 2.08165262 -1.38213002e-24)
(23.6135907 2.12526534 6.04818948e-24)
(23.5939129 2.11797572 -1.71521739e-31)
(23.6031153 2.07375379 -8.05957839e-24)
(23.6225578 2.0383773 -1.19546168e-24)
(23.6531416 2.00549251 1.28686684e-23)
(23.6559928 1.99055336 8.86186532e-24)
(23.6569864 1.9799798 0)
(23.6826969 1.93843034 1.07387855e-24)
(23.7549104 1.88605325 0)
(23.7731925 1.8813945 1.47379567e-23)
(23.8084577 1.85795171 2.49279634e-23)
(23.9629637 1.76596849 1.35644409e-23)
(24.1047204 1.6728656 1.3517087e-23)
(24.0966862 1.6508198 2.91502645e-23)
(-0.031591316 0.0168590949 1.74384731e-27)
(-0.0949853263 0.0503865226 5.61844792e-27)
(-0.159505772 0.0841631399 -9.18361226e-29)
(-0.224829735 0.118026418 -5.1154234e-27)
(-0.290458594 0.151756422 -4.57802119e-27)
(-0.355777297 0.185080172 -4.06136189e-27)
(-0.420101346 0.217702703 -2.23812704e-28)
(-0.482724073 0.249335708 1.94739825e-27)
(-0.542954076 0.279718177 7.44325514e-28)
(-0.600138031 0.30862719 -7.01968759e-28)
(-0.653665835 0.335885422 0)
(-0.702966305 0.361365935 -5.1039596e-28)
(-0.747516798 0.38495004 2.60331759e-28)
(-0.786765732 0.406595065 0)
(-0.820211399 0.426216905 0)
(-0.847289684 0.443851828 0)
(-0.867449357 0.459478503 0)
(-0.880086429 0.473115506 -2.52226934e-28)
(-0.884541433 0.484791593 0)
(-0.880085809 0.494544496 -2.71034724e-26)
(-0.865936053 0.50241321 -3.06385072e-26)
(-0.84118684 0.508476007 6.78550356e-26)
(-0.804885523 0.512806589 7.62181422e-26)
(-0.755945745 0.515505899 -8.38899746e-26)
(-0.693163575 0.51668776 -9.22989091e-26)
(-0.61519759 0.516485884 -1.00339642e-25)
(-0.520522067 0.515054937 -1.07060536e-25)
(-0.407470439 0.512575415 -1.06151812e-25)
(-0.27439015 0.509081327 -2.35949129e-25)
(-0.119074832 0.50481222 -1.61640196e-25)
(0.0610809075 0.500989359 0)
(0.262707287 0.498026985 1.67664089e-27)
(0.500335038 0.494612682 2.1867295e-27)
(0.77118829 0.491169461 0)
(1.07893387 0.489272451 -3.42665098e-27)
(1.42753729 0.489443706 0)
(1.82051882 0.491964374 0)
(2.26190687 0.497471378 2.22574805e-25)
(2.75588291 0.506627656 7.48858097e-27)
(3.30644782 0.52016967 -3.01512659e-25)
(3.91734278 0.538924368 3.47450488e-25)
(4.59181332 0.563771209 4.29526573e-25)
(5.332664 0.595558305 -1.61203475e-26)
(6.1417843 0.635105391 0)
(7.01985959 0.683191516 8.44671508e-25)
(7.96603367 0.74050739 9.33778887e-25)
(8.97755153 0.807593657 0)
(10.0494065 0.884779018 0)
(11.1739477 0.972133542 -1.77942757e-24)
(12.3404027 1.06931187 -2.17739028e-24)
(13.5351871 1.1757164 2.75346755e-24)
(14.7392467 1.29049659 3.14801639e-24)
(15.9354987 1.41188031 -3.07783964e-24)
(17.1060238 1.53712469 4.32609262e-32)
(18.232066 1.66374824 3.73759797e-24)
(19.293602 1.78882739 1.95261802e-26)
(20.2708203 1.90879992 0)
(21.1479359 2.02102765 3.70345824e-25)
(21.9063044 2.11801508 -4.45710813e-24)
(22.5437545 2.20484071 4.52408964e-25)
(23.0338099 2.26806055 5.06184352e-24)
(23.412829 2.31056334 0)
(23.61765 2.34584215 5.20896028e-25)
(23.6462122 2.34933199 0)
(23.6195313 2.36847322 3.4941171e-25)
(23.6142164 2.33611645 -5.55227012e-25)
(23.6185469 2.31368241 -8.29772711e-25)
(23.6322321 2.29518427 -1.13608348e-23)
(23.6424288 2.28730317 -1.14300534e-23)
(23.6733963 2.26245514 -1.11406989e-24)
(23.7101609 2.23333168 -1.17534778e-23)
(23.736115 2.19947702 -1.22278921e-23)
(23.7437236 2.1986091 -1.22714495e-23)
(23.7981444 2.16200525 -1.13428382e-23)
(23.9080823 2.08290606 -1.36152676e-23)
(23.985476 2.07775664 -1.45107976e-23)
(24.0081674 2.09289469 1.59117024e-23)
(24.0400946 2.05626656 1.15729629e-23)
(24.1565703 1.95764332 -3.44496765e-24)
(24.1701308 1.88518153 2.31869532e-24)
(-0.034130718 0.0165270121 1.57407749e-27)
(-0.102230982 0.049224368 -5.08849031e-27)
(-0.171063942 0.0819747684 -1.49848715e-28)
(-0.240170756 0.114590011 -1.52354629e-34)
(-0.308907552 0.14683285 -2.69954987e-27)
(-0.376512341 0.178421604 -1.70049144e-28)
(-0.442158811 0.209061638 -2.22355849e-28)
(-0.505007291 0.238473443 2.76681269e-34)
(-0.564238565 0.26642184 -7.33816506e-27)
(-0.619087754 0.292697777 -6.31450103e-27)
(-0.66881408 0.31715181 4.03133448e-28)
(-0.712719369 0.339658565 -1.1185624e-26)
(-0.750114505 0.360168518 -1.30042088e-26)
(-0.780341306 0.378636648 -1.66498722e-26)
(-0.802724843 0.395055184 -2.01872776e-26)
(-0.816559525 0.409447494 2.39825043e-26)
(-0.821097269 0.421854876 2.81307695e-26)
(-0.815524038 0.432343781 -4.21827333e-28)
(-0.798974117 0.440975409 0)
(-0.77042679 0.447859384 -4.09722915e-26)
(-0.72884099 0.45309554 -4.6431634e-26)
(-0.673024129 0.45682139 -7.96209472e-28)
(-0.601658807 0.459188135 5.6907446e-26)
(-0.513263471 0.460370228 6.25886064e-26)
(-0.40621866 0.460568801 -1.09979237e-27)
(-0.278876342 0.459877022 0)
(-0.129159567 0.458557639 4.47101705e-28)
(0.0454040057 0.457643354 1.16435987e-28)
(0.242337084 0.457481171 -1.57994782e-25)
(0.47395904 0.457275764 -1.71512458e-25)
(0.738274582 0.457428633 2.20351238e-25)
(1.03868472 0.459302726 2.40629422e-25)
(1.37879868 0.463442845 3.62506226e-27)
(1.76193864 0.470205168 -2.66920805e-25)
(2.19183123 0.480251225 2.41183792e-33)
(2.67233492 0.494283894 3.22644946e-25)
(3.20717435 0.513070463 -3.57992356e-25)
(3.79986547 0.537451187 -4.16100132e-25)
(4.45350284 0.568316392 1.88240873e-26)
(5.1707927 0.606530435 -1.14307602e-26)
(5.9536786 0.652929178 -1.50268563e-26)
(6.80307126 0.708306551 -7.87590973e-25)
(7.71854879 0.773369497 -1.91574867e-24)
(8.6980374 0.848677372 -1.14171131e-24)
(9.7375001 0.934583581 -1.31103996e-24)
(10.8306364 1.03117804 -1.65995041e-24)
(11.968582 1.13821724 0)
(13.139682 1.25509002 2.4790045e-24)
(14.3289745 1.38083723 2.93128925e-24)
(15.5175084 1.51415236 3.24531848e-24)
(16.6855901 1.65289593 6.73713035e-24)
(17.815061 1.79388636 6.98425079e-24)
(18.887081 1.93386615 7.39726027e-24)
(19.8837466 2.0688337 7.84422259e-24)
(20.7883023 2.19663926 4.12715363e-24)
(21.5821099 2.31094165 -5.27194765e-25)
(22.2596765 2.41323585 0)
(22.8059493 2.49517253 -4.0311726e-24)
(23.2283421 2.55586258 -4.7856282e-24)
(23.5191501 2.61756245 0)
(23.6671192 2.61568807 -6.05291345e-24)
(23.6922179 2.64182734 -5.99485499e-24)
(23.6537742 2.64626875 0)
(23.6301615 2.63847255 -4.81304891e-25)
(23.6373022 2.60553573 0)
(23.6434894 2.58757445 -8.69057728e-24)
(23.6958591 2.55148515 -1.85072165e-24)
(23.7329001 2.53661389 1.08842491e-23)
(23.7762835 2.51721615 -1.41358377e-24)
(23.8147339 2.52395087 -1.27111176e-24)
(23.8383116 2.51791899 -1.11781545e-23)
(23.869048 2.49225211 -1.09952669e-23)
(23.8936232 2.48224199 -1.13971497e-24)
(23.9270454 2.47602371 -1.10303315e-24)
(23.9935418 2.41119874 -6.17178235e-26)
(24.0407994 2.31885817 -1.44253748e-24)
(24.1162715 2.21182298 1.91621996e-23)
(24.140428 2.2420514 2.39695973e-23)
(24.1390048 2.22303116 1.06543397e-23)
(24.1558944 2.16520617 -2.62887405e-24)
(-0.0364230818 0.0159080077 0)
(-0.108499647 0.0472002051 -2.26631653e-28)
(-0.18063912 0.0783527013 2.36334806e-28)
(-0.252217096 0.109160032 3.99334689e-28)
(-0.322420219 0.139376841 2.58283164e-28)
(-0.390320007 0.168721463 2.69364799e-28)
(-0.454923605 0.196913144 -5.05729151e-27)
(-0.515227934 0.22369341 0)
(-0.570258824 0.248832902 5.98985031e-28)
(-0.619078496 0.272173846 -1.2572898e-26)
(-0.660802394 0.293589105 -1.52337001e-26)
(-0.694574654 0.313006797 1.94943825e-26)
(-0.719555897 0.330397997 6.85796813e-28)
(-0.734904249 0.345771955 -5.49359126e-26)
(-0.739749299 0.359176473 -6.49741184e-26)
(-0.733175711 0.370668632 -3.64846021e-26)
(-0.714198722 0.380356441 -7.39951863e-28)
(-0.681730429 0.388355423 -4.79583576e-26)
(-0.63462494 0.39480632 -5.31677717e-26)
(-0.571598832 0.399881972 7.18242196e-28)
(-0.491227818 0.403776121 -7.49751764e-28)
(-0.391953788 0.406710249 -2.82109531e-27)
(-0.272158481 0.408831752 -7.85565127e-26)
(-0.12989044 0.410422262 -1.92090692e-25)
(0.0371981533 0.412354095 -1.01898912e-25)
(0.227397703 0.414934693 -1.21895034e-27)
(0.451035037 0.417781367 -1.00165447e-25)
(0.706795122 0.421282928 9.15023713e-28)
(0.99784934 0.426617354 -7.43781685e-28)
(1.3274923 0.43434628 -1.40982922e-25)
(1.69885179 0.444893478 0)
(2.1153762 0.458938108 -3.36346092e-25)
(2.58062631 0.47720462 9.53109269e-28)
(3.09806879 0.500473443 4.10199208e-25)
(3.67100615 0.529584314 4.60817956e-25)
(4.30240696 0.565422366 5.19848978e-25)