/*--------------------------------*- C++ -*----------------------------------*\
  =========                 |
  \\      /  F ield         | OpenFOAM: The Open Source CFD Toolbox
   \\    /   O peration     | Website:  https://openfoam.org
    \\  /    A nd           | Version:  8
     \\/     M anipulation  |
\*---------------------------------------------------------------------------*/
FoamFile
{
    version     2.0;
    format      ascii;
    class       volScalarField;
    location    "0.043";
    object      p;
}
// * * * * * * * * * * * * * * * * * * * * * * * * * * * * * * * * * * * * * //

dimensions      [1 -1 -2 0 0 0 0];

internalField   nonuniform List<scalar> 
42400
(
101441.141
101441.13
101441.118
101441.107
101441.097
101441.088
101441.081
101441.074
101441.068
101441.063
101441.059
101441.056
101441.054
101441.054
101441.054
101441.056
101441.059
101441.063
101441.068
101441.074
101441.081
101441.09
101441.099
101441.11
101441.122
101441.135
101441.149
101441.165
101441.181
101441.199
101441.217
101441.238
101441.259
101441.282
101441.306
101441.331
101441.358
101441.394
101441.442
101441.495
101441.536
101441.565
101441.594
101441.627
101441.675
101441.738
101441.807
101441.883
101441.963
101442.051
101442.152
101442.276
101442.416
101442.556
101442.697
101442.868
101443.071
101443.302
101443.556
101443.837
101444.151
101444.5
101444.891
101445.324
101445.791
101446.289
101446.815
101447.4
101447.973
101448.351
101449.34
101450.608
101450.229
101450.151
101452.282
101454.657
101456.1
101457.145
101456.259
101453.409
101440.803
101440.794
101440.784
101440.776
101440.768
101440.761
101440.755
101440.75
101440.745
101440.742
101440.739
101440.737
101440.736
101440.737
101440.738
101440.74
101440.743
101440.747
101440.752
101440.759
101440.766
101440.774
101440.783
101440.793
101440.804
101440.815
101440.828
101440.841
101440.856
101440.871
101440.887
101440.903
101440.92
101440.942
101440.971
101441.004
101441.04
101441.065
101441.076
101441.089
101441.112
101441.147
101441.185
101441.226
101441.271
101441.318
101441.366
101441.431
101441.51
101441.606
101441.684
101441.756
101441.868
101442.006
101442.157
101442.327
101442.519
101442.74
101442.996
101443.296
101443.641
101444.031
101444.466
101444.956
101445.501
101446.116
101446.778
101447.51
101448.315
101448.855
101449.63
101451.302
101452.21
101452.621
101453.959
101455.519
101459.047
101460.288
101462.265
101466.673
101440.338
101440.331
101440.324
101440.317
101440.312
101440.307
101440.302
101440.299
101440.296
101440.294
101440.293
101440.292
101440.293
101440.294
101440.296
101440.3
101440.304
101440.309
101440.315
101440.323
101440.331
101440.34
101440.35
101440.361
101440.372
101440.385
101440.399
101440.413
101440.428
101440.445
101440.465
101440.488
101440.513
101440.536
101440.552
101440.563
101440.574
101440.593
101440.62
101440.649
101440.679
101440.711
101440.744
101440.777
101440.823
101440.889
101440.942
101440.98
101441.038
101441.115
101441.208
101441.305
101441.414
101441.54
101441.688
101441.865
101442.076
101442.323
101442.61
101442.946
101443.34
101443.805
101444.351
101444.986
101445.695
101446.488
101447.372
101448.323
101449.432
101450.392
101451.365
101452.69
101454.519
101457.015
101459.717
101462.688
101464.479
101465.801
101468.585
101471.373
101439.778
101439.773
101439.767
101439.762
101439.758
101439.754
101439.751
101439.749
101439.748
101439.747
101439.748
101439.749
101439.751
101439.754
101439.758
101439.763
101439.77
101439.777
101439.786
101439.795
101439.806
101439.818
101439.831
101439.845
101439.859
101439.875
101439.893
101439.912
101439.933
101439.955
101439.975
101439.992
101440.01
101440.028
101440.05
101440.078
101440.107
101440.137
101440.168
101440.198
101440.225
101440.263
101440.319
101440.361
101440.386
101440.431
101440.493
101440.557
101440.625
101440.702
101440.792
101440.898
101441.024
101441.173
101441.347
101441.552
101441.797
101442.092
101442.444
101442.863
101443.361
101443.953
101444.652
101445.474
101446.413
101447.442
101448.609
101449.83
101451.221
101452.628
101454.288
101457.296
101459.404
101460.896
101462.654
101464.599
101466.956
101469.267
101470.98
101472.594
101439.134
101439.129
101439.124
101439.12
101439.117
101439.114
101439.112
101439.111
101439.11
101439.111
101439.113
101439.116
101439.12
101439.125
101439.132
101439.139
101439.148
101439.159
101439.17
101439.184
101439.197
101439.212
101439.228
101439.246
101439.266
101439.288
101439.311
101439.334
101439.358
101439.383
101439.411
101439.441
101439.473
101439.505
101439.537
101439.571
101439.605
101439.635
101439.675
101439.732
101439.774
101439.801
101439.845
101439.902
101439.957
101440.015
101440.08
101440.154
101440.24
101440.338
101440.452
101440.585
101440.742
101440.93
101441.157
101441.429
101441.754
101442.141
101442.6
101443.142
101443.781
101444.531
101445.417
101446.445
101447.646
101448.962
101450.47
101452.057
101453.751
101456.006
101457.739
101458.997
101460.878
101462.73
101464.224
101466.195
101468.176
101470.864
101473.567
101475.732
101438.399
101438.394
101438.389
101438.385
101438.382
101438.38
101438.379
101438.379
101438.379
101438.381
101438.384
101438.389
101438.395
101438.402
101438.412
101438.422
101438.434
101438.448
101438.462
101438.478
101438.498
101438.521
101438.545
101438.571
101438.598
101438.627
101438.657
101438.689
101438.723
101438.758
101438.794
101438.832
101438.871
101438.911
101438.948
101438.993
101439.055
101439.102
101439.135
101439.184
101439.244
101439.301
101439.361
101439.427
101439.499
101439.578
101439.666
101439.767
101439.882
101440.017
101440.177
101440.368
101440.595
101440.866
101441.188
101441.568
101442.018
101442.545
101443.16
101443.876
101444.7
101445.636
101446.699
101447.919
101449.27
101450.747
101452.431
101454.487
101456.192
101457.707
101459.674
101461.428
101463.108
101464.609
101466.99
101469.67
101471.624
101473.66
101475.795
101477.525
101437.557
101437.552
101437.547
101437.543
101437.541
101437.539
101437.539
101437.539
101437.542
101437.545
101437.55
101437.556
101437.565
101437.575
101437.586
101437.6
101437.617
101437.636
101437.658
101437.681
101437.706
101437.734
101437.763
101437.795
101437.828
101437.864
101437.902
101437.942
101437.984
101438.029
101438.074
101438.118
101438.169
101438.235
101438.289
101438.33
101438.387
101438.453
101438.518
101438.584
101438.654
101438.73
101438.811
101438.9
101438.999
101439.111
101439.24
101439.388
101439.561
101439.765
101440.006
101440.291
101440.627
101441.022
101441.483
101442.018
101442.637
101443.347
101444.154
101445.075
101446.123
101447.208
101448.23
101449.47
101451.488
101453.953
101455.902
101457.216
101458.589
101460.343
101462.052
101464.02
101466.591
101469.022
101470.788
101471.805
101473.298
101475.843
101477.692
101479.17
101436.574
101436.57
101436.565
101436.562
101436.56
101436.559
101436.56
101436.563
101436.567
101436.573
101436.58
101436.59
101436.602
101436.616
101436.633
101436.652
101436.673
101436.696
101436.722
101436.751
101436.782
101436.816
101436.853
101436.892
101436.933
101436.978
101437.025
101437.073
101437.121
101437.176
101437.245
101437.304
101437.353
101437.416
101437.488
101437.558
101437.631
101437.707
101437.789
101437.876
101437.97
101438.073
101438.187
101438.314
101438.459
101438.625
101438.818
101439.043
101439.307
101439.617
101439.98
101440.403
101440.894
101441.46
101442.106
101442.834
101443.649
101444.54
101445.502
101446.495
101447.842
101449.835
101451.98
101454.1
101455.511
101456.232
101457.04
101458.805
101461.338
101463.524
101466.279
101468.23
101469.43
101470.322
101471.663
101474.168
101475.795
101476.998
101479.054
101481.39
101435.42
101435.416
101435.413
101435.411
101435.411
101435.412
101435.416
101435.421
101435.428
101435.438
101435.45
101435.464
101435.48
101435.499
101435.52
101435.544
101435.571
101435.601
101435.633
101435.668
101435.707
101435.748
101435.793
101435.84
101435.89
101435.94
101435.997
101436.065
101436.127
101436.182
101436.249
101436.324
101436.398
101436.476
101436.558
101436.644
101436.736
101436.834
101436.941
101437.058
101437.186
101437.33
101437.493
101437.679
101437.894
101438.143
101438.433
101438.772
101439.167
101439.625
101440.154
101440.763
101441.458
101442.247
101443.133
101444.111
101445.195
101446.348
101447.601
101449.497
101451.636
101452.72
101453.742
101455.335
101457.131
101458.963
101460.773
101462.439
101463.701
101465.132
101466.763
101468.377
101470.486
101472.869
101475.009
101476.71
101479.091
101481.981
101483.288
101484.458
101434.068
101434.066
101434.065
101434.066
101434.068
101434.073
101434.08
101434.089
101434.101
101434.114
101434.131
101434.15
101434.172
101434.196
101434.224
101434.255
101434.289
101434.326
101434.366
101434.41
101434.457
101434.506
101434.557
101434.614
101434.682
101434.745
101434.804
101434.873
101434.95
101435.027
101435.108
101435.193
101435.283
101435.378
101435.479
101435.588
101435.706
101435.834
101435.977
101436.136
101436.315
101436.52
101436.755
101437.026
101437.341
101437.706
101438.129
101438.619
101439.182
101439.826
101440.561
101441.392
101442.323
101443.367
101444.522
101445.784
101447.125
101448.64
101450.48
101451.883
101453.004
101454.31
101455.531
101457.043
101458.849
101460.282
101461.911
101464.124
101466.347
101467.804
101469.237
101471.396
101473.754
101475.991
101477.822
101479.881
101481.734
101483.016
101485.171
101488.193
101432.481
101432.482
101432.485
101432.49
101432.497
101432.507
101432.518
101432.533
101432.55
101432.57
101432.593
101432.619
101432.648
101432.681
101432.716
101432.755
101432.798
101432.844
101432.893
101432.946
101433.008
101433.073
101433.133
101433.195
101433.267
101433.345
101433.424
101433.507
101433.594
101433.686
101433.783
101433.886
101433.996
101434.114
101434.242
101434.382
101434.537
101434.709
101434.903
101435.123
101435.375
101435.664
101435.997
101436.381
101436.824
101437.333
101437.915
101438.576
101439.322
101440.158
101441.089
101442.118
101443.234
101444.458
101445.784
101447.133
101448.642
101450.171
101451.317
101452.632
101454.507
101456.423
101458.112
101459.448
101460.966
101462.751
101464.565
101466.173
101467.617
101469.657
101472.026
101474.052
101475.926
101477.758
101479.593
101481.55
101483.816
101486.233
101488.397
101489.566
101430.628
101430.634
101430.642
101430.652
101430.665
101430.681
101430.7
101430.721
101430.746
101430.774
101430.805
101430.84
101430.878
101430.92
101430.966
101431.015
101431.069
101431.13
101431.191
101431.252
101431.321
101431.396
101431.475
101431.556
101431.641
101431.73
101431.825
101431.924
101432.029
101432.141
101432.26
101432.388
101432.526
101432.677
101432.844
101433.03
101433.238
101433.474
101433.742
101434.049
101434.4
101434.802
101435.262
101435.786
101436.382
101437.053
101437.804
101438.637
101439.556
101440.558
101441.641
101442.805
101444.037
101445.327
101446.698
101448.096
101449.522
101451.122
101452.879
101454.334
101455.941
101458.033
101459.774
101461.39
101462.914
101464.576
101466.341
101468.043
101470.201
101472.397
101473.995
101475.407
101477.155
101479.441
101481.395
101483.846
101486.64
101488.266
101489.507
101491.072
101428.47
101428.482
101428.498
101428.515
101428.536
101428.56
101428.587
101428.618
101428.652
101428.69
101428.732
101428.778
101428.827
101428.881
101428.942
101429.004
101429.068
101429.138
101429.214
101429.294
101429.378
101429.466
101429.558
101429.656
101429.758
101429.867
101429.981
101430.103
101430.232
101430.372
101430.523
101430.688
101430.869
101431.071
101431.297
101431.551
101431.84
101432.168
101432.542
101432.969
101433.454
101434.004
101434.626
101435.326
101436.106
101436.967
101437.912
101438.941
101440.046
101441.222
101442.46
101443.756
101445.109
101446.473
101447.837
101449.18
101450.942
101453.151
101455.182
101457.011
101458.609
101459.634
101460.719
101462.361
101464.191
101466.096
101468.157
101469.718
101471.079
101472.907
101475.432
101477.418
101479.747
101482.256
101484.082
101485.65
101487.283
101489.68
101491.649
101493.171
101425.964
101425.984
101426.008
101426.036
101426.066
101426.1
101426.138
101426.18
101426.225
101426.275
101426.33
101426.39
101426.453
101426.52
101426.592
101426.67
101426.751
101426.837
101426.928
101427.024
101427.125
101427.231
101427.343
101427.461
101427.586
101427.719
101427.861
101428.014
101428.179
101428.36
101428.559
101428.779
101429.025
101429.301
101429.613
101429.966
101430.365
101430.818
101431.33
101431.907
101432.554
101433.278
101434.081
101434.969
101435.944
101437.004
101438.154
101439.416
101440.746
101442.129
101443.543
101444.99
101446.439
101447.942
101449.905
101452.57
101454.448
101455.486
101456.614
101457.748
101458.908
101460.768
101463.254
101465.077
101466.311
101467.672
101469.189
101471.161
101474.035
101476.295
101477.745
101479.745
101482.044
101483.606
101485.554
101487.914
101489.756
101491.106
101493.231
101495.108
101423.067
101423.097
101423.133
101423.171
101423.213
101423.26
101423.31
101423.365
101423.425
101423.488
101423.557
101423.63
101423.709
101423.792
101423.88
101423.973
101424.072
101424.175
101424.285
101424.4
101424.521
101424.65
101424.786
101424.931
101425.087
101425.254
101425.435
101425.634
101425.852
101426.093
101426.363
101426.665
101427.004
101427.387
101427.819
101428.305
101428.85
101429.461
101430.14
101430.889
101431.711
101432.602
101433.559
101434.571
101435.63
101436.693
101437.719
101439.115
101441.011
101442.942
101444.961
101446.913
101448.873
101450.885
101452.218
101452.756
101453.789
101455.821
101457.686
101459.78
101461.79
101463.24
101464.71
101466.296
101468.378
101470.38
101471.941
101473.729
101475.305
101477.101
101479.709
101481.713
101483.22
101485.256
101487.661
101490.145
101492.507
101494.66
101495.77
101497.146
101419.744
101419.785
101419.835
101419.887
101419.943
101420.003
101420.067
101420.137
101420.211
101420.29
101420.374
101420.463
101420.558
101420.658
101420.763
101420.874
101420.991
101421.115
101421.245
101421.383
101421.53
101421.686
101421.854
101422.035
101422.232
101422.448
101422.685
101422.948
101423.242
101423.571
101423.941
101424.358
101424.828
101425.357
101425.952
101426.618
101427.361
101428.186
101429.096
101430.095
101431.185
101432.369
101433.648
101435.026
101436.518
101438.128
101439.792
101441.541
101443.093
101444.365
101445.781
101447.179
101448.41
101449.518
101451.074
101453.266
101455.277
101457.193
101459.042
101460.685
101462.747
101465.206
101467.072
101468.52
101470.253
101472.31
101474.549
101476.628
101478.409
101480.466
101482.454
101484.269
101486.495
101488.808
101490.503
101491.911
101493.545
101495.381
101497.558
101499.272
101415.981
101416.036
101416.101
101416.168
101416.238
101416.313
101416.393
101416.478
101416.568
101416.663
101416.763
101416.869
101416.98
101417.097
101417.221
101417.351
101417.489
101417.635
101417.79
101417.955
101418.133
101418.325
101418.534
101418.763
101419.015
101419.295
101419.607
101419.956
101420.349
101420.791
101421.288
101421.847
101422.474
101423.174
101423.953
101424.815
101425.763
101426.798
101427.921
101429.129
101430.415
101431.772
101433.187
101434.654
101436.144
101437.698
101439.272
101440.481
101442.147
101444.199
101445.776
101447.518
101449.309
101451.183
101453.044
101454.862
101456.719
101458.618
101460.867
101463.308
101464.967
101466.191
101467.664
101469.677
101472.071
101474.541
101476.949
101478.785
101480.536
101482.794
101485.075
101487.219
101488.764
101490.056
101492.135
101495.008
101496.365
101497.902
101500.215
101501.902
101411.8
101411.869
101411.951
101412.034
101412.121
101412.212
101412.308
101412.409
101412.515
101412.627
101412.744
101412.867
101412.997
101413.133
101413.277
101413.43
101413.592
101413.765
101413.951
101414.152
101414.37
101414.609
101414.872
101415.163
101415.488
101415.85
101416.255
101416.71
101417.22
101417.791
101418.428
101419.138
101419.924
101420.79
101421.742
101422.78
101423.908
101425.128
101426.441
101427.866
101429.384
101430.961
101432.577
101434.232
101435.855
101437.376
101439.046
101441.091
101443.184
101444.949
101446.709
101448.473
101450.272
101452.083
101453.904
101455.734
101457.58
101459.408
101461.134
101463.162
101465.737
101468.39
101470.598
101472.257
101473.77
101475.607
101477.611
101480.034
101483.134
101484.924
101486.399
101488.612
101491.172
101493.466
101495.23
101496.715
101498.871
101501.248
101503.381
101505.7
101407.262
101407.347
101407.447
101407.547
101407.65
101407.758
101407.871
101407.989
101408.113
101408.242
101408.379
101408.522
101408.674
101408.835
101409.006
101409.189
101409.386
101409.6
101409.834
101410.089
101410.372
101410.685
101411.034
101411.424
101411.86
101412.349
101412.895
101413.506
101414.185
101414.938
101415.766
101416.673
101417.656
101418.715
101419.842
101421.03
101422.261
101423.503
101424.744
101426.277
101428.345
101430.664
101432.994
101435.145
101437.245
101439.441
101441.849
101443.658
101444.521
101445.789
101447.771
101449.707
101451.622
101453.522
101455.424
101457.55
101459.695
101461.934
101464.513
101466.257
101467.366
101468.668
101470.659
101473.915
101476.505
101478.804
101481.021
101482.67
101484.072
101485.973
101488.291
101490.366
101492.873
101495.754
101498.409
101500.76
101502.524
101504.334
101506.793
101507.865
101402.486
101402.588
101402.705
101402.823
101402.943
101403.069
101403.2
101403.337
101403.481
101403.632
101403.792
101403.962
101404.143
101404.338
101404.549
101404.778
101405.028
101405.304
101405.609
101405.949
101406.329
101406.755
101407.232
101407.769
101408.371
101409.045
101409.799
101410.638
101411.568
101412.595
101413.723
101414.956
101416.298
101417.752
101419.324
101421.014
101422.824
101424.896
101427.348
101429.879
101431.779
101433.335
101435.1
101436.721
101438.186
101439.67
101441.159
101442.549
101444.265
101446.602
101448.935
101451.189
101453.436
101455.759
101458.151
101460.287
101462.223
101463.804
101465.218
101467.664
101470.905
101473.008
101474.234
101475.307
101477.211
101479.831
101482.185
101484.53
101486.979
101489.645
101492.339
101495.238
101497.576
101499.359
101501.123
101502.951
101505.037
101507.131
101508.369
101509.978
101427.234
101427.239
101427.243
101427.245
101427.246
101427.244
101427.241
101427.236
101427.229
101427.22
101427.209
101427.195
101427.18
101427.162
101427.142
101427.119
101427.094
101427.066
101427.036
101427.002
101426.966
101426.926
101426.883
101426.837
101426.787
101426.733
101426.675
101426.613
101426.546
101426.475
101426.399
101426.318
101426.232
101426.14
101426.043
101425.939
101425.829
101425.712
101425.588
101425.457
101425.318
101425.171
101425.016
101424.851
101424.676
101424.491
101424.296
101424.09
101423.872
101423.641
101423.396
101423.135
101422.858
101422.561
101422.244
101421.904
101421.539
101421.145
101420.717
101420.251
101419.739
101419.174
101418.546
101417.847
101417.069
101416.205
101415.246
101414.182
101413.001
101411.649
101410.1
101408.567
101406.813
101405.066
101403.085
101400.621
101397.625
101393.33
101389.571
101387.375
101427.15
101427.155
101427.16
101427.163
101427.163
101427.163
101427.16
101427.155
101427.148
101427.14
101427.129
101427.116
101427.101
101427.083
101427.063
101427.041
101427.016
101426.988
101426.958
101426.924
101426.888
101426.848
101426.805
101426.758
101426.708
101426.653
101426.595
101426.532
101426.465
101426.394
101426.317
101426.235
101426.148
101426.056
101425.957
101425.852
101425.741
101425.622
101425.497
101425.364
101425.223
101425.074
101424.916
101424.75
101424.574
101424.388
101424.192
101423.984
101423.764
101423.532
101423.285
101423.023
101422.744
101422.446
101422.128
101421.785
101421.417
101421.017
101420.582
101420.106
101419.581
101419.001
101418.357
101417.64
101416.839
101415.944
101414.946
101413.817
101412.703
101411.507
101410.003
101407.968
101406.16
101404.589
101402.066
101399.674
101397.331
101394.602
101390.702
101385.393
101427.312
101427.318
101427.323
101427.327
101427.328
101427.328
101427.326
101427.322
101427.317
101427.309
101427.299
101427.287
101427.273
101427.257
101427.238
101427.217
101427.194
101427.168
101427.139
101427.107
101427.072
101427.034
101426.993
101426.948
101426.9
101426.848
101426.792
101426.731
101426.667
101426.598
101426.524
101426.445
101426.361
101426.272
101426.176
101426.075
101425.967
101425.853
101425.732
101425.603
101425.467
101425.323
101425.17
101425.009
101424.839
101424.659
101424.47
101424.27
101424.054
101423.825
101423.589
101423.336
101423.068
101422.782
101422.478
101422.153
101421.805
101421.431
101421.027
101420.587
101420.103
101419.566
101418.962
101418.271
101417.475
101416.568
101415.544
101414.424
101413.083
101411.529
101410.131
101408.867
101407.089
101404.156
101401.967
101399.852
101396.715
101393.925
101391.641
101388.882
101427.708
101427.714
101427.72
101427.724
101427.727
101427.727
101427.727
101427.724
101427.72
101427.714
101427.706
101427.696
101427.683
101427.669
101427.653
101427.634
101427.613
101427.59
101427.563
101427.535
101427.503
101427.469
101427.431
101427.39
101427.346
101427.299
101427.248
101427.192
101427.133
101427.07
101427.002
101426.929
101426.852
101426.769
101426.681
101426.588
101426.488
101426.383
101426.271
101426.152
101426.027
101425.894
101425.753
101425.605
101425.449
101425.283
101425.109
101424.925
101424.731
101424.525
101424.305
101424.072
101423.823
101423.557
101423.27
101422.96
101422.622
101422.252
101421.843
101421.39
101420.886
101420.323
101419.735
101419.131
101418.429
101417.567
101416.656
101415.744
101414.639
101413.221
101411.395
101409.054
101407.09
101405.381
101402.751
101399.937
101397.851
101394.834
101389.642
101385.64
101428.325
101428.332
101428.338
101428.343
101428.347
101428.349
101428.349
101428.348
101428.346
101428.341
101428.335
101428.328
101428.318
101428.307
101428.293
101428.278
101428.26
101428.241
101428.219
101428.194
101428.168
101428.138
101428.106
101428.071
101428.033
101427.992
101427.948
101427.9
101427.848
101427.793
101427.734
101427.671
101427.603
101427.531
101427.454
101427.373
101427.286
101427.193
101427.095
101426.991
101426.881
101426.765
101426.642
101426.511
101426.373
101426.228
101426.074
101425.912
101425.74
101425.558
101425.365
101425.159
101424.94
101424.705
101424.453
101424.189
101423.914
101423.627
101423.318
101422.968
101422.579
101422.139
101421.595
101420.92
101420.209
101419.472
101418.55
101417.369
101416.122
101414.822
101413.367
101411.661
101409.411
101406.562
101404.253
101401.789
101398.742
101396.301
101393.266
101388.19
101429.131
101429.138
101429.145
101429.151
101429.155
101429.159
101429.161
101429.161
101429.161
101429.159
101429.155
101429.15
101429.143
101429.135
101429.125
101429.114
101429.101
101429.086
101429.068
101429.049
101429.028
101429.005
101428.979
101428.951
101428.921
101428.887
101428.852
101428.813
101428.771
101428.726
101428.678
101428.626
101428.571
101428.512
101428.449
101428.382
101428.312
101428.236
101428.157
101428.072
101427.983
101427.89
101427.791
101427.687
101427.577
101427.463
101427.342
101427.215
101427.082
101426.943
101426.796
101426.64
101426.474
101426.296
101426.098
101425.876
101425.632
101425.36
101425.076
101424.778
101424.446
101424.074
101423.644
101423.135
101422.543
101421.869
101421.093
101420.168
101419.082
101417.853
101416.464
101414.875
101413.082
101410.966
101408.25
101404.984
101401.483
101397.9
101394.222
101390.289
101430.1
101430.107
101430.114
101430.121
101430.126
101430.13
101430.134
101430.136
101430.138
101430.138
101430.137
101430.135
101430.131
101430.127
101430.121
101430.113
101430.104
101430.094
101430.083
101430.069
101430.054
101430.037
101430.019
101429.999
101429.976
101429.952
101429.925
101429.896
101429.865
101429.832
101429.796
101429.757
101429.715
101429.671
101429.624
101429.574
101429.521
101429.464
101429.404
101429.341
101429.275
101429.205
101429.132
101429.055
101428.974
101428.889
101428.801
101428.709
101428.613
101428.513
101428.408
101428.298
101428.183
101428.061
101427.93
101427.785
101427.623
101427.442
101427.235
101427.006
101426.749
101426.452
101426.107
101425.702
101425.225
101424.666
101424.01
101423.235
101422.327
101421.266
101420.03
101418.581
101416.882
101414.909
101412.561
101409.75
101406.495
101402.462
101397.899
101393.577
101431.188
101431.195
101431.203
101431.21
101431.216
101431.221
101431.226
101431.23
101431.233
101431.235
101431.237
101431.237
101431.237
101431.236
101431.234
101431.23
101431.226
101431.221
101431.215
101431.207
101431.198
101431.188
101431.177
101431.164
101431.15
101431.135
101431.118
101431.099
101431.079
101431.057
101431.033
101431.008
101430.98
101430.951
101430.92
101430.887
101430.852
101430.815
101430.776
101430.736
101430.693
101430.649
101430.603
101430.555
101430.506
101430.455
101430.403
101430.349
101430.294
101430.237
101430.179
101430.119
101430.056
101429.988
101429.915
101429.836
101429.747
101429.647
101429.533
101429.4
101429.245
101429.059
101428.834
101428.56
101428.225
101427.816
101427.319
101426.714
101425.983
101425.105
101424.051
101422.787
101421.271
101419.456
101417.309
101414.81
101411.868
101408.546
101404.875
101401.255
101432.363
101432.37
101432.377
101432.384
101432.391
101432.397
101432.402
101432.408
101432.412
101432.416
101432.42
101432.423
101432.425
101432.427
101432.428
101432.429
101432.429
101432.428
101432.427
101432.425
101432.422
101432.418
101432.414
101432.408
101432.402
101432.395
101432.387
101432.378
101432.369
101432.358
101432.346
101432.334
101432.321
101432.306
101432.291
101432.275
101432.258
101432.241
101432.223
101432.205
101432.187
101432.168
101432.15
101432.132
101432.115
101432.098
101432.083
101432.068
101432.055
101432.044
101432.035
101432.027
101432.021
101432.015
101432.009
101432.002
101431.991
101431.976
101431.954
101431.921
101431.874
101431.806
101431.709
101431.576
101431.396
101431.155
101430.84
101430.433
101429.915
101429.264
101428.452
101427.446
101426.205
101424.684
101422.845
101420.652
101418.018
101414.979
101411.37
101407.603
101433.583
101433.589
101433.596
101433.603
101433.609
101433.615
101433.622
101433.628
101433.633
101433.639
101433.644
101433.649
101433.653
101433.658
101433.662
101433.666
101433.669
101433.672
101433.675
101433.678
101433.68
101433.682
101433.684
101433.685
101433.686
101433.687
101433.687
101433.688
101433.688
101433.687
101433.686
101433.686
101433.685
101433.685
101433.685
101433.685
101433.685
101433.686
101433.688
101433.691
101433.696
101433.702
101433.71
101433.721
101433.735
101433.751
101433.772
101433.796
101433.825
101433.859
101433.899
101433.944
101433.995
101434.051
101434.113
101434.179
101434.249
101434.32
101434.393
101434.463
101434.527
101434.581
101434.619
101434.632
101434.612
101434.548
101434.426
101434.23
101433.943
101433.543
101433.004
101432.294
101431.378
101430.223
101428.787
101427.014
101424.825
101422.224
101418.96
101415.581
101434.814
101434.819
101434.825
101434.831
101434.837
101434.843
101434.849
101434.855
101434.861
101434.867
101434.873
101434.879
101434.885
101434.891
101434.898
101434.904
101434.91
101434.916
101434.923
101434.929
101434.936
101434.942
101434.949
101434.956
101434.963
101434.97
101434.977
101434.985
101434.993
101435.001
101435.011
101435.021
101435.032
101435.043
101435.056
101435.071
101435.087
101435.104
101435.124
101435.147
101435.173
101435.202
101435.235
101435.272
101435.314
101435.363
101435.417
101435.478
101435.546
101435.623
101435.709
101435.804
101435.909
101436.024
101436.15
101436.286
101436.433
101436.589
101436.752
101436.922
101437.095
101437.268
101437.436
101437.594
101437.732
101437.842
101437.911
101437.926
101437.87
101437.723
101437.463
101437.059
101436.486
101435.719
101434.717
101433.43
101431.786
101429.712
101427.148
101423.77
101436.023
101436.026
101436.03
101436.035
101436.039
101436.044
101436.05
101436.055
101436.061
101436.067
101436.073
101436.08
101436.086
101436.094
101436.101
101436.109
101436.117
101436.125
101436.134
101436.143
101436.152
101436.162
101436.172
101436.183
101436.195
101436.208
101436.221
101436.235
101436.25
101436.267
101436.284
101436.303
101436.323
101436.345
101436.37
101436.396
101436.426
101436.458
101436.494
101436.534
101436.577
101436.626
101436.68
101436.741
101436.808
101436.883
101436.967
101437.061
101437.164
101437.28
101437.408
101437.548
101437.703
101437.872
101438.057
101438.257
101438.473
101438.704
101438.95
101439.211
101439.484
101439.766
101440.053
101440.342
101440.625
101440.893
101441.138
101441.347
101441.505
101441.595
101441.597
101441.484
101441.234
101440.831
101440.244
101439.433
101438.321
101436.895
101434.978
101432.484
101437.174
101437.175
101437.177
101437.179
101437.182
101437.185
101437.188
101437.193
101437.197
101437.202
101437.208
101437.214
101437.22
101437.227
101437.235
101437.243
101437.252
101437.262
101437.272
101437.283
101437.295
101437.307
101437.321
101437.336
101437.351
101437.368
101437.386
101437.405
101437.426
101437.448
101437.472
101437.498
101437.527
101437.558
101437.591
101437.628
101437.668
101437.711
101437.759
101437.811
101437.867
101437.93
101438.002
101438.084
101438.175
101438.275
101438.386
101438.507
101438.64
101438.787
101438.949
101439.126
101439.322
101439.535
101439.768
101440.021
101440.295
101440.591
101440.907
101441.243
101441.598
101441.97
101442.358
101442.756
101443.159
101443.561
101443.952
101444.323
101444.66
101444.95
101445.175
101445.314
101445.343
101445.247
101445.019
101444.63
101444.052
101443.226
101442.162
101440.533
101438.246
101438.244
101438.243
101438.242
101438.242
101438.243
101438.245
101438.247
101438.25
101438.253
101438.257
101438.262
101438.268
101438.274
101438.281
101438.289
101438.298
101438.308
101438.319
101438.331
101438.344
101438.358
101438.373
101438.389
101438.406
101438.425
101438.446
101438.469
101438.493
101438.52
101438.548
101438.579
101438.613
101438.65
101438.691
101438.735
101438.784
101438.839
101438.9
101438.968
101439.043
101439.124
101439.209
101439.299
101439.399
101439.509
101439.63
101439.762
101439.906
101440.076