/*--------------------------------*- C++ -*----------------------------------*\
  =========                 |
  \\      /  F ield         | OpenFOAM: The Open Source CFD Toolbox
   \\    /   O peration     | Website:  https://openfoam.org
    \\  /    A nd           | Version:  8
     \\/     M anipulation  |
\*---------------------------------------------------------------------------*/
FoamFile
{
    version     2.0;
    format      ascii;
    class       volScalarField;
    location    "0.043";
    object      p_rgh;
}
// * * * * * * * * * * * * * * * * * * * * * * * * * * * * * * * * * * * * * //

dimensions      [1 -1 -2 0 0 0 0];

internalField   nonuniform List<scalar> 
42400
(
101440.831
101440.82
101440.808
101440.797
101440.787
101440.779
101440.771
101440.764
101440.758
101440.754
101440.75
101440.748
101440.746
101440.746
101440.747
101440.749
101440.752
101440.757
101440.762
101440.769
101440.777
101440.786
101440.797
101440.808
101440.821
101440.835
101440.85
101440.866
101440.883
101440.902
101440.921
101440.942
101440.965
101440.989
101441.014
101441.041
101441.069
101441.106
101441.155
101441.21
101441.252
101441.281
101441.312
101441.347
101441.396
101441.46
101441.53
101441.607
101441.688
101441.776
101441.878
101442.002
101442.142
101442.283
101442.424
101442.594
101442.797
101443.026
101443.278
101443.557
101443.867
101444.211
101444.596
101445.022
101445.48
101445.969
101446.485
101447.055
101447.605
101448.032
101449.073
101450.145
101449.816
101450.188
101452.397
101454.317
101455.422
101456.282
101455.396
101453.344
101440.493
101440.485
101440.475
101440.466
101440.459
101440.452
101440.446
101440.441
101440.437
101440.433
101440.431
101440.43
101440.429
101440.43
101440.431
101440.434
101440.438
101440.442
101440.448
101440.455
101440.463
101440.471
101440.481
101440.492
101440.503
101440.516
101440.529
101440.544
101440.559
101440.575
101440.592
101440.609
101440.627
101440.65
101440.68
101440.714
101440.751
101440.776
101440.789
101440.803
101440.828
101440.864
101440.904
101440.946
101440.992
101441.04
101441.089
101441.154
101441.237
101441.334
101441.41
101441.483
101441.596
101441.734
101441.885
101442.054
101442.246
101442.466
101442.72
101443.018
101443.359
101443.744
101444.173
101444.653
101445.188
101445.788
101446.433
101447.147
101447.905
101448.443
101449.311
101450.869
101451.603
101452.125
101453.459
101455.167
101458.688
101460.1
101462.364
101466.23
101440.031
101440.024
101440.017
101440.01
101440.005
101440
101439.996
101439.992
101439.99
101439.988
101439.987
101439.987
101439.988
101439.989
101439.992
101439.996
101440.001
101440.006
101440.013
101440.021
101440.029
101440.039
101440.05
101440.061
101440.074
101440.087
101440.102
101440.116
101440.132
101440.15
101440.171
101440.195
101440.221
101440.245
101440.262
101440.274
101440.286
101440.306
101440.335
101440.364
101440.395
101440.427
101440.461
101440.496
101440.545
101440.612
101440.665
101440.704
101440.763
101440.842
101440.936
101441.033
101441.142
101441.269
101441.417
101441.594
101441.806
101442.052
101442.338
101442.672
101443.064
101443.524
101444.063
101444.686
101445.378
101446.155
101447.013
101447.938
101448.995
101449.901
101450.89
101452.174
101453.856
101456.335
101459.101
101462.046
101463.815
101465.199
101468.068
101471.01
101439.474
101439.469
101439.463
101439.459
101439.455
101439.451
101439.448
101439.446
101439.445
101439.445
101439.445
101439.447
101439.449
101439.453
101439.457
101439.463
101439.47
101439.477
101439.486
101439.496
101439.508
101439.52
101439.534
101439.548
101439.564
101439.58
101439.598
101439.618
101439.641
101439.663
101439.684
101439.702
101439.72
101439.739
101439.763
101439.792
101439.821
101439.852
101439.883
101439.915
101439.944
101439.984
101440.041
101440.082
101440.106
101440.154
101440.217
101440.282
101440.351
101440.429
101440.519
101440.626
101440.753
101440.903
101441.077
101441.283
101441.528
101441.823
101442.175
101442.593
101443.091
101443.681
101444.377
101445.19
101446.111
101447.122
101448.262
101449.449
101450.799
101452.159
101453.882
101456.911
101458.925
101460.265
101462.077
101464.161
101466.54
101468.7
101470.54
101472.308
101438.835
101438.83
101438.825
101438.821
101438.818
101438.816
101438.814
101438.813
101438.812
101438.813
101438.816
101438.819
101438.823
101438.828
101438.835
101438.843
101438.853
101438.864
101438.876
101438.889
101438.904
101438.919
101438.935
101438.954
101438.975
101438.997
101439.021
101439.045
101439.07
101439.096
101439.124
101439.155
101439.188
101439.22
101439.254
101439.288
101439.323
101439.354
101439.395
101439.453
101439.496
101439.523
101439.568
101439.626
101439.682
101439.74
101439.806
101439.881
101439.967
101440.067
101440.181
101440.314
101440.471
101440.66
101440.887
101441.16
101441.486
101441.873
101442.333
101442.875
101443.516
101444.268
101445.155
101446.182
101447.374
101448.673
101450.164
101451.715
101453.434
101455.67
101457.287
101458.519
101460.453
101462.42
101463.952
101465.799
101467.809
101470.637
101473.257
101475.295
101438.106
101438.101
101438.096
101438.093
101438.09
101438.088
101438.087
101438.087
101438.087
101438.089
101438.093
101438.098
101438.104
101438.112
101438.121
101438.132
101438.145
101438.158
101438.173
101438.19
101438.21
101438.233
101438.258
101438.284
101438.312
101438.341
101438.372
101438.405
101438.439
101438.475
101438.512
101438.55
101438.59
101438.631
101438.669
101438.715
101438.777
101438.825
101438.859
101438.909
101438.97
101439.028
101439.088
101439.155
101439.227
101439.307
101439.396
101439.496
101439.612
101439.748
101439.909
101440.099
101440.327
101440.598
101440.921
101441.302
101441.752
101442.28
101442.897
101443.613
101444.44
101445.381
101446.455
101447.687
101449.06
101450.556
101452.196
101454.185
101455.862
101457.377
101459.348
101461.093
101462.782
101464.394
101466.787
101469.345
101471.339
101473.431
101475.525
101477.334
101437.271
101437.267
101437.262
101437.258
101437.255
101437.254
101437.253
101437.255
101437.257
101437.26
101437.265
101437.272
101437.281
101437.291
101437.303
101437.317
101437.334
101437.353
101437.376
101437.4
101437.425
101437.453
101437.483
101437.515
101437.549
101437.585
101437.624
101437.664
101437.707
101437.752
101437.798
101437.842
101437.894
101437.961
101438.015
101438.058
101438.115
101438.182
101438.247
101438.314
101438.385
101438.461
101438.543
101438.632
101438.732
101438.844
101438.973
101439.122
101439.295
101439.5
101439.741
101440.027
101440.363
101440.759
101441.221
101441.758
101442.378
101443.089
101443.898
101444.817
101445.857
101446.946
101447.998
101449.26
101451.225
101453.606
101455.483
101456.831
101458.284
101460.037
101461.72
101463.684
101466.234
101468.618
101470.285
101471.46
101473.177
101475.581
101477.405
101478.957
101436.297
101436.292
101436.288
101436.284
101436.283
101436.282
101436.283
101436.286
101436.29
101436.296
101436.304
101436.314
101436.326
101436.341
101436.358
101436.377
101436.398
101436.422
101436.448
101436.477
101436.509
101436.543
101436.58
101436.619
101436.661
101436.706
101436.753
101436.803
101436.851
101436.907
101436.976
101437.035
101437.085
101437.148
101437.221
101437.292
101437.365
101437.442
101437.524
101437.611
101437.706
101437.809
101437.924
101438.052
101438.197
101438.364
101438.557
101438.782
101439.046
101439.356
101439.719
101440.142
101440.634
101441.2
101441.848
101442.579
101443.4
101444.301
101445.278
101446.299
101447.609
101449.44
101451.522
101453.66
101455.114
101455.875
101456.834
101458.729
101461.105
101463.266
101465.926
101467.854
101469.02
101469.931
101471.409
101473.751
101475.3
101476.84
101479.048
101481.213
101435.152
101435.149
101435.145
101435.143
101435.143
101435.145
101435.148
101435.153
101435.161
101435.171
101435.183
101435.197
101435.213
101435.232
101435.254
101435.278
101435.305
101435.335
101435.368
101435.403
101435.442
101435.484
101435.529
101435.576
101435.627
101435.677
101435.734
101435.803
101435.865
101435.92
101435.988
101436.063
101436.138
101436.216
101436.298
101436.385
101436.478
101436.577
101436.684
101436.801
101436.93
101437.074
101437.238
101437.424
101437.639
101437.888
101438.179
101438.517
101438.912
101439.369
101439.897
101440.505
101441.197
101441.981
101442.86
101443.828
101444.897
101446.031
101447.312
101449.214
101451.384
101452.662
101453.728
101455.267
101456.991
101458.721
101460.522
101462.136
101463.412
101464.873
101466.527
101468.16
101470.271
101472.593
101474.656
101476.515
101478.965
101481.425
101482.689
101484.089
101433.81
101433.808
101433.807
101433.808
101433.811
101433.816
101433.823
101433.832
101433.843
101433.857
101433.874
101433.893
101433.915
101433.94
101433.968
101433.999
101434.033
101434.07
101434.111
101434.155
101434.202
101434.251
101434.303
101434.36
101434.428
101434.492
101434.55
101434.62
101434.697
101434.775
101434.856
101434.941
101435.031
101435.127
101435.228
101435.338
101435.456
101435.585
101435.728
101435.888
101436.068
101436.273
101436.508
101436.78
101437.094
101437.46
101437.883
101438.373
101438.936
101439.58
101440.314
101441.144
101442.073
101443.114
101444.262
101445.511
101446.853
101448.404
101450.226
101451.66
101452.763
101453.967
101455.265
101456.863
101458.586
101460.09
101461.854
101463.994
101465.999
101467.468
101469.06
101471.305
101473.626
101475.734
101477.486
101479.44
101481.242
101482.817
101485.22
101487.882
101432.234
101432.236
101432.239
101432.244
101432.251
101432.26
101432.272
101432.286
101432.304
101432.324
101432.347
101432.373
101432.402
101432.435
101432.471
101432.51
101432.553
101432.599
101432.648
101432.701
101432.763
101432.829
101432.888
101432.951
101433.023
101433.101
101433.181
101433.264
101433.351
101433.443
101433.541
101433.644
101433.755
101433.873
101434.001
101434.142
101434.297
101434.469
101434.664
101434.884
101435.137
101435.426
101435.76
101436.145
101436.589
101437.099
101437.681
101438.343
101439.09
101439.928
101440.862
101441.894
101443.016
101444.252
101445.58
101446.949
101448.485
101449.967
101451.124
101452.429
101454.244
101456.138
101457.752
101459.164
101460.749
101462.516
101464.287
101465.846
101467.47
101469.634
101471.803
101473.715
101475.506
101477.262
101479.114
101481.236
101483.579
101485.896
101487.858
101489.252
101430.393
101430.399
101430.407
101430.417
101430.431
101430.446
101430.465
101430.486
101430.511
101430.539
101430.571
101430.606
101430.644
101430.686
101430.732
101430.781
101430.835
101430.896
101430.957
101431.019
101431.088
101431.163
101431.242
101431.323
101431.408
101431.498
101431.593
101431.692
101431.797
101431.909
101432.029
101432.157
101432.295
101432.447
101432.614
101432.8
101433.009
101433.245
101433.513
101433.82
101434.172
101434.574
101435.035
101435.56
101436.157
101436.828
101437.58
101438.414
101439.333
101440.335
101441.419
101442.582
101443.812
101445.105
101446.47
101447.858
101449.274
101450.842
101452.577
101454.187
101455.912
101457.858
101459.544
101461.158
101462.674
101464.332
101466.092
101467.816
101469.924
101471.953
101473.455
101474.973
101476.933
101479.306
101481.409
101483.797
101486.264
101487.873
101489.291
101490.936
101428.248
101428.26
101428.275
101428.293
101428.314
101428.338
101428.365
101428.396
101428.43
101428.468
101428.51
101428.556
101428.605
101428.659
101428.72
101428.782
101428.846
101428.917
101428.993
101429.073
101429.157
101429.245
101429.338
101429.435
101429.538
101429.646
101429.761
101429.883
101430.013
101430.152
101430.303
101430.468
101430.65
101430.852
101431.078
101431.333
101431.622
101431.95
101432.324
101432.751
101433.236
101433.787
101434.409
101435.108
101435.887
101436.748
101437.692
101438.72
101439.824
101441
101442.237
101443.533
101444.882
101446.242
101447.61
101448.963
101450.733
101452.942
101454.954
101456.687
101458.153
101459.315
101460.625
101462.234
101464.022
101465.814
101467.68
101469.317
101470.908
101472.786
101475.157
101477.303
101479.749
101482.058
101483.761
101485.396
101487.288
101489.539
101491.387
101493.113
101425.755
101425.775
101425.8
101425.827
101425.857
101425.891
101425.929
101425.971
101426.017
101426.067
101426.122
101426.182
101426.245
101426.311
101426.384
101426.461
101426.543
101426.629
101426.72
101426.816
101426.917
101427.023
101427.135
101427.254
101427.379
101427.512
101427.654
101427.807
101427.973
101428.153
101428.352
101428.573
101428.819
101429.096
101429.408
101429.761
101430.162
101430.615
101431.128
101431.705
101432.354
101433.078
101433.882
101434.77
101435.743
101436.8
101437.945
101439.196
101440.517
101441.899
101443.324
101444.784
101446.244
101447.694
101449.623
101452.248
101454.06
101455.087
101456.184
101457.357
101458.74
101460.656
101462.816
101464.543
101465.886
101467.33
101469.062
101471.14
101473.735
101475.805
101477.475
101479.667
101481.861
101483.516
101485.523
101487.761
101489.48
101490.982
101493.128
101494.875
101422.873
101422.903
101422.939
101422.978
101423.02
101423.066
101423.116
101423.172
101423.231
101423.295
101423.363
101423.437
101423.515
101423.599
101423.687
101423.78
101423.879
101423.982
101424.092
101424.207
101424.329
101424.457
101424.593
101424.739
101424.894
101425.061
101425.243
101425.441
101425.659
101425.901
101426.171
101426.473
101426.813
101427.196
101427.628
101428.115
101428.662
101429.274
101429.955
101430.709
101431.535
101432.433
101433.4
101434.427
101435.504
101436.59
101437.659
101439.01
101440.779
101442.672
101444.673
101446.614
101448.528
101450.573
101451.915
101452.542
101453.704
101455.686
101457.573
101459.576
101461.366
101462.767
101464.405
101466.225
101468.269
101470.281
101471.844
101473.51
101475.227
101477.251
101479.718
101481.51
101483.061
101485.233
101487.626
101490.009
101492.122
101494.201
101495.699
101497.193
101419.567
101419.608
101419.657
101419.71
101419.765
101419.825
101419.89
101419.959
101420.034
101420.113
101420.197
101420.286
101420.381
101420.481
101420.586
101420.698
101420.815
101420.938
101421.069
101421.207
101421.354
101421.51
101421.678
101421.86
101422.056
101422.272
101422.509
101422.773
101423.066
101423.395
101423.765
101424.182
101424.651
101425.18
101425.773
101426.438
101427.179
101428
101428.905
101429.897
101430.978
101432.15
101433.413
101434.771
101436.239
101437.807
101439.485
101441.359
101443.046
101444.432
101445.846
101447.19
101448.428
101449.55
101451.11
101453.202
101455.136
101457.08
101458.938
101460.677
101462.787
101465.046
101466.765
101468.273
101470.13
101472.227
101474.405
101476.44
101478.213
101480.199
101482.179
101484.107
101486.288
101488.407
101490.126
101491.757
101493.882
101495.823
101497.698
101499.433
101415.821
101415.876
101415.941
101416.008
101416.078
101416.154
101416.234
101416.318
101416.408
101416.503
101416.604
101416.709
101416.821
101416.938
101417.062
101417.192
101417.33
101417.476
101417.631
101417.797
101417.975
101418.167
101418.376
101418.606
101418.858
101419.139
101419.451
101419.801
101420.195
101420.638
101421.136
101421.696
101422.324
101423.026
101423.807
101424.672
101425.623
101426.663
101427.791
101429.006
101430.301
101431.67
101433.1
101434.584
101436.095
101437.678
101439.276
101440.646
101442.295
101444.144
101445.703
101447.422
101449.184
101451.038
101452.91
101454.766
101456.682
101458.635
101460.855
101463.03
101464.612
101466.063
101467.779
101469.841
101472.216
101474.625
101476.844
101478.579
101480.349
101482.64
101484.983
101487.067
101488.657
101490.179
101492.379
101494.907
101496.338
101498.066
101500.416
101502.035
101411.658
101411.728
101411.81
101411.893
101411.979
101412.07
101412.166
101412.267
101412.374
101412.485
101412.602
101412.725
101412.855
101412.991
101413.135
101413.288
101413.45
101413.623
101413.81
101414.011
101414.229
101414.469
101414.732
101415.024
101415.349
101415.712
101416.119
101416.575
101417.087
101417.659
101418.298
101419.01
101419.798
101420.666
101421.619
101422.659
101423.787
101425.005
101426.317
101427.735
101429.242
101430.812
101432.428
101434.091
101435.748
101437.354
101439.026
101440.904
101442.898
101444.739
101446.55
101448.365
101450.208
101452.056
101453.899
101455.748
101457.599
101459.435
101461.187
101463.254
101465.83
101468.276
101470.321
101471.976
101473.61
101475.578
101477.705
101480.203
101483.095
101484.921
101486.519
101488.765
101491.213
101493.316
101495.108
101496.95
101499.157
101501.357
101503.449
101505.627
101407.14
101407.226
101407.325
101407.425
101407.528
101407.636
101407.749
101407.867
101407.99
101408.119
101408.255
101408.398
101408.549
101408.71
101408.88
101409.063
101409.259
101409.472
101409.704
101409.959
101410.24
101410.552
101410.899
101411.287
101411.722
101412.208
101412.753
101413.362
101414.04
101414.791
101415.619
101416.525
101417.51
101418.572
101419.706
101420.904
101422.15
101423.415
101424.691
101426.209
101428.187
101430.404
101432.634
101434.732
101436.81
101439.003
101441.404
101443.299
101444.405
101445.797
101447.707
101449.601
101451.493
101453.39
101455.31
101457.405
101459.527
101461.694
101464.056
101465.804
101467.123
101468.736
101471.009
101473.997
101476.465
101478.778
101480.967
101482.752
101484.317
101486.199
101488.374
101490.447
101493.03
101495.913
101498.483
101500.691
101502.47
101504.364
101506.682
101507.999
101402.388
101402.49
101402.608
101402.725
101402.845
101402.971
101403.101
101403.238
101403.382
101403.533
101403.692
101403.862
101404.042
101404.237
101404.446
101404.674
101404.924
101405.198
101405.502
101405.84
101406.217
101406.64
101407.114
101407.647
101408.244
101408.912
101409.658
101410.488
101411.408
101412.421
101413.532
101414.743
101416.058
101417.48
101419.011
101420.652
101422.401
101424.377
101426.779
101429.359
101431.437
101433.261
101435.138
101436.784
101438.266
101439.73
101441.151
101442.456
101444.135
101446.466
101448.784
101451.012
101453.222
101455.483
101457.809
101459.995
101461.997
101463.748
101465.529
101468.077
101470.903
101472.726
101473.925
101475.326
101477.563
101480.136
101482.509
101484.783
101487.095
101489.699
101492.323
101495.131
101497.433
101499.225
101501.092
101503.011
101505.072
101507.17
101508.803
101510.614
101427.397
101427.402
101427.406
101427.408
101427.408
101427.407
101427.403
101427.398
101427.391
101427.382
101427.37
101427.357
101427.341
101427.323
101427.303
101427.28
101427.255
101427.227
101427.196
101427.162
101427.126
101427.086
101427.042
101426.996
101426.945
101426.891
101426.833
101426.77
101426.704
101426.632
101426.556
101426.475
101426.388
101426.296
101426.198
101426.094
101425.983
101425.866
101425.741
101425.61
101425.47
101425.322
101425.167
101425.002
101424.827
101424.641
101424.445
101424.239
101424.021
101423.79
101423.545
101423.284
101423.007
101422.71
101422.393
101422.053
101421.688
101421.293
101420.865
101420.398
101419.885
101419.319
101418.689
101417.987
101417.203
101416.333
101415.367
101414.295
101413.106
101411.75
101410.193
101408.59
101406.845
101405.065
101403.083
101400.66
101397.713
101393.765
101389.907
101387.341
101427.253
101427.259
101427.263
101427.266
101427.267
101427.266
101427.263
101427.258
101427.251
101427.242
101427.231
101427.218
101427.203
101427.185
101427.165
101427.142
101427.117
101427.089
101427.058
101427.025
101426.988
101426.947
101426.904
101426.857
101426.806
101426.751
101426.693
101426.63
101426.562
101426.49
101426.413
101426.331
101426.243
101426.149
101426.05
101425.945
101425.833
101425.714
101425.588
101425.454
101425.312
101425.163
101425.004
101424.837
101424.66
101424.473
101424.276
101424.067
101423.847
101423.614
101423.367
101423.104
101422.824
101422.526
101422.206
101421.863
101421.494
101421.093
101420.657
101420.178
101419.651
101419.067
101418.418
101417.693
101416.883
101415.978
101414.968
101413.832
101412.664
101411.448
101409.998
101408.05
101406.07
101404.267
101401.847
101399.494
101397.193
101394.525
101390.898
101385.831
101427.36
101427.365
101427.371
101427.374
101427.376
101427.375
101427.373
101427.369
101427.364
101427.356
101427.346
101427.334
101427.32
101427.303
101427.284
101427.263
101427.239
101427.212
101427.183
101427.151
101427.116
101427.077
101427.035
101426.99
101426.942
101426.889
101426.832
101426.772
101426.707
101426.637
101426.562
101426.483
101426.398
101426.308
101426.212
101426.109
101426.001
101425.885
101425.763
101425.634
101425.496
101425.351
101425.197
101425.035
101424.864
101424.682
101424.491
101424.29
101424.073
101423.844
101423.605
101423.35
101423.079
101422.791
101422.483
101422.154
101421.802
101421.424
101421.015
101420.569
101420.078
101419.534
101418.923
101418.227
101417.424
101416.503
101415.456
101414.295
101413.005
101411.509
101409.961
101408.55
101406.795
101404.024
101401.729
101399.544
101396.466
101393.431
101390.842
101388.048
101427.703
101427.709
101427.715
101427.719
101427.722
101427.723
101427.722
101427.719
101427.715
101427.708
101427.7
101427.69
101427.677
101427.663
101427.646
101427.627
101427.606
101427.582
101427.555
101427.526
101427.494
101427.459
101427.421
101427.38
101427.335
101427.287
101427.235
101427.18
101427.12
101427.055
101426.987
101426.913
101426.835
101426.752
101426.663
101426.568
101426.467
101426.361
101426.247
101426.128
101426.001
101425.866
101425.724
101425.574
101425.416
101425.249
101425.073
101424.887
101424.69
101424.481
101424.258
101424.022
101423.771
101423.502
101423.212
101422.898
101422.557
101422.184
101421.77
101421.311
101420.797
101420.221
101419.612
101418.984
101418.273
101417.425
101416.522
101415.601
101414.47
101412.991
101411.169
101408.91
101406.828
101405.03
101402.563
101399.546
101397.076
101394.152
101389.481
101385.05
101428.273
101428.279
101428.286
101428.291
101428.294
101428.296
101428.296
101428.295
101428.293
101428.288
101428.282
101428.274
101428.264
101428.253
101428.239
101428.223
101428.205
101428.185
101428.163
101428.138
101428.111
101428.081
101428.048
101428.013
101427.974
101427.932
101427.887
101427.839
101427.787
101427.731
101427.671
101427.607
101427.538
101427.465
101427.387
101427.304
101427.216
101427.123
101427.023
101426.918
101426.807
101426.689
101426.564
101426.432
101426.292
101426.144
101425.988
101425.824
101425.65
101425.465
101425.267
101425.057
101424.832
101424.591
101424.334
101424.064
101423.782
101423.487
101423.172
101422.819
101422.425
101421.979
101421.433
101420.756
101420.019
101419.236
101418.284
101417.093
101415.794
101414.442
101412.964
101411.233
101409.012
101406.17
101403.691
101401.258
101398.267
101395.425
101392.102
101387.221
101429.035
101429.042
101429.049
101429.055
101429.059
101429.063
101429.064
101429.065
101429.064
101429.062
101429.058
101429.053
101429.046
101429.038
101429.028
101429.016
101429.002
101428.987
101428.969
101428.95
101428.928
101428.904
101428.878
101428.85
101428.819
101428.785
101428.748
101428.709
101428.666
101428.62
101428.571
101428.519
101428.462
101428.403
101428.339
101428.271
101428.199
101428.122
101428.041
101427.955
101427.865
101427.769
101427.668
101427.563
101427.451
101427.334
101427.212
101427.083
101426.948
101426.806
101426.657
101426.498
101426.328
101426.145
101425.941
101425.715
101425.466
101425.187
101424.89
101424.575
101424.231
101423.846
101423.405
101422.884
101422.274
101421.576
101420.769
101419.812
101418.691
101417.42
101415.985
101414.346
101412.492
101410.326
101407.524
101404.114
101400.62
101397.055
101393.141
101389.185
101429.965
101429.973
101429.98
101429.986
101429.992
101429.996
101429.999
101430.002
101430.003
101430.003
101430.002
101429.999
101429.996
101429.991
101429.985
101429.977
101429.968
101429.957
101429.945
101429.932
101429.916
101429.899
101429.88
101429.859
101429.836
101429.811
101429.784
101429.755
101429.723
101429.688
101429.652
101429.612
101429.57
101429.524
101429.476
101429.425
101429.371
101429.313
101429.252
101429.187
101429.12
101429.048
101428.973
101428.894
101428.812
101428.725
101428.635
101428.541
101428.442
101428.339
101428.232
101428.119
101427.999
101427.872
101427.735
101427.584
101427.415
101427.226
101427.012
101426.772
101426.502
101426.193
101425.834
101425.412
101424.917
101424.336
101423.653
101422.851
101421.912
101420.818
101419.545
101418.055
101416.313
101414.289
101411.903
101409.06
101405.648
101401.556
101397.018
101392.649
101431.02
101431.027
101431.035
101431.042
101431.048
101431.053
101431.058
101431.061
101431.065
101431.067
101431.068
101431.069
101431.068
101431.067
101431.064
101431.061
101431.056
101431.051
101431.044
101431.036
101431.027
101431.017
101431.005
101430.992
101430.978
101430.962
101430.944
101430.925
101430.904
101430.881
101430.857
101430.831
101430.803
101430.773
101430.741
101430.707
101430.671
101430.633
101430.593
101430.551
101430.507
101430.461
101430.413
101430.364
101430.313
101430.26
101430.206
101430.15
101430.092
101430.033
101429.972
101429.909
101429.842
101429.77
101429.693
101429.608
101429.513
101429.407
101429.284
101429.143
101428.977
101428.779
101428.541
101428.252
101427.9
101427.472
101426.953
101426.324
101425.567
101424.66
101423.575
101422.276
101420.723
101418.866
101416.674
101414.12
101411.122
101407.711
101403.923
101400.068
101432.166
101432.173
101432.18
101432.187
101432.194
101432.2
101432.205
101432.21
101432.215
101432.219
101432.223
101432.226
101432.228
101432.23
101432.231
101432.231
101432.231
101432.23
101432.228
101432.226
101432.223
101432.219
101432.214
101432.208
101432.202
101432.195
101432.186
101432.177
101432.167
101432.156
101432.144
101432.13
101432.116
101432.101
101432.086
101432.069
101432.051
101432.033
101432.014
101431.995
101431.976
101431.956
101431.937
101431.917
101431.898
101431.88
101431.863
101431.847
101431.832
101431.819
101431.807
101431.796
101431.787
101431.778
101431.768
101431.756
101431.741
101431.72
101431.691
101431.651
101431.596
101431.518
101431.411
101431.266
101431.072
101430.815
101430.483
101430.056
101429.517
101428.843
101428.005
101426.971
101425.699
101424.145
101422.269
101420.03
101417.355
101414.293
101410.634
101406.78
101433.361
101433.367
101433.374
101433.381
101433.387
101433.394
101433.4
101433.406
101433.412
101433.417
101433.422
101433.427
101433.432
101433.436
101433.44
101433.444
101433.447
101433.45
101433.453
101433.456
101433.458
101433.46
101433.461
101433.462
101433.463
101433.464
101433.464
101433.464
101433.464
101433.463
101433.462
101433.461
101433.46
101433.459
101433.459
101433.458
101433.458
101433.459
101433.46
101433.462
101433.466
101433.472
101433.479
101433.489
101433.501
101433.517
101433.536
101433.56
101433.587
101433.62
101433.658
101433.701
101433.749
101433.804
101433.863
101433.926
101433.992
101434.06
101434.128
101434.193
101434.252
101434.3
101434.33
101434.335
101434.305
101434.23
101434.095
101433.886
101433.583
101433.165
101432.606
101431.875
101430.933
101429.75
101428.282
101426.47
101424.237
101421.575
101418.267
101414.846
101434.572
101434.577
101434.583
101434.589
101434.595
101434.601
101434.607
101434.613
101434.619
101434.625
101434.631
101434.638
101434.644
101434.65
101434.656
101434.662
101434.669
101434.675
101434.681
101434.688
101434.694
101434.701
101434.708
101434.714
101434.721
101434.728
101434.736
101434.743
101434.751
101434.76
101434.769
101434.779
101434.79
101434.801
101434.814
101434.828
101434.844
101434.862
101434.881
101434.904
101434.929
101434.958
101434.99
101435.027
101435.069
101435.117
101435.171
101435.231
101435.299
101435.375
101435.46
101435.554
101435.659
101435.773
101435.898
101436.033
101436.178
101436.332
101436.493
101436.66
101436.83
101437
101437.165
101437.318
101437.45
101437.554
101437.615
101437.621
101437.555
101437.397
101437.123
101436.703
101436.112
101435.326
101434.3
101432.988
101431.311
101429.204
101426.595
101423.202
101435.764
101435.767
101435.772
101435.776
101435.781
101435.786
101435.791
101435.797
101435.803
101435.809
101435.815
101435.822
101435.829
101435.836
101435.843
101435.851
101435.859
101435.868
101435.877
101435.886
101435.895
101435.905
101435.916
101435.927
101435.939
101435.952
101435.965
101435.979
101435.995
101436.012
101436.029
101436.048
101436.068
101436.091
101436.115
101436.142
101436.171
101436.204
101436.24
101436.28
101436.324
101436.372
101436.427
101436.487
101436.555
101436.63
101436.714
101436.808
101436.912
101437.028
101437.156
101437.297
101437.451
101437.621
101437.806
101438.006
101438.222
101438.454
101438.7
101438.961
101439.233
101439.515
101439.802
101440.089
101440.37
101440.637
101440.88
101441.085
101441.239
101441.323
101441.318
101441.196
101440.937
101440.525
101439.927
101439.105
101437.978
101436.535
101434.575
101432.056
101436.902
101436.903
101436.905
101436.907
101436.91
101436.913
101436.917
101436.921
101436.926
101436.931
101436.937
101436.943
101436.95
101436.957
101436.965
101436.973
101436.982
101436.992
101437.002
101437.014
101437.026
101437.039
101437.053
101437.067
101437.084
101437.101
101437.119
101437.138
101437.159
101437.181
101437.206
101437.233
101437.262
101437.293
101437.327
101437.364
101437.404
101437.448
101437.496
101437.548
101437.606
101437.669
101437.743
101437.826
101437.917
101438.018
101438.129
101438.251
101438.385
101438.532
101438.695
101438.874
101439.07
101439.285
101439.519
101439.774
101440.05
101440.347
101440.665
101441.003
101441.359
101441.734
101442.123
101442.523
101442.928
101443.332
101443.725
101444.097
101444.435
101444.725
101444.949
101445.087
101445.113
101445.016
101444.789
101444.403
101443.834
101443.015
101441.965
101440.35
101437.963
101437.962
101437.96
101437.96
101437.96
101437.961
101437.963
101437.965
101437.968
101437.972
101437.976
101437.981
101437.987
101437.994
101438.001
101438.009
101438.019
101438.029
101438.04
101438.052
101438.065
101438.08
101438.095
101438.112
101438.129
101438.149
101438.17
101438.193
101438.219
101438.245
101438.275
101438.306
101438.341
101438.378
101438.42
101438.465
101438.515
101438.57
101438.632
101438.701
101438.777
101438.858
101438.943
101439.034
101439.135
101439.247
101439.369
101439.502
101439.648
101439.821
101440.019