/*--------------------------------*- C++ -*----------------------------------*\
  =========                 |
  \\      /  F ield         | OpenFOAM: The Open Source CFD Toolbox
   \\    /   O peration     | Website:  https://openfoam.org
    \\  /    A nd           | Version:  8
     \\/     M anipulation  |
\*---------------------------------------------------------------------------*/
FoamFile
{
    version     2.0;
    format      ascii;
    class       volScalarField;
    location    "0.043";
    object      T;
}
// * * * * * * * * * * * * * * * * * * * * * * * * * * * * * * * * * * * * * //

dimensions      [0 0 0 1 0 0 0];

internalField   nonuniform List<scalar> 
42400
(
472.184949
470.536908
468.845747
467.11062
465.33074
463.505403
461.634005
459.716068
457.751265
455.739449
453.680686
451.575288
449.423847
447.22728
444.986859
442.70426
440.381598
438.021467
435.626983
433.201814
430.750216
428.277055
425.78783
423.288686
420.786408
418.288418
415.802749
413.338005
410.903311
408.508244
406.162747
403.877031
401.661461
399.526438
397.482267
395.539015
393.706382
391.993574
390.409206
388.961188
387.656603
386.501575
385.501169
384.659279
383.97852
383.460134
383.103875
382.90786
382.869404
382.980957
383.235122
383.621302
384.125152
384.728507
385.409955
386.141014
386.884042
387.612145
388.321972
388.793799
388.925163
388.728844
387.983941
387.017211
385.743995
384.096348
381.930283
379.19023
375.891511
371.941898
367.13989
362.128717
356.993895
350.347184
343.426405
337.868142
331.813339
325.411816
318.010528
313.464724
472.22187
470.648471
469.033903
467.377361
465.678108
463.935492
462.148965
460.318116
458.442686
456.522609
454.558037
452.549378
450.497332
448.40293
446.267573
444.093074
441.881698
439.636203
437.35988
435.056583
432.730769
430.387519
428.032559
425.672272
423.313698
420.964525
418.633062
416.328202
414.059367
411.836439
409.669668
407.569569
405.546805
403.612052
401.775873
400.04858
398.440059
396.959594
395.615672
394.415776
393.366167
392.471656
391.735438
391.158878
390.741242
390.479566
390.368306
390.399372
390.561534
390.838721
391.21169
391.65668
392.139735
392.628784
393.096195
393.509233
393.643685
393.485887
392.871615
391.995486
390.8538
389.373983
387.452865
384.987447
381.946008
378.311661
374.100133
369.325758
364.093821
358.47621
352.201741
345.667196
339.659271
333.379279
326.647336
320.511162
315.510183
310.706029
306.536455
302.5309
472.268722
470.790058
469.272722
467.715983
466.119181
464.481749
462.803232
461.083317
459.321858
457.518904
455.674735
453.789897
451.865235
449.901938
447.901571
445.866122
443.798035
441.700256
439.576266
437.430116
435.266455
433.090557
430.908333
428.726344
426.551791
424.392504
422.256906
420.15397
418.093153
416.084323
414.137657
412.263543
410.472427
408.774656
407.180293
405.698918
404.339358
403.109444
402.015713
401.063158
400.254916
399.59199
399.072903
398.69337
398.446435
398.321207
398.302474
398.367948
398.497509
398.660356
398.830979
398.994175
398.972453
398.752924
398.204157
397.308679
396.203093
394.818415
393.080772
390.873376
388.135816
384.835088
380.955794
376.511066
371.541302
366.094065
360.259168
354.114049
347.778062
341.447047
335.082535
328.67143
322.758998
317.571107
312.686785
308.358254
304.660727
301.827283
300.306083
300.081508
472.322199
470.951673
469.545345
468.10258
466.622821
465.105615
463.550631
461.957686
460.326776
458.658105
456.952115
455.209524
453.431358
451.618994
449.774192
447.899136
445.996469
444.06933
442.121387
440.156863
438.180562
436.197882
434.214825
432.237994
430.274576
428.332318
426.41948
424.544775
422.71728
420.94633
419.241392
417.611902
416.067064
414.615628
413.265632
412.024119
410.896839
409.887926
408.999548
408.231513
407.580882
407.041985
406.60516
406.256301
405.979043
405.753739
405.560401
405.355996
405.042957
404.572687
403.889011
402.926321
401.791359
400.425214
398.764031
396.723423
394.224235
391.229645
387.712685
383.66227
379.084232
374.001517
368.460248
362.534307
356.324625
349.928716
343.464431
337.057962
330.820356
324.903113
319.469987
314.505973
310.116107
306.458811
303.511817
301.258282
300.147957
299.918439
299.867651
299.854338
472.378568
471.122037
469.83275
468.510186
467.153914
465.763614
464.3391
462.880343
461.387502
459.860951
458.301311
456.709483
455.08668
453.434466
451.754782
450.049984
448.322873
446.576723
444.815302
443.042893
441.264305
439.484871
437.710446
435.947375
434.202464
432.482921
430.796281
429.150298
427.552828
426.011662
424.534342
423.127933
421.798774
420.552197
419.392204
418.321122
417.339224
416.444329
415.631717
414.893496
414.218784
413.594689
413.006031
412.394347
411.723233
410.950456
410.028485
408.934737
407.695195
406.262725
404.586231
402.601018
400.232695
397.443809
394.203177
390.490132
386.297782
381.633553
376.520622
370.996569
365.11618
358.950695
352.584435
346.122975
339.68945
333.412845
327.399903
321.776983
316.656707
312.128632
308.291162
305.190288
302.832114
300.994056
300.155578
299.963575
299.910042
299.882937
299.870173
299.865958
472.433608
471.288392
470.113414
468.90828
467.672692
466.406471
465.109576
463.782133
462.424452
461.037062
459.620736
458.176519
456.705757
455.210127
453.691657
452.152756
450.596229
449.025297
447.443597
445.855193
444.264556
442.676548
441.096384
439.529577
437.981865
436.459113
434.96719
433.511818
432.098399
430.731797
429.416103
428.154361
426.948283
425.797919
424.701324
423.65442
422.65056
421.678276
420.718757
419.748887
418.741617
417.666433
416.489614
415.220063
413.825347
412.269464
410.510905
408.496565
406.172528
403.502942
400.455495
397.004299
393.132839
388.835247
384.117911
379.000692
373.517585
367.716175
361.657754
355.416989
349.078865
342.736875
336.489499
330.445871
324.720395
319.435872
314.687406
310.562649
307.125096
304.407519
302.40132
301.015383
300.184024
299.995631
299.927727
299.903344
299.88624
299.87012
299.85393
299.834093
472.482508
471.436197
470.362802
469.262045
468.133751
466.977859
465.794447
464.583748
463.346173
462.082335
460.793066
459.479443
458.142804
456.784767
455.407243
454.012447
452.602899
451.18142
449.75112
448.315371
446.877769
445.442082
444.012176
442.59192
441.185073
439.795144
438.425223
437.077792
435.754499
434.455915
433.181247
431.928053
430.691998
429.466467
428.241018
427.001497
425.731155
424.413727
423.034101
421.571883
420.003114
418.299579
416.42693
414.341984
412.01225
409.405439
406.491008
403.242019
399.637084
395.661797
391.310209
386.586155
381.504368
376.091294
370.38573
364.439032
358.314596
352.086455
345.837579
339.660134
333.6531
327.914907
322.54278
317.628364
313.256485
309.500155
306.411272
304.007615
302.254996
301.096988
300.382522
300.057631
299.979696
299.944351
299.915616
299.889819
299.859976
299.836316
299.817075
299.811927
472.520136
471.549937
470.554718
469.534291
468.488556
467.417517
466.321298
465.200154
464.054489
462.884866
461.692022
460.476878
459.240543
457.984322
456.709711
455.418386
454.112194
452.793115
451.463233
450.12468
448.779565
447.429895
446.077464
444.723734
443.369681
442.015629
440.661059
439.304407
437.942844
436.572075
435.186086
433.776898
432.33438
430.845973
429.297835
427.674525
425.957164
424.122483
422.144926
419.999129
417.658546
415.096163
412.28546
409.201567
405.822419
402.12999
398.111496
393.760582
389.078411
384.074634
378.768278
373.188459
367.3751
361.379275
355.263904
349.100453
342.969724
336.961272
331.167268
325.68474
320.611488
316.031495
312.015674
308.610091
305.838883
303.69903
302.150732
301.114707
300.491551
300.153138
300.018762
299.972062
299.924219
299.883684
299.851992
299.827077
299.81687
299.811283
299.810126
299.810331
472.541711
471.615149
470.664744
469.690333
468.691821
467.669189
466.622503
465.551915
464.457673
463.34012
462.199696
461.036931
459.852441
458.64691
457.421069
456.175669
454.911488
453.629262
452.329622
451.013027
449.679677
448.329406
446.961557
445.574826
444.167088
442.735173
441.274567
439.779002
438.241446
436.653406
435.00467
433.283215
431.475119
429.564592
427.534118
425.364623
423.035739
420.526217
417.814485
414.879336
411.700664
408.260208
404.54254
400.536019
396.233747
391.634504
386.743656
381.573995
376.146536
370.491204
364.64746
358.664961
352.604477
346.536681
340.540312
334.700742
329.107642
323.854968
319.030826
314.712798
310.962344
307.821671
305.301635
303.377867
301.993138
301.062652
300.482562
300.15166
299.972344
299.895355
299.859522
299.831663
299.826284
299.824297
299.822373
299.820696
299.816109
299.811571
299.81021
299.810242
472.543798
471.621437
470.675288
469.705127
468.710769
467.692072
466.648932
465.581283
464.48909
463.372343
462.231041
461.065179
459.874725
458.659591
457.419609
456.154496
454.863751
453.546619
452.202001
450.828349
449.423534
447.984682
446.507978
444.988193
443.419148
441.794686
440.107658
438.350179
436.512358
434.582738
432.548491
430.39549
428.108422
425.67099
423.066189
420.276669
417.285187
414.075159
410.631131
406.939555
402.989525
398.773559
394.288404
389.535863
384.523632
379.266123
373.785286
368.11142
362.283875
356.351574
350.373199
344.417776
338.562853
332.892411
327.494298
322.455744
317.857003
313.770661
310.250213
307.320763
304.981683
303.202593
301.921968
301.054383
300.503893
300.174401
299.986073
299.885064
299.853211
299.837184
299.827912
299.826303
299.825744
299.824237
299.822314
299.820388
299.818779
299.815993
299.812388
299.811427
472.526861
471.570234
470.588869
469.582449
468.55066
467.493184
466.40969
465.29982
464.163177
462.999314
461.807714
460.587763
459.338357
458.057594
456.743474
455.394185
454.007535
452.580889
451.111107
449.594484
448.026724
446.402907
444.717488
442.964627
441.137627
439.22784
437.225588
435.120201
432.900027
430.552495
428.064246
425.421305
422.609322
419.613878
416.420868
413.016841
409.389543
405.528508
401.425696
397.076181
392.478898
387.637445
382.560921
377.264792
371.771758
366.112566
360.326785
354.463399
348.581005
342.747364
337.038124
331.534693
326.321654
321.48189
317.090683
313.210575
309.882132
307.122266
304.92288
303.244908
302.021724
301.173204
300.615762
300.268392
300.062606
299.944198
299.886604
299.863597
299.847573
299.835215
299.826833
299.822304
299.820988
299.819824
299.818998
299.818602
299.81909
299.821467
299.822257
299.820709
472.490166
471.459303
470.401649
469.316718
468.203978
467.062831
465.892596
464.692299
463.460376
462.195476
460.895999
459.560054
458.185783
456.771586
455.315326
453.813944
452.263916
450.66121
449.001229
447.278739
445.487851
443.621968
441.673722
439.634949
437.496687
435.24917
432.881869
430.383565
427.742469
424.946374
421.982866
418.839584
415.504497
411.966246
408.214642
404.241177
400.039612
395.606636
390.942608
386.052357
380.946058
375.640128
370.158134
364.531617
358.800747
353.014741
347.231948
341.519416
335.951521
330.607144
325.565717
320.90375
316.689306
312.97607
309.79712
307.162052
305.052842
303.42683
302.223397
301.369685
300.786725
300.403061
300.159314
300.00988
299.922817
299.880593
299.85677
299.842636
299.832536
299.825631
299.820593
299.819512
299.818861
299.818756
299.819439
299.819307
299.819949
299.822198
299.82524
299.828264
472.435181
471.293081
470.121104
468.918525
467.684506
466.418073
465.11764
463.781876
462.409641
460.999126
459.548237
458.054559
456.515325
454.92737
453.28709
451.590388
449.832628
448.008605
446.112507
444.13787
442.077566
439.923794
437.668076
435.301281
432.813666
430.194944
427.434389
424.52097
421.443541
418.19106
414.7528
411.118757
407.280066
403.229492
398.962003
394.475426
389.771188
384.855133
379.738406
374.438356
368.979432
363.393976
357.72281
352.01549
346.33003
340.732022
335.293056
330.088525
325.193997
320.679761
316.60563
313.016884
309.939082
307.375588
305.306319
303.690211
302.47015
301.57949
300.951278
300.524025
300.242532
300.062137
299.950013
299.883981
299.848198
299.82822
299.82394
299.821958
299.819433
299.818869
299.819344
299.819115
299.819186
299.820072
299.821526
299.823756
299.824851
299.824709
299.82564
299.828362
472.366447
471.085318
469.770527
468.421117
467.035961
465.613626
464.152769
462.651636
461.108192
459.520082
457.884595
456.198626
454.458637
452.660619
450.800058
448.871905
446.870536
444.789737
442.622688
440.361956
437.999506
435.526719
432.934442
430.213047
427.352537
424.34267
421.173139
417.833729
414.314609
410.606686
406.702011
402.594258
398.279297
393.755843
389.0262
384.097067
378.980413
373.694352
368.263992
362.722147
357.109832
351.476376
345.879025
340.381837
335.053727
329.965551
325.186511
320.780783
316.802672
313.291587
310.267171
307.729856
305.659595
304.019023
302.757077
301.814888
301.130919
300.649614
300.322142
300.108249
299.975883
299.899418
299.857176
299.835806
299.828465
299.826981
299.824327
299.820877
299.818913
299.818582
299.819333
299.81984
299.821007
299.82229
299.824668
299.826568
299.83038
299.830517
299.827671
299.82722
472.287228
470.845876
469.366546
467.848055
466.288995
464.687747
463.042547
461.351227
459.611276
457.819803
455.973499
454.068601
452.100856
450.065491
447.957186
445.770053
443.497627
441.132861
438.668134
436.095279
433.40563
430.59008
427.639189
424.543304
421.292717
417.877839
414.289509
410.519317
406.56001
402.405965
398.053754
393.50278
388.756003
383.820731
378.709442
373.440624
368.039542
362.538877
356.979109
351.408529
345.882718
340.463373
335.216353
330.208912
325.506133
321.16653
317.237775
313.754622
310.734069
308.176763
306.065004
304.367175
303.039627
302.031349
301.288513
300.760127
300.397574
300.15661
300.002777
299.907693
299.857033
299.837297
299.830863
299.828722
299.826419
299.82479
299.823776
299.822811
299.821488
299.820179
299.819768
299.82055
299.822714
299.824323
299.824988
299.826209
299.830074
299.833673
299.832254
299.827184
472.199476
470.580647
468.919081
467.213374
465.461878
463.662736
461.813748
459.912332
457.955502
455.939838
453.861446
451.715928
449.498353
447.203236
444.824529
442.355613
439.789311
437.117915
434.33323
431.426639
428.389204
425.211791
421.885199
418.400388
414.748752
410.92244
406.914756
402.720617
398.337105
393.764083
389.004886
384.067077
378.96322
373.711652
368.33718
362.871632
357.354163
351.831192
346.355853
340.986823
335.786427
330.818023
326.142773
321.816035
317.883735
314.378628
311.317732
308.700739
306.515177
304.735741
303.325773
302.240331
301.431804
300.851631
300.451821
300.187567
300.022617
299.925885
299.871946
299.847978
299.839148
299.831848
299.826607
299.824509
299.82161
299.81932
299.819404
299.820253
299.821642
299.823615
299.824348
299.824691
299.824664
299.824706
299.825027
299.826144
299.828547
299.832151
299.835218
299.835409
472.10444
470.293408
468.434517
466.526171
464.566479
462.553216
460.483786
458.355179
456.163934
453.906102
451.577221
449.172285
446.685734
444.111449
441.442758
438.672464
435.792883
432.795918
429.673146
426.415946
423.015625
419.463653
415.75192
411.873052
407.820791
403.590445
399.17941
394.587761
389.81891
384.88031
379.784185
374.548233
369.196262
363.758675
358.27271
352.782344
347.337753
341.994231
336.810526
331.846509
327.16023
322.804637
318.824384
315.253029
312.111102
309.404667
307.125525
305.250708
303.746181
302.573293
301.687006
301.039625
300.584831
300.279618
300.085417
299.96814
299.901184
299.865473
299.848798
299.842071
299.838653
299.8336
299.828649
299.824826
299.821734
299.819663
299.818902
299.819817
299.821611
299.824328
299.827517
299.82955
299.83015
299.829813
299.828265
299.826852
299.826537
299.829087
299.831495
299.838443
472.003097
469.987104
467.917781
465.793295
463.611472
461.369759
459.06518
456.6943
454.253188
451.737393
449.141923
446.461237
443.689245
440.819334
437.844406
434.756936
431.549069
428.212722
424.739734
421.122077
417.352103
413.422847
409.328392
405.064296
400.628087
396.019826
391.242728
386.303823
381.214637
375.991856
370.65791
365.241417
359.777402
354.307195
348.877931
343.54156
338.353342
333.369833
328.646504
324.234856
320.179498
316.515165
313.264904
310.438839
308.033802
306.033793
304.411215
303.128941
302.141478
301.401597
300.865097
300.488893
300.233918
300.067213
299.962764
299.900344
299.865413
299.845523
299.836804
299.833376
299.831775
299.831011
299.829503
299.828371
299.82761
299.826723
299.824522
299.823083
299.824301
299.826403
299.828412
299.830282
299.831657
299.832784
299.833745
299.83362
299.826803
299.823043
299.822583
299.829507
471.896285
469.664272
467.373163
465.020887
462.604988
460.122587
457.570342
454.944416
452.240455
449.45357
446.578336
443.608802
440.538528
437.360638
434.067897
430.652817
427.107793
423.425301
419.598131
415.61967
411.484247
407.187533
402.727011
398.102503
393.316752
388.376049
383.290873
378.076517
372.753648
367.348738
361.894291
356.42879
350.996267
345.64544
340.428379
335.398699
330.609355
326.110202
321.945661
318.152359
314.756015
311.771148
309.200398
307.033999
305.249672
303.815434
302.691276
301.833012
301.195741
300.735089
300.411916
300.192453
300.048139
299.955833
299.898357
299.862664
299.844675
299.836955
299.831268
299.827246
299.825291
299.825545
299.825922
299.826191
299.826535
299.827086
299.827293
299.827397
299.827424
299.828599
299.830147
299.831172
299.83182
299.832102
299.83248
299.837096
299.836535
299.82624
299.817974
299.821199
471.785046
469.328064
466.805997
464.216544
461.556981
458.824129
456.014319
453.123375
450.146598
447.078771
443.914182
440.646665
437.269668
433.776343
430.159671
426.412637
422.528445
418.500777
414.324115
409.994108
405.508013
400.865183
396.067613
391.12053
386.032998
380.818515
375.49556
370.088035
364.625527
359.143335
353.682168
348.287458
343.008239
337.895597
333.000732
328.372743
324.056288
320.089336
316.500661
313.309088
310.525015
308.146966
306.160736
304.540049
303.250002
302.249811
301.495506
300.94298
300.550519
300.279992
300.099674
299.984424
299.91458
299.875168
299.855403
299.849645
299.846149
299.841367
299.836757
299.829984
299.823844
299.822207
299.820684
299.821526
299.82411
299.826371
299.827038
299.827318
299.82743
299.827994
299.829562
299.830976
299.830568
299.828331
299.827904
299.832196
299.837508
299.839272
299.837135
299.831316
472.593455
471.7714
470.927834
470.062292
469.174298
468.263365
467.328992
466.370664
465.387854
464.380014
463.346578
462.286958
461.200536
460.086665
458.944662
457.773804
456.57332
455.342386
454.080117
452.785558
451.457673
450.095334
448.69731
447.262247
445.788654
444.274872
442.719064
441.119187
439.472969
437.777876
436.031088
434.22947
432.369538
430.447461
428.458939
426.399247
424.263215
422.045228
419.739241
417.338818
414.837191
412.227359
409.502184
406.654578
403.677891
400.564035
397.291578
393.862234
390.28667
386.567208
382.7115
378.732814
374.651081
370.493684
366.295897
362.101122
357.966144
353.956242
350.142542
346.597567
343.389064
340.572653
338.184337
336.234234
334.703237
333.544449
332.690269
332.063455
331.588211
331.198246
330.841458
330.480305
330.082251
329.614123
329.055318
328.411378
327.724465
327.062208
326.49177
326.036981
472.589522
471.759549
470.907929
470.034242
469.138054
468.218923
467.276391
466.309989
465.319234
464.303622
463.262633
462.195719
461.102303
459.981777
458.83349
457.656746
456.450793
455.214819
453.947938
452.649181
451.317484
449.951673
448.550449
447.112371
445.635833
444.119045
442.560008
440.956486
439.305976
437.605681
435.852472
434.04286
432.172959
430.238457
428.234587
426.156105
423.997282
421.751905
419.413307
416.974446
414.428024
411.766711
408.983515
406.067836
403.00289
399.783153
396.416618
392.900747
389.236945
385.430577
381.491943
377.437183
373.289075
369.077583
364.839968
360.625535
356.494178
352.513337
348.754912
345.290276
342.183508
339.483687
337.217817
335.386178
333.961492
332.892016
332.108049
331.530839
331.083007
330.697112
330.321272
329.923897
329.494293
329.024518
328.505409
327.937362
327.3474
326.798935
326.373199
326.171969
472.582834
471.739372
470.873983
469.986287
469.075891
468.142396
467.185388
466.204441
465.199119
464.168966
463.113508
462.032249
460.924661
459.790184
458.628216
457.438107
456.21915
454.970568
453.691509
452.381026
451.038068
449.661459
448.249885
446.80187
445.315761
443.789701
442.221605
440.609125
438.949627
437.240148
435.47737
433.657585
431.776664
429.830027
427.812632
425.71896
423.543028
421.277964
418.91606
416.44887
413.866924
411.159198
408.316892
405.334472
402.212673
398.945562
395.530056
391.965752
388.255735
384.407377
380.433149
376.351387
372.186869
367.971069
363.742699
359.553899
355.464632
351.540866
347.851418
344.463227
341.435107
338.81066
336.612231
334.837924
333.458511
332.420408
331.652818
331.082291
330.637335
330.25478
329.884446
329.491418
329.059858
328.596193
328.112389
327.624257
327.161504
326.776023
326.52532
326.498112
472.573251
471.710448
470.82528
469.917406
468.986471
468.032115
467.053965
466.05164
465.02475
463.97289
462.89564
461.792561
460.663191
459.507036
458.323568
457.112214
455.87235
454.603291
453.304286
451.974501
450.612998
449.21858
447.789896
446.325408
444.823405
443.282068
441.699315
440.072772
438.399734
436.677129
434.901473
433.068834
431.174783
429.214353
427.182003
425.071577
422.87628
420.589109
418.202845
415.710083
413.103671
410.37747
407.523131
404.53345
401.402632
398.12635
394.702407
391.131427
387.417613
383.569543
379.600972
375.531384
371.38637
367.197781
363.005596
358.862642
354.82866
350.968199
347.347347
344.029314
341.069511
338.5101
336.371528
334.625066
333.237567
332.163318
331.368325
330.771549
330.30608
329.910554
329.539553
329.160972
328.754814
328.315924
327.877415
327.471431
327.122459
326.864615
326.781985
326.900865
472.560578
471.672179
470.760809
469.826155
468.867895
467.885698
466.879228
465.848139
464.792081
463.710694
462.603605
461.470428
460.310757
459.124161
457.910179
456.66831
455.397912
454.098247
452.768575
451.408068
450.015794
448.590828
447.132115
445.638455
444.108439
442.540332
440.932159
439.281674
437.586321
435.843194
434.048997
432.200005
430.292028
428.320377
426.279838
424.16467
421.968609
419.684912
417.306414
414.825628
412.234883
409.526501
406.692994
403.727447
400.623944
397.378037
393.987276
390.451752
386.774491
382.961386
379.033818
375.01728
370.937561
366.816664
362.691637
358.614497
354.643881
350.842433
347.273475
343.997031
341.064583
338.513463
336.361618
334.60817
333.224856
332.151257
331.259788
330.622432
330.085124
329.658486
329.281629
328.912655
328.539206
328.201007
327.813774
327.45626
327.180305
327.027068
327.038729
327.240402
472.544546
471.623756
470.679202
469.710591
468.717622
467.69999
466.657381
465.589481
464.49597
463.376525
462.230816
461.058503
459.859233
458.632609
457.37817
456.095468
454.784106
453.443671
452.07361
450.67329
449.241999
447.77893
446.283161
444.753635
443.189131
441.588236
439.949319
438.270493
436.549578
434.784069
432.971086
431.107336
429.189073
427.212061
425.171538
423.062204
420.878208
418.613168
416.260211
413.812053
411.261112
408.599676
405.820125
402.915213
399.878412
396.704285
393.388864
389.933823
386.354207
382.655554
378.84349
374.92991
370.945532
366.917587
362.877854
358.873645
354.960631
351.199165
347.651036
344.375279
341.422532
338.829947
336.616668
334.781062
333.299245
332.133312
331.250185
330.577577
330.029503
329.600477
329.180464
328.821998
328.523892
328.197686
327.827247
327.50705
327.268184
327.157623
327.195096
327.413521
472.524818
471.564158
470.578737
469.568275
468.532483
467.471071
466.383746
465.270216
464.13019
462.963381
461.769502
460.548264
459.299363
458.022537
456.717556
455.38413
454.021952
452.630692
451.209987
449.759435
448.278579
446.766893
445.223772
443.648505
442.040257
440.398041
438.72069
437.006819
435.25479
433.462671
431.628188
429.748681
427.821056
425.841738
423.806632
421.711089
419.549887
417.317228
415.006763
412.611643
410.124614
407.538153
404.844662
402.036726
399.10744
396.050855
392.86258
389.556114
386.125589
382.578227
378.919883
375.162102
371.324953
367.433724
363.518636
359.618191
355.783344
352.070063
348.536782
345.240724
342.23346
339.556208
337.235197
335.278498
333.675223
332.397902
331.404204
330.638767
330.047573
329.571885
329.169113
328.811213
328.488288
328.180177
327.860616
327.574651
327.357714
327.255924
327.27789
327.419861
472.501029
471.492287
470.457565
469.396586
468.309068
467.194729
466.053289
464.884476
463.688025
462.463691
461.211248
459.930494
458.62126
457.283378
455.916694
454.521068
453.096372
451.642482
450.159276
448.646628
447.104396
445.532413
443.930472
442.298312
440.635593
438.941874
437.216584
435.458987
433.668142
431.842858
429.981648
428.082675
426.143696
424.16201
422.134404
420.057106
417.925749
415.735356
413.480337
411.154527
408.751255
406.263467
403.683902
401.005337
398.220911
395.324532
392.311397
389.17653
385.930739
382.579156
379.125467
375.572556
371.93561
368.23514
364.496793
360.751197
357.038489
353.408647
349.914914
346.611264
343.549007
340.772799
338.316501
336.1995
334.42438
332.976512
331.82533
330.927934
330.23527
329.694315
329.256921
328.885607
328.555323
328.245768
327.955736
327.689812
327.476034
327.350736
327.332356
327.410928
472.472877
471.407224
470.314135
469.193324
468.044508
466.867408
465.661757
464.427306
463.163831
461.871131
460.549041
459.197425
457.81619
456.405281
454.964685
453.494431
451.994592
450.465284
448.906662
447.318918
445.702277
444.056985
442.383305
440.681497
438.951803
437.194424
435.409489
433.597025
431.756913
429.888846
427.992267
426.066321
424.109788
422.121018
420.097869
418.03764
415.937025
413.792066
411.598135
409.349941
407.041574
404.66659
402.218159
399.689282
397.07308
394.363185
391.554225
388.633813
385.60538
382.483186
379.273883
375.976352
372.592627
369.13788
365.632309
362.100845
358.572912
355.085402
351.685037
348.420611
345.340623
342.490307
339.908239
337.622936
335.649956
333.990116
332.629224
331.539671
330.683747
330.017364
329.495466
329.076801
328.727462
328.421797
328.144883
327.893705
327.677981
327.521558
327.458632
327.472772
472.440262
471.308671
470.147945
468.957787
467.737905
466.488021
465.207872
463.897224
462.555872
461.183655
459.780457
458.346216
456.880933
455.384672
453.857568
452.299834
450.711757
449.09371
447.446149
445.769614
444.064725
442.332186
440.572768
438.787307
436.976681
435.141795
433.283549
431.402811
429.500371
427.576895
425.632868
423.668528
421.683803
419.678227
417.650868
415.600254
413.524298
411.42024
409.284601
407.113164
404.900983
402.642438
400.331333
397.961059
395.524817
393.015908
390.428074
387.755844
384.986433
382.110666
379.159916
376.140732
373.052371
369.890697
366.670037
363.409121
360.131045
356.863018
353.635336
350.488938
347.467093
344.612178
341.963241
339.553336
337.406891
335.537548
333.946866
332.624234
331.548144
330.688577
330.010407
329.476977
329.053264
328.708841
328.420153
328.170473
327.95361
327.786263
327.682239
327.670656
472.403427
471.197364
469.960234
468.691718
467.391506
466.059307
464.694855
463.29792
461.868315
460.40591
458.910637
457.382505
455.821603
454.228117
452.602332
450.944641
449.255557
447.535714
445.785878
444.006948
442.199961
440.366088
438.506636
436.623037
434.716836
432.789674
430.84326
428.879342
426.899662
424.90591
422.899661
420.88231
418.854994
416.818511
414.773225
412.718983
410.655022
408.579892
406.491388
404.3865
402.261391
400.111409
397.93114
395.714504
393.454908
391.145454
388.779214
386.349606
383.850921
381.279962
378.615787
375.871864
373.0782
370.235838
367.345577
364.40597
361.434148
358.45092
355.48048
352.55
349.687893
346.931128
344.31577
341.874793
339.636079
337.620553
335.840695
334.299682
332.99139
331.901301
331.008215
330.286369
329.707239
329.243113
328.869583
328.558286
328.300411
328.101268
327.970512
327.914148
472.363058
471.07537
469.754486
468.400047
467.011717
465.58918
464.132155
462.640409
461.113764
459.55211
457.955421
456.323767
454.657324
452.956388
451.221389
449.452899
447.651647
445.81853
443.954619
442.061171
440.139635
438.191655
436.219069
434.223907
432.20838
430.174865
428.125877
426.064046
423.992064
421.912644
419.828451
417.742031
415.655737
413.571627
411.49138
409.416177
407.346609
405.282578
403.223207
401.166768
399.110635
397.051268
394.984236
392.904285
390.805463
388.681296
386.525034
384.329945
382.089655
379.798461
377.451348
375.040263
372.551059
370.001935
367.429291
364.832265
362.21252
359.56788
356.916527
354.279239
351.678985
349.140437
346.688151
344.347076
342.144638
340.10384
338.242221
336.570992
335.094559
333.810557
332.710426
331.780313
331.001497
330.352961
329.814727
329.356035
328.955618
328.62289
328.372109
328.212786
472.320401
470.946458
469.53705
468.09177
466.610238
465.092103
463.537059
461.944856
460.315313
458.648332
456.943919
455.202192
453.423401
451.607947
449.75639
447.869473
445.948131
443.993509
442.006975
439.990134
437.944831
435.873169
433.777501
431.660437
429.524829
427.373761
425.210525
423.038588
420.861547
418.683083
416.506892
414.336609
412.175724
410.027485
407.894794
405.780099
403.685277
401.611531
399.559289
397.528112
395.516626
393.522482
391.542343
389.571928
387.606099
385.639002
383.664263
381.675236
379.665312
377.628268
375.558615
373.451922
371.305342
369.112969
366.860345
364.560611
362.263064
359.968022
357.676468
355.384002
353.107926
350.866993
348.680699
346.568802
344.550704
342.644187
340.864381
339.222948
337.72761
336.382646
335.188647
334.141334
333.23155
332.445974
331.769923
331.186722
330.649855
330.14952
329.697291
329.43071
472.277315
470.816242
469.317392
467.780298
466.204521
464.589663
462.935379
461.241391
459.507503
457.733617
455.919755
454.066075
452.17289
450.240689
448.270154
446.262181
444.217899
442.13869
440.026201
437.882366
435.709412
433.509876
431.286603
429.042751
426.781783
424.507451
422.223776
419.93501
417.645598
415.360115
413.083199
410.819471
408.573438
406.349401
404.15133
401.982755
399.846647
397.745306
395.680255
393.65215
391.66071
389.704668
387.781762
385.888735
384.021407
382.174783
380.343222
378.520628
376.700697
374.877183