/*--------------------------------*- C++ -*----------------------------------*\
  =========                 |
  \\      /  F ield         | OpenFOAM: The Open Source CFD Toolbox
   \\    /   O peration     | Website:  https://openfoam.org
    \\  /    A nd           | Version:  8
     \\/     M anipulation  |
\*---------------------------------------------------------------------------*/
FoamFile
{
    version     2.0;
    format      ascii;
    class       volVectorField;
    location    "0.043";
    object      U;
}
// * * * * * * * * * * * * * * * * * * * * * * * * * * * * * * * * * * * * * //

dimensions      [0 1 -1 0 0 0 0];

internalField   nonuniform List<vector> 
42400
(
(-0.0166703661 0.0159421516 -8.78874756e-27)
(-0.0498857515 0.0467598568 2.84898584e-26)
(-0.0836115606 0.0769389373 2.85107944e-26)
(-0.117857297 0.106447606 0)
(-0.152573051 0.135254869 0)
(-0.18770396 0.163294662 -4.85445056e-28)
(-0.223191608 0.190484823 0)
(-0.258975696 0.216739769 5.35719513e-28)
(-0.2949968 0.241975996 0)
(-0.331197123 0.266114371 5.9228249e-28)
(-0.367519558 0.289081032 6.23192263e-28)
(-0.403906449 0.310807807 -6.5601703e-28)
(-0.44029865 0.331232534 -2.6306243e-27)
(-0.476635017 0.350299473 1.2451303e-27)
(-0.512852308 0.367959866 -7.67388298e-28)
(-0.548885402 0.38417264 0)
(-0.584667696 0.398905194 0)
(-0.62013152 0.412134163 0)
(-0.655208453 0.423846097 0)
(-0.689829445 0.434038013 0)
(-0.723924704 0.44271778 0)
(-0.757423312 0.449904352 -2.25312907e-27)
(-0.790252575 0.455627842 4.60102459e-26)
(-0.822337085 0.459929462 1.07524524e-25)
(-0.85359749 0.462861309 6.19748351e-26)
(-0.88394895 0.464486017 -2.84636564e-27)
(-0.913299219 0.464876265 -3.02405837e-27)
(-0.941546253 0.464114116 6.43214341e-27)
(-0.968575187 0.462290208 0)
(-0.994254768 0.459502716 0)
(-1.0184339 0.455855639 -1.13139491e-25)
(-1.04093762 0.45145472 -1.23867582e-25)
(-1.06155919 0.446398957 8.92905579e-27)
(-1.08003916 0.440783417 1.48474517e-25)
(-1.09612007 0.434704004 1.50342045e-25)
(-1.10952481 0.428315366 0)
(-1.11999899 0.421662551 0)
(-1.12681487 0.41541405 0)
(-1.12978431 0.40877521 0)
(-1.12794864 0.402063276 3.41078506e-25)
(-1.12153245 0.394488292 2.59561449e-25)
(-1.10810259 0.388468003 2.22876307e-25)
(-1.08731424 0.382452511 5.37835461e-25)
(-1.0574706 0.376146006 -4.29747805e-26)
(-1.0157456 0.37009722 -4.13895582e-25)
(-0.962112071 0.363053165 -6.12566017e-25)
(-0.894031141 0.355931243 5.51928625e-26)
(-0.809239389 0.348549684 6.37785012e-25)
(-0.705496075 0.340779072 6.24255117e-26)
(-0.580596783 0.332438311 8.82613552e-25)
(-0.431292099 0.323996415 3.75867635e-33)
(-0.258185559 0.315497783 -2.42743587e-24)
(-0.051336575 0.308174506 -1.56675431e-24)
(0.186461124 0.301803512 1.87235601e-25)
(0.47237805 0.293267278 0)
(0.808675941 0.282743583 0)
(1.19816877 0.271604944 0)
(1.64843827 0.260791542 -2.57948791e-25)
(2.16641827 0.250173175 -2.69788522e-25)
(2.75741776 0.239734286 0)
(3.42672227 0.229888826 8.09966298e-24)
(4.17877115 0.221219738 9.43103782e-24)
(5.0168314 0.214582496 -1.01441501e-23)
(5.94245793 0.211855907 -1.09840101e-23)
(6.95467485 0.214170029 0)
(8.05024214 0.223702539 0)
(9.22008582 0.23846975 -9.85342825e-24)
(10.4710151 0.252365713 -8.87384538e-24)
(11.6937642 0.361523847 -5.23306392e-26)
(12.9559539 0.427079554 0)
(14.7005322 -0.00662125547 0)
(15.9901573 0.0594464393 2.23882108e-25)
(16.4933196 1.40212998 4.17630778e-25)
(18.3168748 0.754373731 0)
(20.5294684 -1.27847266 -1.47505247e-26)
(21.4463261 -0.491350509 1.00220106e-23)
(21.1322364 1.8381366 6.10400406e-24)
(22.2522917 1.69547963 -3.21935133e-24)
(23.4615164 -0.0290772102 8.82153376e-24)
(23.6423413 -0.545555258 -4.46655642e-24)
(-0.0207589071 0.0183805523 0)
(-0.0616023885 0.053821464 2.2690291e-26)
(-0.102554717 0.0884981789 2.21914838e-26)
(-0.143670548 0.122430531 0)
(-0.184953496 0.155633952 0)
(-0.226381204 0.188080335 1.65747554e-26)
(-0.267911858 0.21971372 1.55364892e-26)
(-0.30948697 0.250462133 8.43563681e-28)
(-0.351036056 0.280244404 0)
(-0.392480049 0.308974693 9.31358764e-28)
(-0.433733205 0.336565864 9.78878164e-28)
(-0.474704427 0.362932209 -2.9991028e-27)
(-0.515298398 0.387991697 1.53702786e-27)
(-0.555416568 0.411667841 3.6997198e-27)
(-0.594958027 0.433891264 -8.61347098e-27)
(-0.633820219 0.454601001 -8.85295865e-27)
(-0.671899458 0.473745572 0)
(-0.709091199 0.491283809 2.79715603e-27)
(-0.745289996 0.507185462 0)
(-0.780389158 0.521431597 0)
(-0.814280086 0.534014804 0)
(-0.846851302 0.544939269 3.63513777e-26)
(-0.87798716 0.554220714 8.67641446e-26)
(-0.907566241 0.561886243 5.08008274e-26)
(-0.935459322 0.567974091 0)
(-0.961526923 0.572533291 -8.43287523e-27)
(-0.985616483 0.575623093 -4.42137783e-27)
(-1.00755855 0.577311366 9.32006295e-27)
(-1.02716094 0.577672379 8.1661674e-26)
(-1.04420028 0.576786229 8.85424134e-26)
(-1.05843682 0.574749728 -1.09768572e-26)
(-1.06963195 0.571662578 -1.15058936e-26)
(-1.07755528 0.567600773 1.43529609e-25)
(-1.08163597 0.563078526 1.58290619e-25)
(-1.08187968 0.557460153 -2.08493183e-25)
(-1.07753592 0.551312635 -2.36277733e-25)
(-1.06803994 0.544928209 0)
(-1.05366282 0.537527586 1.64140786e-26)
(-1.03178627 0.530773638 0)
(-1.0019116 0.523371208 3.82337775e-26)
(-0.961667208 0.515809117 2.63159451e-25)
(-0.91090701 0.507155168 2.84635387e-25)
(-0.847647264 0.498319054 4.42867702e-26)
(-0.770332228 0.489347593 -4.64366701e-26)
(-0.677122584 0.480238567 9.83195372e-26)
(-0.565887181 0.470880195 -5.08722002e-26)
(-0.434623816 0.460705913 5.4295529e-26)
(-0.278948133 0.449914677 5.91617161e-25)
(-0.100174868 0.43955025 8.74558788e-25)
(0.112822393 0.431485714 0)
(0.347889195 0.424364325 -7.0583836e-26)
(0.639762034 0.413659098 1.52399819e-25)
(0.97669086 0.400324601 1.09730685e-24)
(1.36533373 0.387469651 1.6685168e-24)
(1.81276624 0.37521849 1.88074965e-25)
(2.32432254 0.363214724 4.12359543e-24)
(2.90554444 0.351451954 4.79148408e-24)
(3.56181077 0.340035305 -1.9608343e-25)
(4.298016 0.329165725 -1.93854117e-25)
(5.11824019 0.319750438 7.40884079e-24)
(6.02519539 0.313081435 8.3900487e-24)
(7.01932929 0.310349581 1.42036459e-25)
(8.09775262 0.312848541 -1.25681026e-25)
(9.25225653 0.32415979 0)
(10.4696895 0.344556523 -9.3541682e-24)
(11.7439883 0.371889406 -1.79989558e-23)
(13.0471345 0.415101082 -8.58948905e-24)
(14.4062728 0.436489863 0)
(15.7213199 0.504839925 3.28350465e-26)
(16.8144689 0.807195646 3.72220126e-25)
(18.2474854 0.71130689 1.0304242e-23)
(19.9260362 0.00230788896 9.34824176e-24)
(20.6240943 0.566538427 -3.86809358e-24)
(20.9886248 1.89910116 -5.25881986e-24)
(22.3640696 0.961716961 4.69564761e-26)
(23.5370879 -0.208473289 1.6640208e-23)
(23.8746038 0.125439443 2.31875024e-23)
(23.7419057 0.910222222 -2.04263475e-24)
(23.6002678 1.43596272 -1.50778915e-23)
(23.5969822 0.870099987 -2.24684862e-23)
(-0.0241970729 0.0198090639 2.62100124e-27)
(-0.0714537775 0.0579667774 3.98205747e-28)
(-0.118477993 0.0953072763 -4.21489988e-28)
(-0.16537152 0.131893616 4.40969342e-28)
(-0.212165287 0.167766555 0)
(-0.258866687 0.202927405 -1.23356123e-26)
(-0.305448274 0.237343931 9.60151228e-34)
(-0.351847613 0.270956444 8.73131107e-27)
(-0.397978555 0.303686367 6.60551627e-27)
(-0.443736017 0.335443173 8.47810264e-27)
(-0.489000466 0.366129679 2.88964909e-27)
(-0.533641735 0.395646523 1.32864694e-27)
(-0.577522143 0.423895922 1.39699527e-27)
(-0.620498911 0.450784693 -7.74008397e-27)
(-0.662425933 0.476226608 -1.13813591e-26)
(-0.70315496 0.500144176 4.87172506e-27)
(-0.742536218 0.522469932 1.60092904e-26)
(-0.780418492 0.543147315 4.76341108e-26)
(-0.816648718 0.562131196 2.84517625e-26)
(-0.851071128 0.579388153 3.96892521e-27)
(-0.883525973 0.594896591 -4.1676696e-27)
(-0.913847751 0.6086468 -4.37487791e-27)
(-0.941862883 0.62064092 0)
(-0.967386945 0.630892767 9.59902953e-27)
(-0.990220995 0.639427475 -6.07883765e-26)
(-1.0101467 0.646281035 4.09419789e-29)
(-1.02692582 0.651496823 7.22309418e-26)
(-1.04030645 0.655119799 7.7568784e-26)
(-1.05002311 0.65719465 8.79680599e-26)
(-1.05569317 0.657887242 -9.16073054e-26)
(-1.05711904 0.657074928 -1.29851254e-26)
(-1.05390492 0.654985872 2.53509804e-25)
(-1.04556558 0.651840328 1.76405807e-25)
(-1.03183622 0.647643612 0)
(-1.0122628 0.642963759 0)
(-0.984862218 0.637470493 -1.70368002e-26)
(-0.948758259 0.630756458 0)
(-0.902014748 0.623233839 3.8119645e-26)
(-0.844552272 0.61450108 1.9931076e-25)
(-0.774674592 0.605240832 8.07141781e-26)
(-0.690965272 0.595516761 -1.88524331e-25)
(-0.591516474 0.58519216 0)
(-0.474003811 0.57420814 0)
(-0.337704525 0.562486794 3.30063004e-25)
(-0.178226742 0.550542347 5.19440162e-25)
(0.00645365701 0.539992582 5.29751277e-26)
(0.212980176 0.531409053 0)
(0.461873392 0.520717623 0)
(0.751670264 0.508034967 6.23037736e-25)
(1.08620323 0.495184931 8.00365071e-25)
(1.47168122 0.483079481 -6.67995174e-26)
(1.91412698 0.471568056 0)
(2.41771598 0.460490633 -1.04318438e-24)
(2.98797335 0.450194139 -1.41521437e-24)
(3.63031528 0.440840786 -3.29322874e-24)
(4.34961541 0.43287052 -3.87384914e-24)
(5.14999161 0.427254258 -4.79465157e-24)
(6.03400191 0.424938068 -1.52073024e-32)
(7.00205786 0.426485907 1.63097119e-32)
(8.05216002 0.432287283 -1.54132376e-23)
(9.18018836 0.442439812 -8.31142699e-24)
(10.3788595 0.457583337 8.54766133e-24)
(11.6369242 0.478253629 8.81036747e-24)
(12.936534 0.511022747 0)
(14.2489658 0.560771488 9.04495257e-24)
(15.5728077 0.612357752 1.76073142e-23)
(16.8622549 0.680355408 8.73817584e-24)
(18.1142846 0.758339609 0)
(19.3619079 0.768631052 -3.93409444e-26)
(20.3802129 0.906037226 7.79285632e-24)
(21.2047433 1.29814858 8.677512e-24)
(22.278478 1.04601548 0)
(23.3558513 0.510936777 0)
(23.7255176 0.893102394 1.03110834e-24)
(23.6794134 1.5342827 -1.23072116e-24)
(23.7297245 1.39071721 1.10277439e-23)
(23.8165955 0.961938294 1.10839943e-23)
(23.8669704 0.806622068 0)
(23.8950749 0.903014631 -1.75021039e-24)
(23.7945476 1.14577379 1.96066976e-23)
(-0.0270864996 0.0204655292 2.98929893e-28)
(-0.0797377797 0.059842228 4.7051478e-28)
(-0.13187511 0.0983567257 6.42510899e-27)
(-0.1836315 0.136101319 -4.65037632e-27)
(-0.235077835 0.173145249 -5.05930027e-27)
(-0.286229727 0.209505379 0)
(-0.337047979 0.245159374 -6.69934798e-27)
(-0.38747873 0.280060507 -5.76884999e-27)
(-0.437409594 0.314136438 -2.16059674e-27)
(-0.486703055 0.347294583 3.97237375e-28)
(-0.535200871 0.37943183 6.25502262e-27)
(-0.582728497 0.410440473 3.8252813e-34)
(-0.629099838 0.440212873 1.66258614e-27)
(-0.674121003 0.468645234 2.23975985e-33)
(-0.71759292 0.495640549 -1.83823179e-27)
(-0.759312903 0.521110752 2.61547318e-26)
(-0.799075288 0.544978202 -3.11364522e-26)
(-0.836671206 0.567176639 -4.23989372e-27)
(-0.871887535 0.58765189 3.77079628e-26)
(-0.904505174 0.60636241 4.66005074e-27)
(-0.934296867 0.623279194 -9.80007326e-27)
(-0.961020426 0.638381555 -5.57820443e-26)
(-0.984416325 0.651654076 -6.21000669e-26)
(-1.00421009 0.663088083 5.61195443e-27)
(-1.02011014 0.672677208 0)
(-1.03179669 0.680423839 6.09236053e-27)
(-1.03898494 0.686398204 0)
(-1.04134485 0.69068635 1.1328096e-25)
(-1.03852836 0.693473678 2.33115791e-25)
(-1.03020115 0.694826187 1.28742749e-25)
(-1.01596895 0.695055713 -1.07318575e-25)
(-0.994348598 0.693854873 -1.20169567e-25)
(-0.964553959 0.691106119 3.3010351e-26)
(-0.925506118 0.686739363 1.72858443e-26)
(-0.875594581 0.681014697 -1.6278411e-25)
(-0.814717158 0.673993982 -2.05145294e-25)
(-0.741362126 0.66606213 0)
(-0.654091036 0.65725667 2.27115139e-25)
(-0.551017705 0.647560291 2.1813745e-25)
(-0.43027699 0.637084886 4.11168586e-26)
(-0.29021147 0.625732914 4.31673928e-26)
(-0.127826067 0.613826722 0)
(0.0598551431 0.603375756 0)
(0.267857799 0.594860068 0)
(0.518432991 0.583966979 5.00442481e-26)
(0.80906165 0.571178951 5.12541174e-25)
(1.14283978 0.558978726 5.49583872e-25)
(1.52570992 0.547959501 0)
(1.96223769 0.537923425 0)
(2.45758394 0.529081711 7.79880139e-25)
(3.01717477 0.521759744 8.77931558e-25)
(3.64638194 0.516318289 1.14325657e-24)
(4.34998327 0.513567049 1.36749051e-24)
(5.13178866 0.514406252 -1.06993542e-25)
(5.99406696 0.519557861 -1.99903473e-24)
(6.93716034 0.529580944 -2.18648788e-24)
(7.95932303 0.544979493 -5.3895049e-24)
(9.05656784 0.566350043 -6.35237068e-24)
(10.2225516 0.593697231 0)
(11.4473799 0.626902806 -2.14855194e-26)
(12.7180789 0.665357578 -7.68119274e-24)
(14.0182443 0.708777195 -1.61446902e-23)
(15.3306047 0.754524025 1.12453835e-25)
(16.6316105 0.805897963 1.43938008e-25)
(17.8793828 0.877130715 -9.39644187e-24)
(19.0640283 0.956139069 9.2273278e-24)
(20.172975 1.02048679 9.18020069e-24)
(21.1535615 1.10299456 -5.76640159e-25)
(22.0307235 1.17779427 -8.0428844e-24)
(22.8281911 1.1399522 -1.00814428e-23)
(23.4235573 1.23612798 6.67257796e-26)
(23.7381765 1.46375152 -1.4769708e-23)
(23.8251089 1.34695588 -1.04643077e-23)
(23.8381379 1.2551372 0)
(23.8967605 1.19385663 -1.40057498e-23)
(23.863212 1.33423638 -1.96414169e-23)
(23.8309528 1.37025399 1.30622538e-24)
(23.8536657 1.30830464 8.3539087e-24)
(23.9593091 1.12775054 1.2700729e-23)
(23.9562932 1.09841794 1.00521152e-23)
(-0.0297186822 0.0206778186 2.15692442e-27)
(-0.0872691581 0.0603679925 0)
(-0.144036504 0.0991075715 0)
(-0.200179075 0.137007935 1.42158958e-30)
(-0.255785049 0.174156964 0)
(-0.310885025 0.210593973 0)
(-0.365452384 0.246309479 0)
(-0.419372948 0.281249857 -2.9629346e-27)
(-0.472502705 0.315343665 0)
(-0.524694907 0.348504609 1.64693136e-27)
(-0.575737731 0.380634535 1.16691809e-26)
(-0.625403649 0.411621894 2.28224613e-33)
(-0.673449807 0.441354802 -1.43693228e-26)
(-0.719622075 0.469725787 0)
(-0.763658096 0.496634678 -2.11600725e-27)
(-0.80528885 0.521990774 4.45291925e-27)
(-0.844239105 0.545714443 0)
(-0.88022629 0.567737986 4.42284174e-26)
(-0.912953392 0.588002824 5.16503399e-27)
(-0.942106372 0.606455721 -1.07794867e-25)
(-0.96738349 0.623018075 -6.66608354e-26)
(-0.988428543 0.637747968 5.85893829e-27)
(-1.00495727 0.65063107 0)
(-1.01663766 0.661719403 -9.54119579e-26)
(-1.02311576 0.671098639 -1.071784e-25)
(-1.02399909 0.678831643 -1.10070997e-25)
(-1.01845881 0.684768389 -1.25140791e-25)
(-1.00584931 0.68891674 1.32217316e-25)
(-0.985418217 0.691278711 1.31666025e-25)
(-0.95625565 0.691824466 0)
(-0.91714823 0.690644916 -1.65170644e-25)
(-0.867768052 0.688014805 -1.80433637e-25)
(-0.806881676 0.68409593 1.80612592e-26)
(-0.733204797 0.678943211 -1.80135448e-25)
(-0.645305226 0.672634143 -2.10589214e-25)
(-0.541411372 0.665256603 -4.02058253e-26)
(-0.419516079 0.656936135 2.06151604e-26)
(-0.277910421 0.647478189 -2.4147835e-25)
(-0.113637004 0.637031937 -3.40015436e-25)
(0.0765127371 0.6275798 3.71594737e-25)
(0.286215019 0.61986258 5.39413593e-25)
(0.538045941 0.610399254 3.17394078e-25)
(0.827916578 0.599449664 0)
(1.15997463 0.58939448 -5.1523602e-26)
(1.53949502 0.58076257 -4.65234629e-25)
(1.97058097 0.573448226 -5.1779728e-26)
(2.4582303 0.567841487 1.00793123e-32)
(3.00785079 0.564475122 -6.5684725e-25)
(3.62452215 0.564059112 0)
(4.31276015 0.567348845 -5.02963422e-26)
(5.07615458 0.575078685 -1.23773393e-24)
(5.91696234 0.587942317 -1.35486159e-24)
(6.83583528 0.606604948 -1.32775701e-25)
(7.83156751 0.63178598 -2.04245427e-24)
(8.90068063 0.664179063 -2.3170642e-24)
(10.0370511 0.704405976 -2.76118486e-24)
(11.2317783 0.752416357 -9.01584393e-24)
(12.4726152 0.807872302 -6.40001916e-24)
(13.7442179 0.87029269 -6.69632233e-24)
(15.0276776 0.938651353 -7.23154431e-24)
(16.3032136 1.01054995 0)
(17.5474556 1.08253739 1.74000887e-25)
(18.7423201 1.15061797 -8.30580015e-24)
(19.8639177 1.20806097 -9.26470194e-24)
(20.8853631 1.2674267 -4.76216166e-26)
(21.7588931 1.340943 0)
(22.5117998 1.40590139 1.16483703e-23)
(23.1198818 1.43369081 1.00508153e-23)
(23.6016535 1.46941783 7.0987099e-25)
(23.8948185 1.48782642 -6.79900425e-25)
(23.9191697 1.49342013 -5.7454693e-26)
(23.9006491 1.51770577 -1.06574822e-24)
(23.8538694 1.59661241 -1.00029028e-23)
(23.8388072 1.5165632 -1.5068674e-23)
(23.8720779 1.49162426 -4.65782407e-25)
(23.9532508 1.39431064 0)
(23.9626641 1.41837359 -8.58552276e-24)
(23.9514186 1.44100251 -1.58741979e-23)
(23.9678312 1.42339823 0)
(23.9810717 1.33512717 -1.08210975e-23)
(-0.0323647629 0.0206821784 -3.66260583e-27)
(-0.0948002565 0.0602284867 -5.12423509e-27)
(-0.156138934 0.098677417 -6.00959913e-27)
(-0.216555313 0.136151193 -6.8639571e-28)
(-0.276143439 0.172748624 3.24534704e-27)
(-0.334928275 0.208518535 -1.52609736e-27)
(-0.392861351 0.243464629 8.13578243e-28)
(-0.449827634 0.277551782 -1.22168255e-27)
(-0.505656466 0.31070525 1.78905015e-27)
(-0.560075906 0.342835258 3.77172185e-27)
(-0.612863876 0.373835899 -4.61561253e-27)
(-0.663725093 0.403609852 -2.72234546e-26)
(-0.712346427 0.432050651 -2.34473904e-26)
(-0.758401066 0.459054561 -2.69857784e-26)
(-0.801546566 0.48452479 2.43672265e-27)
(-0.841427195 0.508376662 4.79735409e-26)
(-0.877676742 0.530540116 0)
(-0.909940046 0.550917393 0)
(-0.937834149 0.569542095 6.20914423e-26)
(-0.961004159 0.586412052 1.58590397e-25)
(-0.97893919 0.601436735 9.05041791e-26)
(-0.991196349 0.614583784 1.02099748e-25)
(-0.997206003 0.625873011 2.13266767e-33)
(-0.996357902 0.635286018 -1.2962415e-25)
(-0.987952078 0.64281496 1.25766778e-25)
(-0.971196604 0.648476823 2.90974469e-25)
(-0.945538462 0.652492317 1.49556805e-25)
(-0.910059414 0.654891945 -8.67871398e-27)
(-0.863731383 0.655728347 9.01594768e-27)
(-0.805410474 0.655065536 -1.87044326e-26)
(-0.733827977 0.652980913 0)
(-0.647526906 0.649579423 2.43597556e-25)
(-0.544730586 0.644984939 -2.09445176e-26)
(-0.423489892 0.639334852 -2.36073817e-25)
(-0.28202368 0.63247724 0)
(-0.117521515 0.62454707 -3.6601923e-25)
(0.0730365336 0.617382717 -3.30210605e-25)
(0.283722804 0.611734929 0)
(0.535058575 0.604909747 0)
(0.823205358 0.597048871 -3.66359185e-25)
(1.15223331 0.590297794 -4.33504269e-25)
(1.52719679 0.585148878 1.06094521e-25)
(1.95210073 0.58167164 0)
(2.43167462 0.580449475 4.93078656e-25)
(2.97094953 0.582103739 1.17896917e-24)
(3.57458322 0.587314975 6.48931082e-25)
(4.2467707 0.596813465 5.33335076e-26)
(4.99096488 0.611330735 -2.28623567e-27)
(5.80954095 0.631634803 0)
(6.70353233 0.658523662 -1.33169303e-24)
(7.67223465 0.69277528 -6.17030215e-26)
(8.71281729 0.735078133 1.82998959e-24)
(9.81995674 0.785973526 -1.02990576e-26)
(10.9855828 0.84583438 -2.5459115e-24)
(12.1988007 0.914451039 -5.65702985e-24)
(13.4454977 0.991334072 9.29139643e-33)
(14.7084549 1.07570504 3.10812843e-24)
(15.9681434 1.16597106 0)
(17.203185 1.25991511 0)
(18.389707 1.35584563 1.67037843e-25)
(19.5048423 1.45101594 1.8953005e-25)
(20.5257149 1.53962377 0)
(21.4375989 1.61579678 9.12718344e-24)
(22.2249784 1.67089522 9.24488647e-24)
(22.8903685 1.7035536 -9.35784796e-24)
(23.3928455 1.72779761 -2.14426804e-23)
(23.7519942 1.76121554 -1.01525592e-23)
(23.9836116 1.76182996 -1.14356521e-23)
(24.0150679 1.77901548 -1.20420802e-23)
(23.9730571 1.78997104 -8.77285297e-25)
(23.9191435 1.79197314 1.17168981e-23)
(23.9034002 1.74805566 1.14678292e-23)
(23.9064822 1.7138446 -9.74379807e-24)
(23.8999447 1.6909334 -8.81573116e-24)
(23.9295717 1.67716249 -1.27714352e-23)
(23.9580177 1.59511799 -1.12514047e-23)
(23.9670496 1.51576482 -1.31527154e-23)
(23.9738459 1.49356746 1.01761213e-31)
(23.9890361 1.44848512 2.7772611e-23)
(23.9933397 1.42044396 2.31828433e-23)
(-0.0352342655 0.0206116698 1.93236244e-27)
(-0.102883403 0.0598169594 7.12456227e-28)
(-0.169003884 0.0977229619 4.65407809e-27)
(-0.233776067 0.134458106 -1.24365174e-33)
(-0.297286801 0.170128562 -2.70040257e-27)
(-0.359541914 0.204789194 -2.9724138e-27)
(-0.420461697 0.238448984 1.03371538e-27)
(-0.479885732 0.271079931 5.06273117e-28)
(-0.537584595 0.302625274 4.39434711e-27)
(-0.593282226 0.33299476 6.3709908e-27)
(-0.646597139 0.362090876 9.07401937e-27)
(-0.69716572 0.389810686 1.00944774e-26)
(-0.744608989 0.416055595 1.56834931e-26)
(-0.788521885 0.440717616 2.15350782e-26)
(-0.828438292 0.463782285 2.7901767e-27)
(-0.863939363 0.485115541 2.92792654e-27)
(-0.894535571 0.504684456 6.72398259e-26)
(-0.919703971 0.522483811 8.01943782e-26)
(-0.938932732 0.538422043 -6.71185965e-27)
(-0.951612933 0.552471046 -7.10475388e-27)
(-0.957159578 0.5647349 1.0324377e-25)
(-0.954914409 0.575191423 1.1582284e-25)
(-0.944133165 0.583862687 0)
(-0.923968065 0.590797031 8.51535755e-27)
(-0.89350844 0.596031053 0)
(-0.851732641 0.599625203 0)
(-0.797495685 0.601664161 9.66987493e-27)
(-0.729501544 0.602258995 -2.32054375e-25)
(-0.646284161 0.601534306 -2.19047571e-25)
(-0.546133704 0.599626138 2.23559898e-25)
(-0.42716803 0.596693999 2.50460242e-25)
(-0.287593966 0.592667086 2.30066262e-26)
(-0.124821831 0.587713728 -2.39811128e-26)
(0.064081923 0.583414323 0)
(0.274009417 0.580374744 2.5404292e-26)
(0.523138753 0.57661856 0)
(0.808116139 0.572277648 0)
(1.13285447 0.569303369 2.87410111e-26)
(1.50199853 0.568245192 0)
(1.91939797 0.569276404 0)
(2.38949791 0.572988812 5.3568197e-25)
(2.91692472 0.580010813 6.5019393e-25)
(3.50599763 0.591027735 0)
(4.16066588 0.606782269 0)
(4.8843034 0.628066746 0)
(5.67935596 0.655724614 5.63371842e-26)
(6.54706597 0.690579495 4.91262852e-26)
(7.48712712 0.733392032 1.27717118e-24)
(8.49733115 0.784809893 1.55117276e-24)
(9.57324929 0.845314337 1.82847423e-24)
(10.7079478 0.915166406 2.16009218e-24)
(11.8917905 0.994379895 2.52598847e-24)
(13.1123295 1.08249117 2.80745659e-24)
(14.3540625 1.17863074 0)
(15.5986861 1.28146515 0)
(16.8260792 1.3892278 -3.13225015e-24)
(18.0140478 1.49981093 -6.67666726e-24)
(19.1400303 1.61097478 -3.59265481e-24)
(20.1831119 1.71757467 -3.78760627e-24)
(21.12461 1.81912218 -3.59398277e-24)
(21.9443156 1.9139717 8.43824007e-24)
(22.6327722 2.00092427 1.56267762e-23)
(23.175622 2.06924679 3.40220373e-25)
(23.6058202 2.11309734 -1.02261341e-23)
(23.8812444 2.14603863 3.32286689e-25)
(24.0358532 2.14111215 -6.33492422e-25)
(24.0716259 2.13009799 1.06211425e-23)
(24.070479 2.09068435 -6.9927514e-32)
(24.0276172 2.08133725 -9.7829793e-24)
(24.0052057 2.07651821 -7.74869821e-25)
(23.9993999 2.03494901 1.09601485e-23)
(23.976843 2.05726477 1.07490153e-23)
(23.9441506 2.03069137 0)
(23.9258941 1.99077299 8.01676296e-25)
(23.9305914 1.89945442 0)
(23.9504989 1.77941996 1.28169166e-23)
(23.9567341 1.75849923 1.84490273e-23)
(23.9618762 1.69612013 9.32264302e-24)
(23.9955828 1.60784772 1.08918398e-23)
(23.9984042 1.55366039 2.16085185e-23)
(-0.0382991498 0.0204307533 1.87289355e-27)
(-0.111380428 0.0590569246 5.70110078e-27)
(-0.182323752 0.0961627079 -8.78302623e-28)
(-0.251302853 0.131879144 -3.21155123e-27)
(-0.318381139 0.166314473 -1.48911896e-27)
(-0.383525976 0.19952508 -6.39326527e-28)
(-0.446605631 0.231521912 -2.17116165e-27)
(-0.50739562 0.262279468 -7.25330043e-27)
(-0.565591998 0.291745349 -1.01067954e-26)
(-0.620826446 0.319850048 -1.31781869e-26)
(-0.672685433 0.346510503 0)
(-0.720696716 0.371654567 -5.60977898e-27)
(-0.764341556 0.39517348 2.955582e-27)
(-0.80305772 0.417027207 0)
(-0.836324029 0.4370984 0)
(-0.863499182 0.45540171 0)
(-0.88396458 0.47188426 0)
(-0.897047291 0.486538965 -3.76767037e-27)
(-0.902022252 0.499373663 0)
(-0.898096899 0.510412881 -6.96565496e-26)
(-0.884437989 0.519684961 -7.71008158e-26)
(-0.860075665 0.527268322 1.43481325e-25)
(-0.82399038 0.533226069 1.68770086e-25)
(-0.775026596 0.537659805 -1.75734292e-25)
(-0.711899842 0.540682087 -2.13343603e-25)
(-0.633170135 0.542422764 -2.21483148e-25)
(-0.537184993 0.543031043 -2.27999963e-25)
(-0.422120538 0.542683422 -2.72270794e-25)
(-0.286176124 0.54137546 -5.44403479e-25)
(-0.126942919 0.539299073 -3.33632776e-25)
(0.0584358595 0.537775845 0)
(0.265784497 0.537306323 -2.69447785e-26)
(0.510852751 0.536559552 -2.84133314e-26)
(0.790894888 0.535713928 0)
(1.1096483 0.536472192 3.0209029e-26)
(1.47130297 0.539394062 0)
(1.879493 0.54473384 0)
(2.33834282 0.553108718 5.66246269e-25)
(2.85213007 0.565177666 -3.41013933e-26)
(3.42490798 0.581666475 -6.44151877e-25)
(4.06043 0.603358197 7.52844394e-25)
(4.7619548 0.631062602 8.02693279e-25)
(5.53192856 0.665620646 3.38394041e-26)
(6.37174845 0.707843727 0)
(7.28145405 0.758473588 1.13047678e-24)
(8.25941171 0.818137209 1.43413792e-24)
(9.30200152 0.887290621 0)
(10.4033303 0.966153463 0)
(11.5550006 1.05464425 -2.23209313e-24)
(12.7460057 1.15233672 -2.58271287e-24)
(13.9627052 1.25837056 2.89766289e-24)
(15.1888503 1.37134578 3.07764723e-24)
(16.4054197 1.4895706 -3.15403639e-24)
(17.5917476 1.61105232 1.54662836e-32)
(18.7260793 1.73309847 3.49848315e-24)
(19.7876364 1.8524105 1.78859836e-26)
(20.7570942 1.96610363 0)
(21.6140801 2.07315246 2.1020158e-25)
(22.3518647 2.16710112 -3.63715998e-24)
(22.9625061 2.2416201 3.16164298e-25)
(23.4658816 2.31194513 5.21051179e-24)
(23.8007202 2.36165327 0)
(23.9796145 2.39630552 3.61874383e-25)
(24.0425657 2.43545098 0)
(24.0578239 2.4070441 4.48890416e-25)
(24.074223 2.37448913 -4.53864842e-25)
(24.0679873 2.34432919 -6.19296192e-25)
(24.0678567 2.354068 -8.87205038e-24)
(24.0826929 2.30943021 -1.42778389e-23)
(24.078722 2.29539001 -4.81962886e-25)
(24.0672664 2.32042323 -9.40840284e-24)
(24.0131518 2.27718405 -1.12426199e-23)
(23.9747089 2.27523567 -7.49202491e-24)
(23.9267053 2.20617984 -8.56513526e-24)
(23.8789682 2.22457729 -1.45207676e-23)
(23.8946996 2.15122977 -8.72929119e-24)
(23.9447638 1.97697039 1.11003984e-23)
(23.9827378 1.90007504 1.34163165e-23)
(24.0232761 1.87914962 -1.61452321e-24)
(24.0246497 1.81738872 1.12074273e-24)
(-0.0412919243 0.0199900821 1.50537299e-27)
(-0.119480557 0.0575435264 -5.37226321e-27)
(-0.194720877 0.0933789503 -1.03074971e-27)
(-0.267161859 0.127628552 -1.05995517e-33)
(-0.336824333 0.16039944 8.67020266e-28)
(-0.403617032 0.19174838 -1.20471766e-27)
(-0.46733626 0.221689375 5.9657452e-27)
(-0.527670244 0.250211026 2.02375133e-33)
(-0.584218732 0.277258641 -2.29793181e-26)
(-0.636490642 0.302778119 -1.67593855e-26)
(-0.683929218 0.326702011 3.11662893e-27)
(-0.725927127 0.348946274 -2.79061574e-26)
(-0.761812721 0.369475819 -2.57855638e-26)
(-0.790898105 0.388232036 -3.45320292e-26)
(-0.812442369 0.405187406 -4.02986964e-26)
(-0.825658286 0.420334082 4.65227898e-26)
(-0.829711127 0.433681561 5.32951551e-26)
(-0.823694427 0.44527657 -4.34959322e-27)
(-0.806676478 0.455150507 0)
(-0.777535894 0.463408987 -7.06490181e-26)
(-0.735146552 0.470128574 -8.39839291e-26)
(-0.67823714 0.475443659 -1.05657047e-26)
(-0.605399205 0.479497662 1.02153961e-25)
(-0.515058936 0.482465136 1.22957062e-25)
(-0.405476911 0.484546246 -2.39197674e-26)
(-0.274879949 0.485803955 0)
(-0.12101473 0.486455869 1.31674628e-26)
(0.0589030554 0.487596212 2.01783374e-28)
(0.261620587 0.489641989 -3.16990615e-25)
(0.500591369 0.49178626 -3.29434909e-25)
(0.773690108 0.49424572 3.94995717e-25)
(1.08447971 0.498474246 3.80485638e-25)
(1.43673909 0.505037374 -6.59986154e-26)
(1.8338822 0.51427496 -4.46428424e-25)
(2.27972355 0.526841509 -2.51515521e-32)
(2.77820633 0.543434976 5.68615182e-25)
(3.33310926 0.564808764 -6.61526618e-25)
(3.94797085 0.591761602 -6.89628801e-25)
(4.62592285 0.62510768 -7.67560021e-26)
(5.36940183 0.665685211 3.87764991e-26)
(6.17994557 0.714300492 3.70767376e-26)
(7.05791303 0.771690287 -1.09440669e-24)
(8.00218794 0.838476547 -2.47811582e-24)
(9.00987986 0.915113227 -1.45113603e-24)
(10.07604 1.00182343 -1.73898963e-24)
(11.1934194 1.09853231 -1.95902345e-24)
(12.3523035 1.20480433 0)
(13.5404468 1.31979111 2.61684126e-24)
(14.7431491 1.44222325 3.04256917e-24)
(15.9436702 1.57016578 3.24821381e-24)
(17.1229456 1.70131524 6.8260695e-24)
(18.2606561 1.83307439 7.13156936e-24)
(19.335883 1.96256267 7.48048257e-24)
(20.3286953 2.08684781 7.8293705e-24)
(21.2204555 2.20288569 4.06896248e-24)
(21.997097 2.306727 -3.25762532e-25)
(22.6542709 2.39490555 0)
(23.177402 2.46610326 -4.2544293e-24)
(23.5849471 2.51556683 -5.41313055e-24)
(23.8774219 2.56234182 0)
(23.997465 2.57609132 -5.65978773e-24)
(24.0350944 2.55871968 -5.52457511e-24)
(24.0495325 2.59850783 0)
(24.035538 2.58220908 -1.59778815e-25)
(24.023391 2.59682707 0)
(24.0074893 2.56368752 -1.10643039e-23)
(24.0264791 2.51883806 -7.85919207e-25)
(24.0566491 2.43272961 1.09107789e-23)
(24.0810989 2.36357045 -9.81591354e-25)
(24.0844656 2.34962787 -5.31022129e-25)
(24.0833873 2.31612581 -1.22538693e-23)
(24.0054986 2.36078695 -1.11419354e-23)
(23.9048214 2.41783368 -6.30579307e-25)
(23.8469949 2.41599248 -6.82362761e-25)
(23.8201939 2.3911816 -4.98928365e-26)
(23.8181166 2.34796435 -9.60311724e-25)
(23.8252237 2.34858555 1.06574816e-23)
(23.9079258 2.21935033 1.90653949e-23)
(24.0113206 2.02590527 8.75574258e-24)
(24.0336575 1.94804396 -2.64511423e-24)
(-0.0438464665 0.0191481543 0)
(-0.126058682 0.0548756184 -1.14598456e-27)
(-0.204267801 0.0887347032 1.20717256e-27)
(-0.278574395 0.120862179 -3.72730321e-27)
(-0.348931318 0.151361171 1.34044802e-27)
(-0.415155751 0.180291841 1.41162003e-27)
(-0.476933267 0.207674366 -1.13795829e-26)
(-0.53382938 0.233491099 0)
(-0.585289792 0.257719734 3.28219411e-27)
(-0.630681568 0.280312945 -2.3157374e-26)
(-0.66929125 0.301228223 -2.43956229e-26)
(-0.700338736 0.320428638 3.33014614e-26)
(-0.722985731 0.337889758 4.02105474e-27)
(-0.736338934 0.353605647 -8.64886871e-26)
(-0.739440918 0.367598343 -1.03945654e-25)
(-0.731287657 0.379886959 -5.42210758e-26)
(-0.710760626 0.390565713 -4.87416305e-27)
(-0.676687423 0.39970185 -7.4754853e-26)
(-0.62778052 0.407422366 -7.81051035e-26)
(-0.562634587 0.413881461 5.55183558e-27)
(-0.479734947 0.41927842 -5.85986194e-27)
(-0.37750283 0.423776951 -2.43477174e-26)
(-0.254182411 0.427525386 -1.20629829e-25)
(-0.107631011 0.430845393 -2.85345218e-25)
(0.0647383104 0.434620691 -1.51809043e-25)
(0.260637089 0.439170901 -1.44409512e-26)
(0.491391507 0.444091918 -1.28609503e-25)
(0.75548915 0.44964009 1.57391887e-26)
(1.05629001 0.45706727 -1.63887293e-26)
(1.39719313 0.466957696 -1.95987189e-25)
(1.78138823 0.479730779 0)
(2.212407 0.496062203 -5.1651374e-25)
(2.69389216 0.516666296 -3.79547551e-26)
(3.22936942 0.542307975 6.30797715e-25)
(3.82217103 0.573795425 6.91756046e-25)
(4.47529469 0.611951732 7.57953186e-25)
(5.19115625 0.657618667 -4.15082062e-26)
(5.97140251 0.711607885 0)