/*--------------------------------*- C++ -*----------------------------------*\
  =========                 |
  \\      /  F ield         | OpenFOAM: The Open Source CFD Toolbox
   \\    /   O peration     | Website:  https://openfoam.org
    \\  /    A nd           | Version:  8
     \\/     M anipulation  |
\*---------------------------------------------------------------------------*/
FoamFile
{
    version     2.0;
    format      ascii;
    class       volScalarField;
    location    "0.009";
    object      p;
}
// * * * * * * * * * * * * * * * * * * * * * * * * * * * * * * * * * * * * * //

dimensions      [1 -1 -2 0 0 0 0];

internalField   nonuniform List<scalar> 
42400
(
101259.935
101259.924
101259.913
101259.904
101259.896
101259.889
101259.883
101259.878
101259.875
101259.873
101259.872
101259.873
101259.875
101259.879
101259.884
101259.891
101259.899
101259.91
101259.921
101259.935
101259.95
101259.967
101259.986
101260.006
101260.029
101260.054
101260.08
101260.109
101260.139
101260.173
101260.208
101260.246
101260.286
101260.33
101260.383
101260.445
101260.512
101260.576
101260.631
101260.686
101260.748
101260.824
101260.912
101261.006
101261.107
101261.215
101261.329
101261.447
101261.581
101261.738
101261.916
101262.087
101262.247
101262.435
101262.652
101262.886
101263.129
101263.387
101263.659
101263.938
101264.23
101264.541
101264.866
101265.195
101265.521
101265.825
101266.139
101266.491
101266.757
101267.091
101267.723
101267.654
101267.664
101268.159
101267.899
101268.106
101270.873
101270.171
101268.488
101269.604
101259.49
101259.482
101259.474
101259.467
101259.46
101259.455
101259.452
101259.449
101259.447
101259.447
101259.448
101259.45
101259.454
101259.459
101259.465
101259.473
101259.483
101259.494
101259.507
101259.521
101259.537
101259.555
101259.574
101259.595
101259.618
101259.643
101259.669
101259.697
101259.727
101259.759
101259.792
101259.831
101259.877
101259.928
101259.976
101260.016
101260.054
101260.098
101260.154
101260.216
101260.282
101260.351
101260.426
101260.503
101260.581
101260.676
101260.8
101260.933
101261.031
101261.127
101261.262
101261.42
101261.585
101261.763
101261.956
101262.163
101262.385
101262.629
101262.904
101263.213
101263.541
101263.886
101264.252
101264.646
101265.072
101265.483
101265.906
101266.387
101266.897
101267.28
101268.008
101268.224
101268.009
101270.124
101274.035
101274.91
101273.016
101272.394
101276.282
101279.412
101258.906
101258.9
101258.894
101258.888
101258.884
101258.881
101258.878
101258.877
101258.877
101258.878
101258.88
101258.884
101258.889
101258.895
101258.903
101258.913
101258.924
101258.936
101258.95
101258.966
101258.984
101259.003
101259.023
101259.046
101259.07
101259.095
101259.122
101259.152
101259.185
101259.221
101259.261
101259.298
101259.33
101259.362
101259.397
101259.44
101259.489
101259.539
101259.592
101259.648
101259.705
101259.76
101259.83
101259.923
101260.003
101260.064
101260.142
101260.242
101260.355
101260.468
101260.591
101260.725
101260.871
101261.033
101261.22
101261.439
101261.687
101261.965
101262.272
101262.62
101263.018
101263.467
101263.967
101264.517
101265.141
101265.785
101266.47
101267.175
101268.095
101268.735
101269.789
101273.282
101275.586
101275.541
101275.227
101276.42
101277.786
101279.699
101282.282
101284.741
101258.211
101258.206
101258.201
101258.197
101258.194
101258.191
101258.19
101258.19
101258.191
101258.193
101258.197
101258.202
101258.208
101258.216
101258.226
101258.237
101258.25
101258.264
101258.28
101258.298
101258.318
101258.339
101258.361
101258.385
101258.411
101258.439
101258.471
101258.502
101258.534
101258.565
101258.598
101258.635
101258.675
101258.718
101258.761
101258.806
101258.853
101258.899
101258.943
101258.998
101259.074
101259.135
101259.177
101259.235
101259.31
101259.388
101259.469
101259.555
101259.648
101259.75
101259.867
101260.004
101260.163
101260.344
101260.55
101260.791
101261.075
101261.408
101261.798
101262.252
101262.777
101263.378
101264.068
101264.833
101265.733
101266.718
101267.788
101268.953
101270.435
101273.086
101274.362
101274.289
101275.604
101277.444
101279.052
101280.667
101282.187
101284.503
101287.016
101288.747
101257.41
101257.405
101257.401
101257.397
101257.395
101257.394
101257.393
101257.394
101257.396
101257.4
101257.405
101257.411
101257.419
101257.429
101257.441
101257.454
101257.469
101257.486
101257.504
101257.523
101257.544
101257.567
101257.594
101257.623
101257.653
101257.685
101257.718
101257.753
101257.791
101257.83
101257.87
101257.911
101257.953
101257.997
101258.041
101258.081
101258.131
101258.199
101258.252
101258.287
101258.338
101258.402
101258.465
101258.529
101258.596
101258.668
101258.748
101258.84
101258.946
101259.065
101259.199
101259.354
101259.537
101259.758
101260.021
101260.333
101260.699
101261.126
101261.625
101262.207
101262.89
101263.674
101264.597
101265.62
101266.818
101268.124
101269.431
101271.376
101272.628
101273.527
101275.281
101277.006
101278.569
101280.134
101281.543
101282.965
101284.886
101286.981
101288.935
101290.603
101256.507
101256.503
101256.498
101256.496
101256.494
101256.493
101256.494
101256.496
101256.5
101256.504
101256.51
101256.518
101256.528
101256.54
101256.554
101256.569
101256.586
101256.606
101256.629
101256.654
101256.682
101256.712
101256.743
101256.776
101256.81
101256.846
101256.884
101256.924
101256.965
101257.007
101257.052
101257.096
101257.138
101257.187
101257.252
101257.304
101257.341
101257.391
101257.453
101257.512
101257.572
101257.634
101257.702
101257.776
101257.858
101257.948
101258.048
101258.162
101258.293
101258.448
101258.631
101258.85
101259.11
101259.417
101259.776
101260.192
101260.672
101261.226
101261.859
101262.581
101263.386
101264.291
101265.091
101265.945
101267.638
101270.306
101272.014
101272.857
101274.16
101275.808
101277.306
101278.815
101280.425
101282.162
101283.902
101285.711
101287.63
101289.509
101291.46
101293.139
101255.484
101255.48
101255.476
101255.474
101255.473
101255.474
101255.476
101255.479
101255.485
101255.492
101255.5
101255.511
101255.524
101255.538
101255.556
101255.576
101255.599
101255.623
101255.649
101255.678
101255.709
101255.743
101255.778
101255.815
101255.855
101255.896
101255.94
101255.985
101256.032
101256.076
101256.126
101256.192
101256.249
101256.29
101256.341
101256.405
101256.467
101256.529
101256.595
101256.665
101256.739
101256.82
101256.907
101257.003
101257.113
101257.238
101257.383
101257.552
101257.752
101257.987
101258.266
101258.594
101258.975
101259.413
101259.917
101260.491
101261.144
101261.874
101262.693
101263.534
101264.325
101265.817
101268.277
101270.358
101271.422
101271.562
101272.491
101274.334
101276.207
101278.038
101279.866
101281.928
101283.854
101285.529
101287.306
101289.212
101291.138
101293.218
101295.562
101298.29
101254.328
101254.324
101254.322
101254.321
101254.321
101254.323
101254.327
101254.332
101254.34
101254.35
101254.363
101254.377
101254.394
101254.413
101254.434
101254.458
101254.484
101254.513
101254.545
101254.579
101254.616
101254.655
101254.697
101254.741
101254.787
101254.835
101254.882
101254.932
101254.997
101255.06
101255.106
101255.157
101255.223
101255.29
101255.356
101255.426
101255.499
101255.576
101255.658
101255.748
101255.847
101255.956
101256.08
101256.222
101256.386
101256.576
101256.799
101257.061
101257.37
101257.731
101258.151
101258.635
101259.192
101259.824
101260.546
101261.346
101262.262
101263.182
101264.369
101266.18
101268.418
101270.107
101270.909
101271.68
101272.804
101274.4
101276.021
101277.469
101279.193
101280.977
101282.619
101284.189
101285.89
101287.727
101289.494
101291.525
101293.674
101295.638
101297.345
101299.13
101253.009
101253.007
101253.006
101253.007
101253.009
101253.013
101253.02
101253.029
101253.04
101253.053
101253.068
101253.087
101253.108
101253.131
101253.158
101253.187
101253.22
101253.255
101253.292
101253.333
101253.377
101253.423
101253.472
101253.52
101253.572
101253.637
101253.703
101253.755
101253.81
101253.878
101253.949
101254.019
101254.091
101254.167
101254.247
101254.333
101254.425
101254.525
101254.634
101254.757
101254.894
101255.052
101255.233
101255.443
101255.688
101255.976
101256.312
101256.704
101257.159
101257.681
101258.277
101258.949
101259.704
101260.537
101261.443
101262.401
101263.603
101265.537
101267.283
101268.171
101268.973
101270.179
101271.599
101273.387
101275.089
101276.797
101278.695
101280.318
101281.492
101282.887
101284.545
101285.974
101287.663
101289.671
101291.46
101293.35
101295.628
101297.872
101300.076
101301.901
101251.505
101251.505
101251.506
101251.509
101251.515
101251.522
101251.532
101251.545
101251.56
101251.577
101251.598
101251.622
101251.648
101251.678
101251.711
101251.747
101251.786
101251.828
101251.874
101251.922
101251.972
101252.026
101252.089
101252.155
101252.211
101252.27
101252.34
101252.414
101252.487
101252.564
101252.644
101252.727
101252.816
101252.91
101253.011
101253.12
101253.241
101253.374
101253.525
101253.696
101253.893
101254.12
101254.385
101254.694
101255.054
101255.473
101255.958
101256.517
101257.157
101257.886
101258.709
101259.635
101260.663
101261.825
101263.045
101264.426
101265.686
101266.667
101267.917
101269.63
101271.446
101272.907
101274.075
101275.28
101276.545
101277.718
101279.109
101280.877
101282.798
101284.699
101286.631
101288.545
101290.543
101292.628
101294.711
101296.982
101299.45
101300.735
101301.771
101303.629
101249.772
101249.775
101249.781
101249.788
101249.798
101249.811
101249.826
101249.844
101249.865
101249.89
101249.917
101249.948
101249.983
101250.021
101250.062
101250.107
101250.155
101250.206
101250.261
101250.324
101250.388
101250.448
101250.513
101250.587
101250.663
101250.74
101250.82
101250.904
101250.992
101251.084
101251.182
101251.285
101251.396
101251.516
101251.647
101251.793
101251.956
101252.14
101252.351
101252.593
101252.873
101253.197
101253.573
101254.008
101254.509
101255.083
101255.735
101256.47
101257.292
101258.207
101259.212
101260.31
101261.484
101262.726
101264.09
101265.478
101266.934
101268.35
101269.639
101270.897
101272.058
101273.327
101274.724
101276.17
101277.74
101279.532
101281.408
101283.297
101285.22
101287.218
101289.164
101291.167
101293.121
101295.252
101297.622
101299.541
101300.766
101302.668
101304.893
101306.321
101247.782
101247.79
101247.802
101247.815
101247.832
101247.851
101247.874
101247.9
101247.93
101247.963
101248
101248.041
101248.085
101248.134
101248.185
101248.241
101248.305
101248.369
101248.433
101248.504
101248.58
101248.659
101248.741
101248.827
101248.916
101249.009
101249.107
101249.21
101249.318
101249.433
101249.556
101249.689
101249.834
101249.994
101250.171
101250.371
101250.598
101250.856
101251.152
101251.492
101251.883
101252.332
101252.844
101253.428
101254.088
101254.827
101255.645
101256.542
101257.518
101258.568
101259.695
101260.892
101262.17
101263.518
101264.862
101266.261
101267.689
101269.146
101270.746
101272.427
101273.984
101275.362
101276.816
101278.163
101279.808
101281.972
101284.093
101286.173
101288.211
101290.175
101292.08
101293.879
101295.644
101297.511
101299.729
101302.275
101304.196
101305.185
101306.694
101309.115
101245.486
101245.502
101245.521
101245.543
101245.568
101245.597
101245.63
101245.667
101245.708
101245.752
101245.801
101245.854
101245.912
101245.976
101246.042
101246.11
101246.185
101246.266
101246.349
101246.437
101246.528
101246.625
101246.725
101246.831
101246.941
101247.058
101247.181
101247.311
101247.451
101247.602
101247.766
101247.946
101248.145
101248.368
101248.618
101248.902
101249.224
101249.591
101250.008
101250.482
101251.02
101251.628
101252.311
101253.074
101253.918
101254.846
101255.858
101256.948
101258.112
101259.32
101260.514
101261.671
101262.92
101264.532
101266.265
101267.924
101269.709
101271.501
101273.257
101275.103
101277.002
101278.777
101280.664
101282.96
101284.9
101286.191
101287.53
101289.34
101291.111
101292.946
101295.099
101296.905
101298.951
101300.97
101302.794
101304.497
101305.671
101307.739
101310.29
101311.47
101242.841
101242.866
101242.895
101242.928
101242.965
101243.005
101243.05
101243.099
101243.153
101243.212
101243.277
101243.346
101243.418
101243.496
101243.58
101243.668
101243.761
101243.859
101243.962
101244.07
101244.184
101244.303
101244.429
101244.562
101244.702
101244.852
101245.013
101245.187
101245.375
101245.582
101245.811
101246.066
101246.35
101246.67
101247.03
101247.436
101247.894
101248.409
101248.986
101249.63
101250.342
101251.127
101251.982
101252.905
101253.875
101254.894
101255.939
101257.156
101258.76
101260.671
101262.691
101264.871
101267.08
101268.583
101269.789
101271.323
101272.896
101274.251
101275.668
101277.134
101278.558
101279.972
101281.558
101283.21
101284.918
101286.945
101289.225
101291.435
101293.509
101295.266
101296.895
101298.459
101300.028
101301.905
101304.286
101306.987
101309.028
101310.953
101313.16
101314.705
101239.785
101239.82
101239.863
101239.908
101239.958
101240.012
101240.072
101240.136
101240.205
101240.28
101240.36
101240.446
101240.537
101240.633
101240.735
101240.843
101240.957
101241.076
101241.202
101241.335
101241.476
101241.624
101241.782
101241.952
101242.133
101242.33
101242.545
101242.781
101243.041
101243.331
101243.654
101244.016
101244.423
101244.881
101245.395
101245.971
101246.614
101247.329
101248.119
101248.986
101249.93
101250.954
101252.054
101253.21
101254.401
101255.94
101258.048
101260.121
101261.503
101262.515
101263.863
101265.272
101266.671
101268.218
101269.906
101271.534
101273.248
101275.162
101276.738
101278.221
101279.771
101281.377
101283.112
101285.01
101287.053
101288.891
101290.644
101292.435
101294.144
101296.113
101298.597
101301.182
101303.261
101305.409
101307.313
101309.734
101311.935
101313.368
101315.608
101318.108
101236.275
101236.322
101236.379
101236.439
101236.503
101236.573
101236.647
101236.727
101236.813
101236.904
101237.001
101237.104
101237.213
101237.328
101237.449
101237.577
101237.712
101237.855
101238.006
101238.167
101238.338
101238.522
101238.72
101238.935
101239.17
101239.429
101239.715
101240.034
101240.39
101240.789
101241.237
101241.741
101242.306
101242.94
101243.646
101244.431
101245.298
101246.25
101247.287
101248.411
101249.62
101250.91
101252.28
101253.704
101255.164
101256.66
101258.153
101259.675
101261.471
101263.149
101264.639
101266.219
101267.69
101269.132
101270.631
101272.068
101273.508
101274.931
101277.029
101279.512
101281.503
101283.486
101285.463
101287.366
101289.158
101290.721
101292.639
101295.063
101297.5
101300.078
101301.924
101303.479
101305.447
101307.946
101310.269
101311.92
101313.97
101316.356
101317.365
101318.315
101232.288
101232.35
101232.423
101232.498
101232.578
101232.663
101232.753
101232.848
101232.95
101233.057
101233.169
101233.288
101233.414
101233.546
101233.686
101233.833
101233.989
101234.155
101234.333
101234.523
101234.729
101234.952
101235.197
101235.466
101235.764
101236.095
101236.466
101236.881
101237.347
101237.87
101238.457
101239.112
101239.843
101240.654
101241.549
101242.53
101243.6
101244.759
101246.005
101247.336
101248.747
101250.229
101251.767
101253.445
101255.301
101256.848
101258.163
101259.465
101260.903
101262.514
101264.077
101265.778
101267.675
101269.618
101271.557
101273.591
101275.695
101277.38
101278.545
101280.537
101282.912
101284.503
101286.277
101288.189
101290.202
101292.053
101294.322
101297.232
101299.571
101301.549
101303.677
101305.773
101307.771
101309.67
101311.451
101313.813
101316.718
101317.924
101319.2
101321.299
101227.873
101227.95
101228.04
101228.132
101228.227
101228.327
101228.432
101228.543
101228.659
101228.781
101228.909
101229.044
101229.186
101229.336
101229.494
101229.663
101229.843
101230.036
101230.245
101230.472
101230.721
101230.995
101231.298
101231.636
101232.014
101232.436
101232.91
101233.441
101234.035
101234.697
101235.434
101236.248
101237.144
101238.124
101239.189
101240.338
101241.573
101242.89
101244.29
101245.776
101247.349
101249.009
101250.751
101252.503
101254.167
101255.86
101257.525
101259.151
101260.757
101262.462
101264.194
101266.252
101268.793
101271.014
101273.265
101275.687
101278.17
101281.346
101283.44
101283.714
101284.53
101286.586
101288.473
101290.543
101292.549
101295.041
101296.966
101298.058
101299.674
101302.646
101305.523
101308.17
101310.712
101313.394
101316.545
101318.715
101319.96
101321.699
101324.575
101326.791
101223.139
101223.232
101223.34
101223.449
101223.56
101223.676
101223.797
101223.924
101224.056
101224.195
101224.341
101224.495
101224.658
101224.831
101225.017
101225.217
101225.433
101225.669
101225.927
101226.213
101226.53
101226.883
101227.278
101227.72
101228.217
101228.772
101229.394
101230.087
101230.856
101231.705
101232.637
101233.653
101234.752
101235.934
101237.191
101238.517
101239.896
101241.334
101242.789
101244.211
101245.59
101247.406
101249.82
101252.289
101254.835
101257.453
101260.038
101262.433
101264.774
101267.562
101270.809
101272.743
101273.922
101275.293
101276.756
101278.282
101279.527
101280.566
101283.108
101286.122
101286.955
101288.258
101291.354
101293.826
101295.929
101298.127
101301.278
101304.887
101306.86
101308.227
101309.828
101311.61
101313.507
101315.431
101317.111
101319.576
101322.814
101324.716
101326.763
101328.927
101218.259
101218.368
101218.494
101218.619
101218.747
101218.88
101219.019
101219.164
101219.317
101219.478
101219.648
101219.83
101220.025
101220.235
101220.464
101220.714
101220.989
101221.294
101221.632
101222.011
101222.435
101222.91
101223.443
101224.041
101224.709
101225.453
101226.278
101227.189
101228.188
101229.278
101230.458
101231.728
101233.086
101234.53
101236.051
101237.639
101239.313
101241.274
101243.919
101247.063
101250.377
101252.809
101254.46
101256.085
101257.792
101259.818
101261.857
101263.786
101265.633
101267.435
101269.299
101271.341
101273.487
101275.525
101277.376
101279.389
101282.143
101284.651
101286.537
101288.401
101290.123
101291.41
101293.074
101295.841
101299.31
101302.586
101304.77
101305.894
101307.608
101310.673
101313.327
101315.329
101317.084
101318.91
101321.385
101324.001
101325.622
101327.6
101329.601
101331.605
101270.692
101270.693
101270.693
101270.692
101270.69
101270.686
101270.682
101270.676
101270.668
101270.66
101270.65
101270.638
101270.625
101270.611
101270.595
101270.577
101270.557
101270.535
101270.512
101270.486
101270.458
101270.428
101270.395
101270.36
101270.322
101270.282
101270.238
101270.192
101270.143
101270.09
101270.034
101269.975
101269.912
101269.846
101269.776
101269.701
101269.623
101269.54
101269.453
101269.361
101269.264
101269.162
101269.055
101268.942
101268.823
101268.697
101268.565
101268.424
101268.275
101268.116
101267.946
101267.762
101267.562
101267.34
101267.093
101266.813
101266.492
101266.12
101265.682
101265.165
101264.552
101263.826
101262.975
101261.994
101260.886
101259.66
101258.319
101256.855
101255.234
101253.382
101251.242
101248.723
101245.813
101242.846
101239.684
101236.322
101232.788
101228.831
101224.146
101218.107
101267.923
101267.925
101267.926
101267.925
101267.922
101267.918
101267.912
101267.905
101267.896
101267.885
101267.873
101267.858
101267.842
101267.824
101267.803
101267.78
101267.755
101267.727
101267.697
101267.664
101267.629
101267.59
101267.549
101267.504
101267.456
101267.404
101267.348
101267.289
101267.226
101267.158
101267.086
101267.01
101266.929
101266.843
101266.752
101266.655
101266.553
101266.445
101266.331
101266.21
101266.082
101265.947
101265.804
101265.653
101265.492
101265.323
101265.142
101264.95
101264.745
101264.525
101264.288
101264.029
101263.744
101263.428
101263.077
101262.682
101262.234
101261.721
101261.131
101260.445
101259.647
101258.717
101257.641
101256.411
101255.024
101253.482
101251.787
101249.944
101247.993
101245.419
101242.711
101239.639
101236.514
101233.461
101229.125
101223.992
101219.437
101214.818
101208.903
101201.591
101265.4
101265.402
101265.404
101265.404
101265.401
101265.397
101265.391
101265.383
101265.373
101265.361
101265.347
101265.33
101265.311
101265.29
101265.266
101265.239
101265.21
101265.177
101265.142
101265.103
101265.061
101265.016
101264.967
101264.914
101264.857
101264.796
101264.73
101264.66
101264.584
101264.504
101264.419
101264.328
101264.231
101264.128
101264.019
101263.902
101263.779
101263.649
101263.511
101263.364
101263.209
101263.044
101262.869
101262.683
101262.486
101262.276
101262.052
101261.812
101261.555
101261.276
101260.972
101260.639
101260.273
101259.867
101259.415
101258.908
101258.336
101257.686
101256.944
101256.094
101255.118
101254
101252.724
101251.281
101249.661
101247.851
101245.819
101243.526
101240.965
101238.337
101235.461
101232.316
101228.992
101224.953
101219.991
101215.041
101209.392
101203.233
101196.305
101189.782
101263.156
101263.16
101263.163
101263.164
101263.162
101263.158
101263.152
101263.144
101263.134
101263.121
101263.106
101263.088
101263.067
101263.044
101263.017
101262.988
101262.955
101262.92
101262.88
101262.837
101262.791
101262.74
101262.685
101262.626
101262.562
101262.494
101262.42
101262.341
101262.257
101262.167
101262.071
101261.968
101261.859
101261.743
101261.619
101261.488
101261.349
101261.201
101261.044
101260.877
101260.699
101260.511
101260.31
101260.097
101259.869
101259.625
101259.365
101259.085
101258.782
101258.452
101258.091
101257.696
101257.26
101256.777
101256.24
101255.639
101254.963
101254.199
101253.333
101252.349
101251.232
101249.967
101248.542
101246.948
101245.184
101243.241
101241.104
101238.747
101236.147
101233.18
101229.764
101226.223
101222.596
101218.369
101213.287
101206.796
101201.084
101195.848
101186.867
101177.396
101261.236
101261.241
101261.245
101261.247
101261.247
101261.244
101261.238
101261.231
101261.22
101261.208
101261.192
101261.174
101261.152
101261.128
101261.1
101261.07
101261.035
101260.997
101260.956
101260.91
101260.861
101260.807
101260.748
101260.685
101260.617
101260.544
101260.465
101260.381
101260.291
101260.195
101260.092
101259.982
101259.865
101259.741
101259.609
101259.47
101259.321
101259.163
101258.996
101258.819
101258.631
101258.431
101258.22
101257.994
101257.755
101257.499
101257.226
101256.932
101256.615
101256.269
101255.893
101255.481
101255.026
101254.522
101253.961
101253.331
101252.622
101251.818
101250.904
101249.864
101248.679
101247.329
101245.797
101244.064
101242.111
101239.909
101237.415
101234.561
101231.218
101227.406
101223.245
101219.493
101215.77
101211.572
101206.791
101201.513
101194.704
101186.519
101177.964
101169.325
101259.654
101259.66
101259.666
101259.669
101259.67
101259.668
101259.664
101259.657
101259.648
101259.636
101259.62
101259.603
101259.581
101259.557
101259.53
101259.499
101259.465
101259.426
101259.384
101259.338
101259.288
101259.233
101259.173
101259.109
101259.039
101258.964
101258.884
101258.797
101258.705
101258.606
101258.5
101258.388
101258.268
101258.141
101258.005
101257.861
101257.708
101257.546
101257.373
101257.19
101256.995
101256.787
101256.566
101256.33
101256.078
101255.81
101255.521
101255.21
101254.874
101254.509
101254.111
101253.677
101253.199
101252.672
101252.087
101251.436
101250.706
101249.884
101248.955
101247.902
101246.708
101245.355
101243.833
101242.13
101240.246
101238.187
101235.877
101233.356
101230.712
101227.621
101223.752
101218.628
101214.266
101210.776
101205.006
101195.85
101187.956
101180.756
101171.767
101163.664
101258.429
101258.437
101258.444
101258.448
101258.45
101258.45
101258.446
101258.441
101258.432
101258.421
101258.407
101258.39
101258.37
101258.347
101258.32
101258.29
101258.257
101258.219
101258.178
101258.132
101258.083
101258.029
101257.97
101257.907
101257.838
101257.765
101257.685
101257.601
101257.51
101257.414
101257.311
101257.201
101257.085
101256.962
101256.832
101256.694
101256.549
101256.395
101256.233
101256.06
101255.875
101255.68
101255.474
101255.256
101255.025
101254.78
101254.519
101254.24
101253.94
101253.614
101253.258
101252.866
101252.432
101251.948
101251.405
101250.793
101250.099
101249.312
101248.416
101247.392
101246.218
101244.871
101243.324
101241.547
101239.491
101237.172
101235.083
101232.698
101229.27
101226.015
101223.215
101220.475
101216.82
101210.225
101202.554
101195.53
101187.442
101177.39
101168.687
101160.848
101257.556
101257.564
101257.572
101257.577
101257.58
101257.58
101257.578
101257.574
101257.567
101257.557
101257.544
101257.528
101257.51
101257.488
101257.463
101257.435
101257.403
101257.368
101257.328
101257.285
101257.238
101257.186
101257.131
101257.07
101257.004
101256.934
101256.858
101256.777
101256.69
101256.598
101256.499
101256.394
101256.283
101256.164
101256.039
101255.906
101255.766
101255.618
101255.461
101255.295
101255.12
101254.935
101254.739
101254.532
101254.311
101254.077
101253.825
101253.56
101253.281
101252.98
101252.653
101252.298
101251.909
101251.482
101251.008
101250.48
101249.885
101249.213
101248.449
101247.581
101246.592
101245.466
101244.185
101242.741
101241.13
101239.311
101236.901
101234.165
101231.58
101228.319
101224.047
101218.899
101212.385
101207.039
101202.061
101195.307
101186.897
101177.164
101169.036
101162.324
101257.027
101257.035
101257.043
101257.049
101257.052
101257.053
101257.052
101257.048
101257.042
101257.033
101257.022
101257.007
101256.991
101256.971
101256.948
101256.922
101256.893
101256.861
101256.825
101256.785
101256.742
101256.694
101256.643
101256.588
101256.528
101256.463
101256.394
101256.321
101256.242
101256.159
101256.071
101255.977
101255.878
101255.774
101255.664
101255.548
101255.427
101255.299
101255.165
101255.024
101254.876
101254.722
101254.559
101254.388
101254.207
101254.017
101253.815
101253.599
101253.367
101253.117
101252.846
101252.549
101252.221
101251.858
101251.453
101250.999
101250.489
101249.91
101249.25
101248.494
101247.626
101246.632
101245.488
101244.176
101242.674
101240.97
101238.967
101236.68
101234.143
101231.248
101227.824
101223.823
101219.25
101213.466
101207.209
101200.881
101194.359
101187.431
101178.724
101169.065
101256.812
101256.819
101256.827
101256.832
101256.835
101256.836
101256.835
101256.832
101256.826
101256.819
101256.809
101256.796
101256.781
101256.764
101256.744
101256.721
101256.695
101256.666
101256.634
101256.599
101256.561
101256.519
101256.474
101256.425
101256.373
101256.317
101256.257
101256.193
101256.126
101256.054
101255.978
101255.898
101255.813
101255.725
101255.632
101255.534
101255.433
101255.326
101255.216
101255.1
101254.981
101254.856
101254.726
101254.591
101254.45
101254.303
101254.15
101253.988
101253.817
101253.635
101253.438
101253.225
101252.993
101252.736
101252.449
101252.126
101251.757
101251.334
101250.842
101250.268
101249.598
101248.816
101247.904
101246.841
101245.606
101244.171
101242.504
101240.572
101238.342
101235.766
101232.798
101229.369
101225.433
101220.847
101215.264
101208.942
101202.25
101195.5
101188.146
101180.884
101256.877
101256.883
101256.888
101256.892
101256.894
101256.895
101256.893
101256.89
101256.885
101256.878
101256.869
101256.858
101256.845
101256.829
101256.812
101256.792
101256.77
101256.745
101256.718
101256.689
101256.657
101256.622
101256.585
101256.545
101256.501
101256.455
101256.406
101256.354
101256.299
101256.242
101256.181
101256.118
101256.053
101255.984
101255.913
101255.84
101255.764
101255.686
101255.607
101255.525
101255.442
101255.357
101255.271
101255.183
101255.093
101255.002
101254.909
101254.813
101254.714
101254.61
101254.499
101254.379
101254.247
101254.101
101253.936
101253.746
101253.525
101253.265
101252.956
101252.587
101252.143
101251.611
101250.971
101250.206
101249.291
101248.201
101246.91
101245.389
101243.603
101241.514
101239.077
101236.232
101232.891
101229.017
101224.406
101219.14
101212.985
101206.357
101198.921
101191.626
101257.172
101257.175
101257.178
101257.18
101257.181
101257.18
101257.178
101257.174
101257.169
101257.163
101257.155
101257.145
101257.134
101257.121
101257.107
101257.091
101257.073
101257.053
101257.031
101257.008
101256.982
101256.955
101256.926
101256.895
101256.862
101256.827
101256.791
101256.752
101256.712
101256.67
101256.627
101256.581
101256.534
101256.485
101256.434
101256.385
101256.338
101256.29
101256.243
101256.195
101256.149
101256.104
101256.06
101256.019
101255.98
101255.944
101255.911
101255.881
101255.855
101255.831
101255.809
101255.787
101255.764
101255.737
101255.704
101255.661
101255.601
101255.52
101255.408
101255.257
101255.054
101254.786
101254.438
101253.99
101253.424
101252.714
101251.837
101250.764
101249.465
101247.906
101246.056
101243.869
101241.286
101238.254
101234.668
101230.492
101225.596
101220.063
101213.967
101206.422
101257.638
101257.639
101257.639
101257.638
101257.636
101257.633
101257.63
101257.625
101257.62
101257.613
101257.606
101257.597
101257.587
101257.577
101257.565
101257.552
101257.538
101257.522
101257.506
101257.489
101257.47
101257.45
101257.429
101257.407
101257.385
101257.362
101257.337
101257.312
101257.287
101257.262
101257.237
101257.213
101257.19
101257.167
101257.143
101257.118
101257.092
101257.067
101257.043
101257.026
101257.019
101257.015
101257.015
101257.02
101257.031
101257.048
101257.073
101257.106
101257.149
101257.2
101257.262
101257.332
101257.411
101257.497
101257.588
101257.682
101257.775
101257.862
101257.937
101257.993
101258.019
101258.004
101257.935
101257.794
101257.564
101257.224
101256.749
101256.113
101255.286
101254.246
101252.963
101251.404
101249.529
101247.289
101244.617
101241.442
101237.709
101233.487
101228.515
101222.518
101258.209
101258.206
101258.202
101258.198
101258.194
101258.189
101258.184
101258.178
101258.172
101258.165
101258.158
101258.15
101258.142
101258.133
101258.124
101258.114
101258.104
101258.093
101258.082
101258.07
101258.058
101258.046
101258.034
101258.021
101258.009
101257.996
101257.984
101257.971
101257.96
101257.949
101257.94
101257.931
101257.925
101257.922
101257.924
101257.93
101257.942
101257.958
101257.976
101257.99
101258.003
101258.02
101258.044
101258.085
101258.144
101258.213
101258.291
101258.38
101258.483
101258.6
101258.733
101258.882
101259.047