/*--------------------------------*- C++ -*----------------------------------*\
  =========                 |
  \\      /  F ield         | OpenFOAM: The Open Source CFD Toolbox
   \\    /   O peration     | Website:  https://openfoam.org
    \\  /    A nd           | Version:  8
     \\/     M anipulation  |
\*---------------------------------------------------------------------------*/
FoamFile
{
    version     2.0;
    format      ascii;
    class       volScalarField;
    location    "0.009";
    object      p_rgh;
}
// * * * * * * * * * * * * * * * * * * * * * * * * * * * * * * * * * * * * * //

dimensions      [1 -1 -2 0 0 0 0];

internalField   nonuniform List<scalar> 
42400
(
101259.383
101259.373
101259.362
101259.352
101259.344
101259.337
101259.331
101259.326
101259.322
101259.32
101259.319
101259.319
101259.321
101259.324
101259.329
101259.335
101259.343
101259.352
101259.363
101259.376
101259.39
101259.406
101259.424
101259.443
101259.464
101259.487
101259.513
101259.54
101259.569
101259.6
101259.634
101259.67
101259.709
101259.751
101259.801
101259.861
101259.926
101259.987
101260.039
101260.092
101260.151
101260.225
101260.31
101260.401
101260.499
101260.603
101260.714
101260.829
101260.959
101261.112
101261.286
101261.452
101261.607
101261.79
101262.001
101262.227
101262.463
101262.713
101262.976
101263.245
101263.526
101263.825
101264.137
101264.452
101264.761
101265.049
101265.349
101265.673
101265.916
101266.252
101266.78
101266.633
101266.746
101267.24
101267.11
101267.498
101269.745
101268.995
101268.035
101269.217
101258.955
101258.947
101258.939
101258.931
101258.925
101258.92
101258.916
101258.913
101258.911
101258.91
101258.911
101258.913
101258.916
101258.92
101258.926
101258.934
101258.943
101258.953
101258.965
101258.979
101258.994
101259.011
101259.029
101259.049
101259.071
101259.094
101259.119
101259.146
101259.174
101259.204
101259.236
101259.274
101259.318
101259.366
101259.412
101259.45
101259.486
101259.529
101259.583
101259.642
101259.705
101259.772
101259.844
101259.919
101259.994
101260.086
101260.207
101260.336
101260.43
101260.523
101260.654
101260.808
101260.969
101261.142
101261.33
101261.53
101261.746
101261.983
101262.25
101262.55
101262.868
101263.202
101263.555
101263.936
101264.344
101264.739
101265.155
101265.626
101266.116
101266.532
101267.248
101267.426
101267.301
101269.476
101273.129
101273.967
101272.803
101272.927
101276.189
101278.906
101258.394
101258.388
101258.382
101258.376
101258.372
101258.368
101258.366
101258.364
101258.364
101258.365
101258.367
101258.37
101258.374
101258.38
101258.388
101258.396
101258.407
101258.419
101258.432
101258.447
101258.464
101258.482
101258.502
101258.523
101258.546
101258.571
101258.596
101258.624
101258.656
101258.691
101258.73
101258.765
101258.795
101258.826
101258.859
101258.9
101258.947
101258.996
101259.046
101259.1
101259.155
101259.208
101259.275
101259.365
101259.442
101259.501
101259.577
101259.674
101259.783
101259.893
101260.012
101260.143
101260.286
101260.444
101260.627
101260.842
101261.085
101261.357
101261.659
101262
101262.389
101262.829
101263.318
101263.857
101264.463
101265.085
101265.754
101266.445
101267.321
101267.928
101269.041
101272.475
101274.863
101274.967
101274.756
101275.951
101277.414
101279.256
101281.679
101283.987
101257.729
101257.724
101257.719
101257.715
101257.712
101257.709
101257.708
101257.707
101257.708
101257.71
101257.714
101257.718
101257.724
101257.732
101257.741
101257.751
101257.763
101257.777
101257.793
101257.81
101257.829
101257.849
101257.87
101257.893
101257.918
101257.945
101257.975
101258.006
101258.036
101258.066
101258.098
101258.133
101258.172
101258.213
101258.254
101258.297
101258.342
101258.387
101258.429
101258.482
101258.555
101258.614
101258.654
101258.71
101258.783
101258.858
101258.936
101259.02
101259.11
101259.21
101259.323
101259.457
101259.614
101259.793
101259.996
101260.234
101260.516
101260.846
101261.234
101261.684
101262.205
101262.801
101263.484
101264.243
101265.134
101266.096
101267.152
101268.304
101269.809
101272.506
101273.753
101273.69
101274.965
101276.745
101278.406
101280.128
101281.708
101283.932
101286.286
101288.074
101256.964
101256.96
101256.955
101256.952
101256.949
101256.948
101256.948
101256.948
101256.95
101256.953
101256.958
101256.964
101256.972
101256.981
101256.992
101257.005
101257.019
101257.036
101257.053
101257.071
101257.091
101257.114
101257.139
101257.168
101257.197
101257.228
101257.26
101257.294
101257.33
101257.368
101257.406
101257.446
101257.487
101257.529
101257.571
101257.61
101257.658
101257.724
101257.775
101257.808
101257.857
101257.919
101257.98
101258.041
101258.105
101258.175
101258.253
101258.342
101258.445
101258.561
101258.693
101258.846
101259.028
101259.246
101259.509
101259.82
101260.186
101260.615
101261.117
101261.703
101262.39
101263.175
101264.099
101265.121
101266.337
101267.636
101268.958
101270.956
101272.193
101273.05
101274.806
101276.572
101278.109
101279.663
101281.09
101282.53
101284.486
101286.531
101288.409
101290.066
101256.104
101256.1
101256.096
101256.093
101256.091
101256.091
101256.091
101256.093
101256.096
101256.1
101256.106
101256.114
101256.123
101256.135
101256.148
101256.163
101256.179
101256.198
101256.22
101256.245
101256.273
101256.301
101256.332
101256.363
101256.397
101256.432
101256.469
101256.507
101256.547
101256.588
101256.631
101256.674
101256.714
101256.762
101256.825
101256.876
101256.91
101256.959
101257.018
101257.076
101257.133
101257.193
101257.258
101257.33
101257.41
101257.497
101257.595
101257.705
101257.834
101257.986
101258.167
101258.384
101258.642
101258.949
101259.307
101259.724
101260.207
101260.766
101261.407
101262.142
101262.967
101263.886
101264.726
101265.612
101267.269
101269.83
101271.47
101272.363
101273.738
101275.38
101276.88
101278.404
101280.014
101281.714
101283.416
101285.2
101287.113
101288.966
101290.884
101292.509
101255.129
101255.125
101255.121
101255.119
101255.118
101255.119
101255.12
101255.124
101255.129
101255.136
101255.144
101255.154
101255.166
101255.181
101255.198
101255.217
101255.24
101255.263
101255.289
101255.317
101255.347
101255.38
101255.414
101255.451
101255.489
101255.53
101255.572
101255.616
101255.662
101255.705
101255.754
101255.818
101255.873
101255.913
101255.963
101256.025
101256.085
101256.146
101256.209
101256.277
101256.349
101256.427
101256.512
101256.606
101256.713
101256.836
101256.978
101257.145
101257.342
101257.575
101257.851
101258.176
101258.555
101258.992
101259.495
101260.067
101260.719
101261.447
101262.256
101263.095
101263.906
101265.366
101267.739
101269.863
101270.981
101271.199
101272.166
101274.025
101275.888
101277.66
101279.487
101281.54
101283.463
101285.141
101286.889
101288.75
101290.691
101292.826
101295.118
101297.73
101254.026
101254.022
101254.02
101254.018
101254.019
101254.02
101254.024
101254.029
101254.037
101254.047
101254.059
101254.073
101254.089
101254.108
101254.129
101254.152
101254.178
101254.206
101254.238
101254.271
101254.307
101254.345
101254.386
101254.429
101254.475
101254.522
101254.568
101254.617
101254.68
101254.742
101254.787
101254.837
101254.902
101254.967
101255.032
101255.1
101255.171
101255.247
101255.328
101255.416
101255.512
101255.62
101255.742
101255.882
101256.044
101256.232
101256.453
101256.713
101257.019
101257.379
101257.797
101258.279
101258.835
101259.465
101260.186
101260.986
101261.899
101262.825
101264
101265.804
101268.057
101269.765
101270.569
101271.311
101272.504
101274.186
101275.871
101277.359
101279.044
101280.772
101282.376
101283.936
101285.623
101287.418
101289.218
101291.332
101293.476
101295.418
101297.24
101299.193
101252.763
101252.761
101252.76
101252.761
101252.763
101252.767
101252.773
101252.782
101252.793
101252.805
101252.821
101252.839
101252.859
101252.882
101252.908
101252.937
101252.969
101253.004
101253.041
101253.081
101253.124
101253.169
101253.217
101253.265
101253.316
101253.38
101253.445
101253.496
101253.55
101253.618
101253.687
101253.756
101253.827
101253.902
101253.981
101254.066
101254.156
101254.255
101254.364
101254.485
101254.622
101254.778
101254.958
101255.167
101255.412
101255.698
101256.034
101256.426
101256.88
101257.402
101257.998
101258.672
101259.429
101260.261
101261.169
101262.127
101263.33
101265.234
101267.07
101268.058
101268.848
101270.03
101271.443
101273.215
101274.979
101276.698
101278.519
101280.052
101281.294
101282.754
101284.359
101285.812
101287.493
101289.446
101291.295
101293.352
101295.678
101297.845
101299.987
101301.793
101251.317
101251.317
101251.319
101251.322
101251.327
101251.335
101251.344
101251.357
101251.371
101251.389
101251.409
101251.432
101251.459
101251.488
101251.521
101251.556
101251.595
101251.636
101251.681
101251.729
101251.778
101251.831
101251.894
101251.958
101252.014
101252.072
101252.142
101252.214
101252.287
101252.362
101252.441
101252.524
101252.612
101252.705
101252.805
101252.914
101253.034
101253.167
101253.317
101253.488
101253.684
101253.912
101254.176
101254.485
101254.845
101255.265
101255.751
101256.309
101256.95
101257.678
101258.501
101259.425
101260.452
101261.608
101262.834
101264.267
101265.565
101266.536
101267.725
101269.366
101271.191
101272.718
101273.964
101275.222
101276.49
101277.688
101279.138
101280.88
101282.74
101284.588
101286.483
101288.378
101290.416
101292.554
101294.675
101296.912
101299.071
101300.372
101301.816
101303.891
101249.646
101249.649
101249.654
101249.662
101249.671
101249.684
101249.699
101249.717
101249.738
101249.762
101249.789
101249.82
101249.854
101249.891
101249.932
101249.976
101250.024
101250.074
101250.128
101250.191
101250.254
101250.313
101250.378
101250.45
101250.525
101250.602
101250.681
101250.764
101250.851
101250.942
101251.039
101251.141
101251.251
101251.371
101251.501
101251.646
101251.809
101251.993
101252.204
101252.447
101252.727
101253.053
101253.43
101253.866
101254.37
101254.947
101255.602
101256.342
101257.171
101258.094
101259.109
101260.219
101261.405
101262.671
101264.04
101265.402
101266.859
101268.314
101269.598
101270.823
101272.012
101273.324
101274.701
101276.12
101277.681
101279.446
101281.339
101283.245
101285.189
101287.195
101289.14
101291.154
101293.122
101295.25
101297.51
101299.316
101300.827
101302.866
101304.908
101306.391
101247.717
101247.725
101247.736
101247.75
101247.766
101247.786
101247.808
101247.834
101247.863
101247.896
101247.933
101247.973
101248.017
101248.065
101248.115
101248.171
101248.234
101248.297
101248.36
101248.431
101248.506
101248.584
101248.665
101248.75
101248.838
101248.93
101249.027
101249.128
101249.236
101249.349
101249.471
101249.603
101249.747
101249.906
101250.083
101250.282
101250.508
101250.766
101251.062
101251.402
101251.793
101252.242
101252.756
101253.341
101254.004
101254.745
101255.567
101256.47
101257.452
101258.51
101259.644
101260.845
101262.121
101263.459
101264.801
101266.189
101267.601
101269.054
101270.624
101272.251
101273.785
101275.221
101276.754
101278.203
101279.86
101281.972
101284.053
101286.056
101288.044
101289.98
101291.889
101293.733
101295.496
101297.41
101299.731
101302.198
101303.954
101305.099
101306.865
101309.071
101245.483
101245.498
101245.518
101245.54
101245.565
101245.594
101245.626
101245.662
101245.703
101245.747
101245.795
101245.848
101245.905
101245.968
101246.034
101246.101
101246.175
101246.255
101246.337
101246.424
101246.515
101246.61
101246.709
101246.813
101246.922
101247.037
101247.159
101247.288
101247.426
101247.575
101247.737
101247.915
101248.113
101248.334
101248.583
101248.865
101249.185
101249.55
101249.966
101250.439
101250.976
101251.582
101252.263
101253.025
101253.868
101254.793
101255.802
101256.89
101258.058
101259.278
101260.508
101261.723
101263.002
101264.536
101266.139
101267.742
101269.53
101271.3
101273.062
101274.931
101276.746
101278.382
101280.211
101282.364
101284.311
101285.794
101287.268
101289.119
101290.948
101292.857
101295.046
101296.977
101299.108
101301.135
101302.929
101304.559
101305.862
101307.95
101310.209
101311.553
101242.901
101242.925
101242.955
101242.987
101243.024
101243.064
101243.109
101243.157
101243.211
101243.27
101243.334
101243.402
101243.473
101243.551
101243.634
101243.721
101243.813
101243.91
101244.012
101244.119
101244.231
101244.349
101244.473
101244.604
101244.743
101244.891
101245.05
101245.222
101245.409
101245.613
101245.84
101246.092
101246.374
101246.691
101247.049
101247.453
101247.909
101248.421
101248.997
101249.638
101250.35
101251.134
101251.99
101252.913
101253.887
101254.913
101255.965
101257.13
101258.637
101260.46
101262.388
101264.448
101266.55
101268.21
101269.71
101271.369
101272.919
101274.308
101275.74
101277.19
101278.659
101280.163
101281.839
101283.615
101285.395
101287.325
101289.488
101291.656
101293.628
101295.385
101297.098
101298.707
101300.311
101302.237
101304.55
101307.074
101309.007
101310.947
101313.115
101314.629
101239.908
101239.943
101239.985
101240.03
101240.08
101240.134
101240.193
101240.257
101240.326
101240.4
101240.48
101240.565
101240.656
101240.751
101240.853
101240.959
101241.072
101241.191
101241.315
101241.447
101241.586
101241.733
101241.89
101242.058
101242.238
101242.433
101242.646
101242.879
101243.138
101243.424
101243.745
101244.105
101244.509
101244.963
101245.473
101246.045
101246.684
101247.393
101248.178
101249.038
101249.976
101250.993
101252.082
101253.227
101254.414
101255.922
101257.988
101260.134
101261.638
101262.724
101264.006
101265.397
101266.844
101268.403
101270.101
101271.755
101273.414
101275.211
101276.8
101278.325
101279.879
101281.51
101283.265
101285.146
101287.149
101288.949
101290.709
101292.557
101294.393
101296.504
101298.891
101301.228
101303.227
101305.327
101307.371
101309.81
101311.901
101313.514
101315.779
101318.091
101236.459
101236.507
101236.564
101236.624
101236.688
101236.757
101236.831
101236.911
101236.996
101237.087
101237.184
101237.286
101237.395
101237.509
101237.63
101237.757
101237.892
101238.034
101238.184
101238.344
101238.514
101238.697
101238.895
101239.109
101239.343
101239.6
101239.886
101240.203
101240.558
101240.955
101241.402
101241.904
101242.467
101243.098
101243.802
101244.584
101245.448
101246.397
101247.431
101248.551
101249.756
101251.041
101252.403
101253.813
101255.305
101256.819
101258.257
101259.703
101261.397
101263.095
101264.739
101266.342
101267.789
101269.223
101270.7
101272.131
101273.681
101275.438
101277.519
101279.793
101281.738
101283.688
101285.639
101287.521
101289.342
101290.981
101292.896
101295.261
101297.595
101300.006
101301.906
101303.656
101305.792
101308.309
101310.467
101312.194
101314.36
101316.389
101317.547
101318.831
101232.532
101232.594
101232.667
101232.742
101232.821
101232.906
101232.996
101233.091
101233.192
101233.299
101233.412
101233.531
101233.656
101233.788
101233.927
101234.075
101234.231
101234.397
101234.574
101234.764
101234.97
101235.193
101235.438
101235.707
101236.005
101236.338
101236.709
101237.125
101237.592
101238.116
101238.704
101239.361
101240.094
101240.907
101241.804
101242.788
101243.861
101245.023
101246.273
101247.609
101249.025
101250.514
101252.068
101253.763
101255.591
101257.183
101258.565
101259.906
101261.354
101262.926
101264.469
101266.131
101267.968
101269.845
101271.72
101273.689
101275.707
101277.358
101278.799
101280.922
101283.145
101284.823
101286.666
101288.603
101290.573
101292.377
101294.656
101297.443
101299.854
101302.042
101304.127
101306.157
101308.144
101310.045
101311.833
101314.165
101316.803
101318.157
101319.531
101321.395
101228.167
101228.245
101228.335
101228.426
101228.521
101228.621
101228.726
101228.837
101228.952
101229.074
101229.202
101229.336
101229.478
101229.627
101229.786
101229.954
101230.134
101230.327
101230.535
101230.763
101231.011
101231.285
101231.589
101231.927
101232.305
101232.728
101233.203
101233.735
101234.33
101234.995
101235.734
101236.551
101237.45
101238.434
101239.503
101240.657
101241.896
101243.217
101244.618
101246.101
101247.666
101249.313
101251.037
101252.78
101254.48
101256.204
101257.912
101259.618
101261.318
101263.08
101264.797
101266.717
101269.039
101271.138
101273.205
101275.556
101278.22
101281.131
101283.024
101283.757
101284.899
101286.804
101288.686
101290.723
101292.769
101295.171
101297.093
101298.482
101300.429
101303.217
101305.932
101308.437
101310.838
101313.453
101316.625
101318.758
101320.121
101321.905
101324.461
101326.551
101223.475
101223.568
101223.676
101223.784
101223.895
101224.011
101224.131
101224.257
101224.389
101224.527
101224.673
101224.826
101224.988
101225.16
101225.345
101225.543
101225.758
101225.992
101226.249
101226.533
101226.848
101227.199
101227.592
101228.032
101228.526
101229.079
101229.698
101230.388
101231.154
101232
101232.93
101233.944
101235.043
101236.224
101237.485
101238.819
101240.214
101241.671
101243.158
101244.632
101246.069
101247.797
101250.017
101252.401
101254.856
101257.374
101259.892
101262.217
101264.449
101267.116
101270.151
101272.228
101273.81
101275.584
101277.4
101278.893
101279.94
101281.215
101283.836
101286.231
101287.233
101288.865
101291.662
101294.036
101296.178
101298.505
101301.521
101304.643
101306.504
101308.088
101310.012
101312.052
101314.148
101316.145
101317.797
101320.292
101323.384
101325.217
101327.28
101329.351
101218.633
101218.742
101218.867
101218.992
101219.12
101219.252
101219.39
101219.535
101219.686
101219.846
101220.015
101220.196
101220.389
101220.598
101220.825
101221.073
101221.346
101221.648
101221.984
101222.36
101222.781
101223.252
101223.782
101224.375
101225.038
101225.776
101226.595
101227.499
101228.49
101229.569
101230.737
101231.991
101233.329
101234.746
101236.231
101237.776
101239.391
101241.291
101243.822
101246.825
101250.008
101252.611
101254.589
101256.419
101258.322
101260.493
101262.588
101264.515
101266.375
101268.215
101270.073
101272.019
101274.032
101275.973
101277.741
101279.819
101282.603
101284.929
101286.692
101288.478
101290.01
101291.437
101293.499
101296.307
101299.606
101302.712
101305.067
101306.741
101308.82
101311.7
101314.053
101315.798
101317.468
101319.297
101321.733
101324.202
101325.953
101328.118
101330.101
101332.042
101271.792
101271.793
101271.793
101271.792
101271.79
101271.787
101271.782
101271.776
101271.769
101271.761
101271.752
101271.741
101271.729
101271.715
101271.699
101271.682
101271.664
101271.643
101271.62
101271.596
101271.569
101271.541
101271.51
101271.476
101271.44
101271.402
101271.361
101271.317
101271.27
101271.22
101271.167
101271.111
101271.051
101270.988
101270.921
101270.851
101270.777
101270.698
101270.616
101270.529
101270.437
101270.341
101270.24
101270.133
101270.021
101269.902
101269.777
101269.645
101269.504
101269.354
101269.193
101269.019
101268.83
101268.62
101268.385
101268.119
101267.812
101267.454
101267.032
101266.53
101265.931
101265.219
101264.379
101263.406
101262.301
101261.074
101259.732
101258.267
101256.651
101254.817
101252.702
101250.21
101247.323
101244.276
101241.063
101237.607
101233.959
101229.965
101225.232
101219.005
101268.917
101268.919
101268.919
101268.918
101268.916
101268.912
101268.907
101268.899
101268.891
101268.88
101268.868
101268.854
101268.838
101268.82
101268.801
101268.778
101268.754
101268.727
101268.698
101268.667
101268.632
101268.595
101268.554
101268.511
101268.464
101268.414
101268.361
101268.304
101268.242
101268.177
101268.108
101268.034
101267.956
101267.873
101267.785
101267.692
101267.593
101267.489
101267.378
101267.262
101267.139
101267.009
101266.871
101266.725
101266.571
101266.408
101266.234
101266.049
101265.851
101265.64
101265.411
101265.161
101264.885
101264.58
101264.239
101263.855
101263.418
101262.917
101262.338
101261.664
101260.877
101259.957
101258.89
101257.665
101256.28
101254.738
101253.037
101251.182
101249.203
101246.743
101244.014
101240.892
101237.651
101234.55
101230.413
101225.293
101220.381
101215.616
101209.768
101202.313
101266.276
101266.278
101266.28
101266.279
101266.277
101266.273
101266.267
101266.259
101266.249
101266.237
101266.223
101266.207
101266.189
101266.168
101266.144
101266.118
101266.089
101266.057
101266.023
101265.985
101265.944
101265.899
101265.851
101265.799
101265.744
101265.684
101265.619
101265.551
101265.477
101265.399
101265.315
101265.226
101265.132
101265.031
101264.924
101264.811
101264.691
101264.564
101264.429
101264.285
101264.134
101263.973
101263.803
101263.621
101263.429
101263.224
101263.005
101262.771
101262.52
101262.248
101261.951
101261.625
101261.266
101260.868
101260.423
101259.924
101259.359
101258.716
101257.981
101257.136
101256.166
101255.051
101253.778
101252.335
101250.716
101248.908
101246.882
101244.598
101242.039
101239.349
101236.408
101233.204
101229.8
101225.831
101220.959
101215.828
101210.17
101203.832
101196.537
101189.986
101263.905
101263.909
101263.911
101263.912
101263.91
101263.907
101263.901
101263.893
101263.882
101263.87
101263.854
101263.836
101263.816
101263.793
101263.767
101263.738
101263.706
101263.67
101263.631
101263.589
101263.543
101263.492
101263.438
101263.38
101263.317
101263.249
101263.176
101263.098
101263.015
101262.926
101262.831
101262.73
101262.622
101262.508
101262.386
101262.257
101262.12
101261.974
101261.819
101261.655
101261.48
101261.294
101261.097
101260.887
101260.663
101260.423
101260.167
101259.891
101259.593
101259.268
101258.912
101258.522
101258.092
101257.614
101257.082
101256.486
101255.815
101255.055
101254.191
101253.209
101252.092
101250.824
101249.393
101247.791
101246.012
101244.05
101241.889
101239.503
101236.862
101233.861
101230.426
101226.788
101223.018
101218.796
101213.79
101207.518
101201.418
101195.591
101186.788
101177.413
101261.85
101261.855
101261.86
101261.861
101261.861
101261.858
101261.852
101261.845
101261.834
101261.821
101261.806
101261.787
101261.766
101261.741
101261.714
101261.683
101261.649
101261.611
101261.57
101261.524
101261.475
101261.421
101261.363
101261.3
101261.232
101261.159
101261.081
101260.997
101260.907
101260.811
101260.708
101260.599
101260.483
101260.359
101260.228
101260.089
101259.941
101259.784
101259.618
101259.441
101259.254
101259.056
101258.845
101258.621
101258.383
101258.129
101257.857
101257.565
101257.249
101256.906
101256.532
101256.121
101255.669
101255.167
101254.607
101253.979
101253.27
101252.466
101251.552
101250.51
101249.321
101247.967
101246.429
101244.689
101242.729
101240.521
101238.024
101235.171
101231.839
101228.031
101223.851
101219.835
101215.879
101211.614
101206.773
101201.312
101194.583
101186.553
101177.531
101168.818
101260.131
101260.137
101260.143
101260.146
101260.146
101260.144
101260.14
101260.133
101260.123
101260.111
101260.096
101260.077
101260.056
101260.032
101260.004
101259.973
101259.938
101259.9
101259.857
101259.811
101259.76
101259.705
101259.645
101259.58
101259.51
101259.435
101259.354
101259.267
101259.174
101259.075
101258.969
101258.856
101258.736
101258.608
101258.472
101258.328
101258.175
101258.012
101257.839
101257.655
101257.46
101257.252
101257.03
101256.794
101256.543
101256.274
101255.985
101255.674
101255.337
101254.971
101254.572
101254.136
101253.655
101253.125
101252.537
101251.88
101251.145
101250.316
101249.378
101248.313
101247.105
101245.735
101244.189
101242.458
101240.537
101238.427
101236.061
101233.449
101230.812
101227.841
101224.06
101219.121
101214.377
101210.249
101204.8
101196.338
101187.737
101179.448
101170.448
101162.506
101258.768
101258.776
101258.783
101258.787
101258.789
101258.788
101258.784
101258.778
101258.77
101258.758
101258.744
101258.726
101258.706
101258.682
101258.655
101258.624
101258.59
101258.552
101258.51
101258.464
101258.413
101258.358
101258.299
101258.235
101258.165
101258.09
101258.01
101257.924
101257.832
101257.734
101257.63
101257.519
101257.401
101257.277
101257.145
101257.005
101256.857
101256.701
101256.536
101256.36
101256.174
101255.977
101255.769
101255.55
101255.317
101255.07
101254.807
101254.526
101254.223
101253.894
101253.534
101253.139
101252.701
101252.213
101251.666
101251.048
101250.348
101249.552
101248.644
101247.609
101246.423
101245.064
101243.506
101241.72
101239.664
101237.337
101235.209
101232.795
101229.272
101225.63
101222.431
101219.422
101215.809
101209.799
101202.032
101194.428
101186.194
101176.476
101167.746
101159.672
101257.76
101257.768
101257.776
101257.781
101257.784
101257.784
101257.782
101257.777
101257.769
101257.759
101257.745
101257.729
101257.71
101257.688
101257.662
101257.633
101257.6
101257.564
101257.524
101257.479
101257.431
101257.378
101257.321
101257.259
101257.192
101257.12
101257.043
101256.96
101256.871
101256.777
101256.676
101256.569
101256.455
101256.335
101256.207
101256.071
101255.928
101255.776
101255.616
101255.446
101255.267
101255.078
101254.878
101254.666
101254.441
101254.201
101253.944
101253.673
101253.384
101253.072
101252.734
101252.366
101251.964
101251.522
101251.035
101250.493
101249.886
101249.201
101248.422
101247.534
101246.52
101245.363
101244.048
101242.567
101240.92
101239.07
101236.633
101233.867
101231.184
101227.906
101223.679
101218.455
101211.875
101206.233
101201.049
101194.284
101185.786
101176.121
101167.813
101160.853
101257.103
101257.111
101257.119
101257.125
101257.127
101257.128
101257.126
101257.122
101257.116
101257.106
101257.094
101257.079
101257.062
101257.041
101257.017
101256.991
101256.96
101256.927
101256.889
101256.848
101256.804
101256.755
101256.702
101256.644
101256.583
101256.516
101256.445
101256.369
101256.288
101256.203
101256.111
101256.015
101255.913
101255.806
101255.692
101255.573
101255.447
101255.316
101255.177
101255.032
101254.88
101254.721
101254.553
101254.376
101254.191
101253.994
101253.786
101253.564
101253.325
101253.067
101252.787
101252.48
101252.142
101251.765
101251.343
101250.868
101250.333
101249.729
101249.044
101248.265
101247.373
101246.351
101245.175
101243.821
101242.265
101240.495
101238.444
101236.116
101233.523
101230.57
101227.122
101223.094
101218.484
101212.683
101206.144
101199.632
101193.093
101185.935
101177.209
101167.781
101256.769
101256.776
101256.783
101256.788
101256.791
101256.792
101256.79
101256.787
101256.781
101256.773
101256.762
101256.749
101256.733
101256.714
101256.693
101256.669
101256.642
101256.612
101256.579
101256.542
101256.502
101256.458
101256.411
101256.361
101256.306
101256.248
101256.185
101256.119
101256.049
101255.974
101255.895
101255.812
101255.724
101255.632
101255.535
101255.433
101255.327
101255.217
101255.101
101254.981
101254.856
101254.725
101254.589
101254.447
101254.299
101254.145
101253.984
101253.814
101253.633
101253.441
101253.233
101253.009
101252.764
101252.493
101252.191
101251.85
101251.462
101251.017
101250.502
101249.904
101249.208
101248.396
101247.452
101246.354
101245.077
101243.598
101241.886
101239.912
101237.638
101235.016
101231.998
101228.519
101224.515
101219.877
101214.249
101207.922
101201.312
101194.483
101186.886
101179.184
101256.725
101256.731
101256.737
101256.741
101256.742
101256.742
101256.741
101256.737
101256.731
101256.724
101256.714
101256.702
101256.688
101256.671
101256.653
101256.631
101256.608
101256.582
101256.553
101256.522
101256.488
101256.452
101256.412
101256.37
101256.325
101256.276
101256.224
101256.169
101256.111
101256.05
101255.987
101255.92
101255.851
101255.778
101255.703
101255.625
101255.545
101255.462
101255.377
101255.29
101255.201
101255.11
101255.017
101254.922
101254.825
101254.726
101254.624
101254.52
101254.411
101254.296
101254.174
101254.042
101253.898
101253.738
101253.557
101253.351
101253.112
101252.832
101252.502
101252.109
101251.641
101251.081
101250.413
101249.615
101248.665
101247.539
101246.209
101244.646
101242.816
101240.68
101238.193
101235.291
101231.882
101227.925
101223.222
101217.852
101211.598
101205.06
101198.009
101190.777
101256.924
101256.928
101256.931
101256.933
101256.933
101256.932
101256.929
101256.925
101256.919
101256.912
101256.903
101256.893
101256.881
101256.867
101256.851
101256.834
101256.815
101256.793
101256.77
101256.745
101256.718
101256.688
101256.657
101256.624
101256.588
101256.551
101256.512
101256.471
101256.428
101256.383
101256.335
101256.286
101256.235
101256.182
101256.127
101256.074
101256.022
101255.969
101255.916
101255.863
101255.811
101255.759
101255.709
101255.661
101255.614
101255.57
101255.529
101255.49
101255.454
101255.42
101255.387
101255.354
101255.318
101255.278
101255.231
101255.172
101255.096
101254.997
101254.866
101254.694
101254.469
101254.177
101253.802
101253.327
101252.729
101251.986
101251.072
101249.96
101248.617
101247.012
101245.108
101242.86
101240.207
101237.091
101233.41
101229.13
101224.127
101218.474
101212.232
101204.784
101257.308
101257.309
101257.309
101257.308
101257.306
101257.303
101257.299
101257.294
101257.288
101257.28
101257.272
101257.263
101257.252
101257.24
101257.227
101257.213
101257.197
101257.181
101257.163
101257.143
101257.123
101257.101
101257.078
101257.054
101257.029
101257.003
101256.976
101256.948
101256.92
101256.892
101256.864
101256.836
101256.809
101256.782
101256.754
101256.725
101256.694
101256.664
101256.634
101256.613
101256.599
101256.589
101256.583
101256.581
101256.584
101256.594
101256.611
101256.636
101256.669
101256.711
101256.763
101256.823
101256.89
101256.964
101257.043
101257.123
101257.201
101257.273
101257.332
101257.369
101257.376
101257.341
101257.249
101257.084
101256.827
101256.458
101255.951
101255.28
101254.414
101253.331
101252
101250.385
101248.445
101246.132
101243.379
101240.116
101236.303
101231.98
101226.891
101220.918
101257.81
101257.807
101257.803
101257.799
101257.794
101257.789
101257.783
101257.777
101257.77
101257.763
101257.755
101257.747
101257.737
101257.728
101257.717
101257.706
101257.695
101257.683
101257.67
101257.656
101257.643
101257.628
101257.614
101257.599
101257.585
101257.57
101257.554
101257.54
101257.525
101257.511
101257.499
101257.487
101257.477
101257.47
101257.468
101257.47
101257.477
101257.489
101257.502
101257.51
101257.518
101257.53
101257.547
101257.582
101257.635
101257.697
101257.768
101257.849
101257.944
101258.053