/*--------------------------------*- C++ -*----------------------------------*\
  =========                 |
  \\      /  F ield         | OpenFOAM: The Open Source CFD Toolbox
   \\    /   O peration     | Website:  https://openfoam.org
    \\  /    A nd           | Version:  8
     \\/     M anipulation  |
\*---------------------------------------------------------------------------*/
FoamFile
{
    version     2.0;
    format      ascii;
    class       surfaceScalarField;
    location    "0.009";
    object      phi;
}
// * * * * * * * * * * * * * * * * * * * * * * * * * * * * * * * * * * * * * //

dimensions      [1 0 -1 0 0 0 0];

internalField   nonuniform List<scalar> 
84340
(
-5.82741696e-08
3.66681596e-07
-3.08602088e-07
-2.32587796e-07
1.12128051e-06
-9.47282021e-07
-5.28132275e-07
1.92431364e-06
-1.62915897e-06
-9.52010303e-07
2.77888852e-06
-2.35546505e-06
-1.51223812e-06
3.68694895e-06
-3.12723317e-06
-2.21729616e-06
4.65025187e-06
-3.94575944e-06
-3.07555861e-06
5.67027236e-06
-4.81262806e-06
-4.09487945e-06
6.74811742e-06
-5.72946825e-06
-5.28227179e-06
7.88441095e-06
-6.69774636e-06
-6.64367293e-06
9.07926648e-06
-7.71865262e-06
-8.18378076e-06
1.03323178e-05
-8.79306121e-06
-9.90594033e-06
1.1642759e-05
-9.92151939e-06
-1.18120652e-05
1.30093821e-05
-1.11042515e-05
-1.39025756e-05
1.44306098e-05
-1.23411741e-05
-1.61763314e-05
1.5904511e-05
-1.36319168e-05
-1.86305729e-05
1.7428821e-05
-1.4975835e-05
-2.12608286e-05
1.90009336e-05
-1.63720355e-05
-2.40608176e-05
2.06178886e-05
-1.78193673e-05
-2.70223192e-05
2.22763486e-05
-1.93164344e-05
-3.01350168e-05
2.39725597e-05
-2.08615791e-05
-3.33863158e-05
2.57023088e-05
-2.24528678e-05
-3.67611247e-05
2.74608712e-05
-2.40880733e-05
-4.02415987e-05
2.9242945e-05
-2.57646491e-05
-4.38068496e-05
3.10425869e-05
-2.74796951e-05
-4.74325991e-05
3.28531176e-05
-2.9229926e-05
-5.10907891e-05
3.4667034e-05
-3.10116175e-05
-5.47491467e-05
3.64758763e-05
-3.28205295e-05
-5.83706877e-05
3.82701139e-05
-3.46518416e-05
-6.19132769e-05
4.00390769e-05
-3.65000392e-05
-6.53292108e-05
4.17708349e-05
-3.83587654e-05
-6.85647795e-05
4.34519692e-05
-4.02206165e-05
-7.15587598e-05
4.50664539e-05
-4.20770314e-05
-7.42403302e-05
4.65951699e-05
-4.39185287e-05
-7.65346036e-05
4.80222996e-05
-4.57334025e-05
-7.83650042e-05
4.93330251e-05
-4.75085007e-05
-7.96523176e-05
5.05014269e-05
-4.92205211e-05
-8.02756563e-05
5.14725114e-05
-5.0856136e-05
-8.00714567e-05
5.21906898e-05
-5.240246e-05
-7.88579387e-05
5.26079565e-05
-5.38297352e-05
-7.64457002e-05
5.26614194e-05
-5.5082649e-05
-7.26367197e-05
5.22792389e-05
-5.60980642e-05
-6.71995946e-05
5.13759887e-05
-5.68238618e-05
-5.9893164e-05
4.98649495e-05
-5.71830603e-05
-5.04379545e-05
4.76301995e-05
-5.70980648e-05
-3.85251594e-05
4.45407109e-05
-5.64672259e-05
-2.37685215e-05
4.0399839e-05
-5.51713041e-05
-5.75104513e-06
3.5086157e-05
-5.31196075e-05
1.58071921e-05
2.85857573e-05
-5.01611354e-05
4.12411717e-05
2.06449673e-05
-4.60974485e-05
7.1519459e-05
1.05299015e-05
-4.08278158e-05
0.000107443537
-1.87055466e-06
-3.40742291e-05
0.000149908187
-1.66042268e-05
-2.58827668e-05
0.000199962933
-3.46700774e-05
-1.54088822e-05
0.000258804593
-5.63728169e-05
-2.49468193e-06
0.000327819408
-8.21347209e-05
1.309231e-05
0.000408541538
-0.000112600517
3.18488409e-05
0.000502118842
-0.000148507418
5.48983482e-05
0.000610232666
-0.000190561546
8.24135533e-05
0.000734889651
-0.000239573358
0.000114879336
0.000878051476
-0.000296374781
0.000153173082
0.00104163885
-0.000361768634
0.000198138391
0.00122758655
-0.000436564503
0.000250570386
0.00143759491
-0.000521467035
0.000311409437
0.0016731885
-0.000617227471
0.000381584876
0.00193530354
-0.000724007661
0.000461845096
0.00222323043
-0.000840727696
0.000552754599
0.00253786408
-0.000972306952
0.000657628321
0.00288374638
-0.00111994257
0.000774016219
0.00325315564
-0.00126781476
0.000898362134
0.00363201529
-0.00143922715
0.00106032463
0.004069646
-0.00165300389
0.00121533041
0.00454969014
-0.00178835492
0.00130826811
0.00493482807
-0.00193844017
0.00155325993
0.00530865453
-0.00225447443
0.00188060572
0.00587396396
-0.00248862335
0.0019232752
0.00642651639
-0.00255585188
0.00200326369
0.00673354078
-0.00270998477
0.00240292184
0.00687455688
-0.00293605308
0.00279499193
0.00710314675
-0.00312524189
0.0028965743
-0.0032605801
0.0029218963
0.00744175639
-4.62512574e-08
4.12658178e-07
-1.84104827e-07
1.25874062e-06
-4.17386839e-07
2.15713987e-06
-7.51559105e-07
3.11254754e-06
-1.19284196e-06
4.12766436e-06
-1.74757337e-06
5.20436277e-06
-2.42198285e-06
6.3440073e-06
-3.22169623e-06
7.54709984e-06
-4.15142315e-06
8.81334685e-06
-5.21471975e-06
1.01417076e-05
-6.41381383e-06
1.15304869e-05
-7.74947647e-06
1.29774214e-05
-9.22092286e-06
1.44797467e-05
-1.08257245e-05
1.60342415e-05
-1.25597344e-05
1.76372553e-05
-1.44169846e-05
1.92847024e-05
-1.63895844e-05
2.09720529e-05
-1.84675868e-05
2.26942896e-05
-2.06388235e-05
2.44458529e-05
-2.28887107e-05
2.62205737e-05
-2.52000173e-05
2.80115889e-05
-2.75525747e-05
2.98112373e-05
-2.99229429e-05
3.1610943e-05
-3.22839868e-05
3.34010677e-05
-3.46044255e-05
3.51707833e-05
-3.68483573e-05
3.69079675e-05
-3.89746995e-05
3.85989732e-05
-4.0936033e-05
4.02279346e-05
-4.26806883e-05
4.17799422e-05
-4.41510022e-05
4.32370631e-05
-4.52846853e-05
4.45812339e-05
-4.60177262e-05
4.57947152e-05
-4.62669897e-05
4.6839258e-05
-4.59249573e-05
4.76746887e-05
-4.485336e-05
4.82553907e-05
-4.28912191e-05
4.85327443e-05
-3.98706289e-05
4.84448228e-05
-3.56157196e-05
4.7928069e-05
-2.99279201e-05
4.6911795e-05
-2.2589045e-05
4.53135031e-05
-1.3352003e-05
4.30324187e-05
-1.9402594e-06
3.99536915e-05
1.2001958e-05
3.59113474e-05
2.88234683e-05
3.07964186e-05
4.87004939e-05
2.46504087e-05
7.22575357e-05
1.68286417e-05
0.000100097841
7.23105355e-06
0.000132911675
-4.24377555e-06
0.000171545201
-1.80057668e-05
0.000217027462
-3.4971075e-05
0.000270319666
-5.51828656e-05
0.000332768629
-7.90747319e-05
0.000405356082
-0.000107280665
0.000489387074
-0.00014042861
0.000586454999
-0.000179229363
0.000698238355
-0.000224412659
0.000826438765
-0.000276738716
0.000972828176
-0.000336983864
0.00113921816
-0.000405998644
0.0013272662
-0.000484460767
0.00153845456
-0.000572996443
0.00177397194
-0.000672120335
0.00203460923
-0.00078214099
0.00232102831
-0.000903681587
0.00263352117
-0.00103653432
0.00297028009
-0.00117751944
0.00332651887
-0.00132857788
0.00370516845
-0.00149862385
0.00411240306
-0.00167508088
0.00451328392
-0.00184013963
0.00491512681
-0.00205487832
0.00538170371
-0.00225496251
0.00583100862
-0.00238777373
0.00612309421
-0.00254658627
0.0063777665
-0.00274332401
0.00669774191
-0.00287586924
0.00698149425
-0.00299377923
0.00714853812
-0.00310312973
0.00724389056
-0.00322064041
-0.00335724886
0.00734050524
-3.63916258e-08
4.48673035e-07
-1.44291835e-07
1.36610012e-06
-3.2621467e-07
2.33843583e-06
-5.858501e-07
3.37147738e-06
-9.27478673e-07
4.4685137e-06
-1.35535869e-06
5.63139235e-06
-1.87317901e-06
6.86090593e-06
-2.48376786e-06
8.15669372e-06
-3.18908866e-06
9.517596e-06
-3.98979762e-06
1.0941264e-05
-4.88505618e-06
1.24245068e-05
-5.8723904e-06
1.39634255e-05
-6.94757866e-06
1.55535071e-05
-8.10454669e-06
1.71896776e-05
-9.33526021e-06
1.88663256e-05
-1.06296089e-05
2.05772895e-05
-1.19752611e-05
2.23158167e-05
-1.33574973e-05
2.40745023e-05
-1.47589862e-05
2.58451737e-05
-1.6159485e-05
2.76187501e-05
-1.75354766e-05
2.93850924e-05
-1.88597653e-05
3.11328615e-05
-2.0101075e-05
3.28493984e-05
-2.12240153e-05
3.45209495e-05
-2.21891963e-05
3.61326817e-05
-2.29530513e-05
3.76683071e-05
-2.34685534e-05
3.91107227e-05
-2.36856504e-05
4.04410128e-05
-2.35377004e-05
4.16276709e-05
-2.29459343e-05
4.26406581e-05
-2.18161002e-05
4.34464157e-05
-2.00302586e-05
4.40035169e-05
-1.74605603e-05
4.42638008e-05
-1.39656312e-05
4.41735618e-05
-9.38666862e-06
4.36697237e-05
-3.5433943e-06
4.26822242e-05
3.75059798e-06
4.11430143e-05
1.27110706e-05
3.89591732e-05
2.35886294e-05
3.60251522e-05
3.66971924e-05
3.21951634e-05
5.23561375e-05
2.73629226e-05
7.0727733e-05
2.15707169e-05
9.23932186e-05
1.42337699e-05
0.000117897757
5.27906016e-06
0.000147881348
-5.34708105e-06
0.000183056588
-1.83616421e-05
0.000224253315
-3.39818553e-05
0.000272550193
-5.25580669e-05
0.000329054129
-7.45284404e-05
0.000394504073
-0.000100441138
0.00047014848
-0.00013084889
0.000557423816
-0.000166373298
0.000657798291
-0.000207680159
0.000772806804
-0.000255463853
0.000904051627
-0.000310502578
0.00105306956
-0.000373460668
0.00122135375
-0.000445054909
0.00141040502
-0.000526069296
0.00162148958
-0.000617118198
0.00185569739
-0.000718702176
0.00211361126
-0.000830942006
0.00239519268
-0.000953731737
0.00269967612
-0.00108665294
0.00302574377
-0.00122977658
0.00337189084
-0.00138270778
0.00373617039
-0.00154182475
0.00411093901
-0.00170337176
0.00448682122
-0.00187453118
0.00487280621
-0.00206109084
0.00526132887
-0.00222868611
0.00559224879
-0.0023858201
0.00587556598
-0.00253830339
0.00615130601
-0.00266353936
0.00638071659
-0.00277602271
0.00653374373
-0.00289637924
0.00667561494
-0.00301777017
0.00680971442
-0.00312791299
0.00694026796
-0.00323371871
0.00705494831
-0.00333536057
-0.00344032218
0.00713797827
-3.02367583e-08
4.78583858e-07
-1.19053884e-07
1.4544548e-06
-2.67576387e-07
2.48642604e-06
-4.77723281e-07
3.58102742e-06
-7.51562062e-07
4.74169439e-06
-1.0910362e-06
5.97014815e-06
-1.49734869e-06
7.26643837e-06
-1.97076754e-06
8.6292679e-06
-2.50993865e-06
1.0055854e-05
-3.11215504e-06
1.15424939e-05
-3.7730468e-06
1.30843331e-05
-4.48636911e-06
1.46755973e-05
-5.24385194e-06
1.63097477e-05
-6.03506558e-06
1.79795504e-05
-6.84726966e-06
1.96770825e-05
-7.66521752e-06
2.1393676e-05
-8.47092283e-06
2.31198378e-05
-9.2433792e-06
2.48451435e-05
-9.95834254e-06
2.65581813e-05
-1.05883474e-05
2.82466476e-05
-1.11026677e-05
2.98971421e-05
-1.14673268e-05
3.14950821e-05
-1.16449524e-05
3.30244058e-05
-1.15895954e-05
3.44627812e-05
-1.12489017e-05
3.57889708e-05
-1.05621325e-05
3.69782979e-05
-9.45821918e-06
3.80033272e-05
-7.85218693e-06
3.88312434e-05
-5.65127028e-06
3.94227456e-05
-2.74841667e-06
3.97335097e-05
9.81772197e-07
3.9711606e-05
5.68305547e-06
3.92972612e-05
1.15064668e-05
3.84350505e-05
1.86224328e-05
3.70518673e-05
2.72233909e-05
3.50626161e-05
3.75289474e-05
3.23700709e-05
4.98189065e-05
2.884598e-05
6.43828658e-05
2.43876159e-05
8.13820535e-05
1.90177888e-05
0.000101341118
1.22274415e-05
0.000124748684
3.946192e-06
0.000152172723
-5.86323695e-06
0.000184251418
-1.78556874e-05
0.00022173172
-3.22128258e-05
0.000265630965
-4.92588038e-05
0.000316657791
-6.94018915e-05
0.000375766405
-9.31049341e-05
0.000444067919
-0.000120875159
0.000522792401
-0.000153269752
0.000613225814
-0.000190892748
0.000716746322
-0.000234388984
0.000834775741
-0.000284423637
0.000968707328
-0.000341634056
0.00111991317
-0.000406693433
0.0012896341
-0.000480248879
0.0014791282
-0.000562981942
0.00168943644
-0.000655391074
0.00192120942
-0.000757869252
0.00217461751
-0.000870551865
0.00244916711
-0.000993276076
0.00274366149
-0.00112545951
0.00305597647
-0.00126606885
0.00338316085
-0.0014138586
0.00372096893
-0.00156760529
0.00406497858
-0.00172673746
0.0044105932
-0.0018874591
0.00475345845
-0.00204625633
0.00508044641
-0.00220153737
0.00536763771
-0.00234830028
0.00561852863
-0.00247959715
0.00582150704
-0.00258881813
0.0059812392
-0.0026980544
0.00612684656
-0.00280916747
0.00626575586
-0.00291495617
0.00638506071
-0.00301571548
0.00648413445
-0.00311687753
0.00657200786
-0.00321581179
0.00665331596
-0.00331505906
0.00674228155
-0.00342437637
-0.0035300042
0.00683191413
-2.73924586e-08
5.05514223e-07
-1.06708157e-07
1.53311639e-06
-2.37627424e-07
2.6165937e-06
-4.20173054e-07
3.76273222e-06
-6.54137252e-07
4.97473467e-06
-9.38699506e-07
6.25370647e-06
-1.2722805e-06
7.59893522e-06
-1.65209983e-06
9.00792046e-06
-2.07365566e-06
1.04761572e-05
-2.53038242e-06
1.19978785e-05
-3.01352405e-06
1.35660381e-05
-3.51222581e-06
1.51727627e-05
-4.01335705e-06
1.6809237e-05
-4.5011949e-06
1.84656348e-05
-4.95719527e-06
2.01312117e-05
-5.35979496e-06
2.17942791e-05
-5.68457529e-06
2.34424879e-05
-5.90326078e-06
2.50615624e-05
-5.98299327e-06
2.66355033e-05
-5.8864406e-06
2.81475286e-05
-5.57096414e-06
2.95789344e-05
-4.98753024e-06
3.0908743e-05
-4.07975312e-06
3.21135379e-05
-2.78621265e-06
3.31659507e-05
-1.03497068e-06
3.40342274e-05
1.25781086e-06
3.46817921e-05
4.19055569e-06
3.50666044e-05
7.87751683e-06
3.51400318e-05
1.24385392e-05
3.48571902e-05
1.80094737e-05
3.41577378e-05
2.47436071e-05
3.29723052e-05
3.28130879e-05
3.12222606e-05
4.24246525e-05
2.88175836e-05
5.38259708e-05
2.56442424e-05
6.72791719e-05
2.16026535e-05
8.29499813e-05
1.6692004e-05
0.000101303838
1.04844374e-05
0.000122777385
2.90593892e-06
0.000147871406
-6.08502729e-06
0.000177151506
-1.70621908e-05
0.000211277355
-3.01899268e-05
0.000251165022
-4.57619642e-05
0.000297445846
-6.41484294e-05
0.000350979985
-8.57598085e-05
0.000412754351
-0.000111047023
0.000483851115
-0.000140513614
0.000565434959
-0.000174704973
0.000658739357
-0.00021419699
0.00076503182
-0.00025958086
0.000885593449
-0.000311474256
0.00102167938
-0.000370496053
0.00117448874
-0.000437255442
0.00134514247
-0.000512311668
0.00153458613
-0.000596162609
0.00174347525
-0.00068916418
0.00197199606
-0.000791528042
0.0022198219
-0.000903240818
0.00248590032
-0.0010239703
0.00276839998
-0.00115307293
0.00306471564
-0.00128961212
0.00337127149
-0.00143203477
0.00368391357
-0.00157872961
0.00399665906
-0.00172662203
0.00430385307
-0.00187481667
0.00459887893
-0.00202177986
0.00487503696
-0.00216363307
0.00512351129
-0.00229474602
0.00533540017
-0.0024134422
0.00550068502
-0.00251360325
0.00563365682
-0.00261258588
0.00575451601
-0.00270969127
0.00586337132
-0.00280692473
0.00596336217
-0.0029091759
0.00605577838
-0.00300739205
0.00614193908
-0.0031018969
0.00622358213
-0.00319854262
0.00630844692
-0.00330070151
0.00639712897
-0.00340377612
0.00648571452
-0.0035129955
-0.00361782454
0.00657350898
-2.63139486e-08
5.31495247e-07
-1.01197136e-07
1.60753133e-06
-2.22567635e-07
2.73742816e-06
-3.88258268e-07
3.9278237e-06
-5.95447511e-07
5.1812646e-06
-8.40289044e-07
6.49782921e-06
-1.11755695e-06
7.87542345e-06
-1.42031924e-06
9.30983898e-06
-1.73999712e-06
1.0794923e-05
-2.06557464e-06
1.23224706e-05
-2.38366268e-06
1.38830612e-05
-2.67809996e-06
1.54660498e-05
-2.92959783e-06
1.70594928e-05
-3.11561906e-06
1.86503153e-05
-3.2100361e-06
2.02241846e-05
-3.18264469e-06
2.17653311e-05
-2.99876441e-06
2.32569274e-05
-2.61929458e-06
2.46802852e-05
-2.00026107e-06
2.60145278e-05
-1.09127846e-06
2.72364593e-05
1.66132814e-07
2.8319283e-05
1.839559e-06
2.92329079e-05
4.0080374e-06
2.99424688e-05
6.75795202e-06
3.04132582e-05
1.01865773e-05
3.06026249e-05
1.4403413e-05
3.04617672e-05
1.95317823e-05
2.99348201e-05
2.57104504e-05
2.89577106e-05
3.31061614e-05
2.74575723e-05
4.19081857e-05
2.53515387e-05
5.23376651e-05
2.25383672e-05
6.46347926e-05
1.89203665e-05
7.89779876e-05
1.44692854e-05
9.5749067e-05
8.8677706e-06
0.000115362599
1.9834261e-06
0.000138255924
-6.20744691e-06
0.000164928924
-1.61951709e-05
0.00019596496
-2.81371803e-05
0.000232171226
-4.22988942e-05
0.000274111317
-5.901044e-05
0.000322550526
-7.86379081e-05
0.000378366059
-0.000101586935
0.000442517208
-0.000128309764
0.000516030798
-0.000159284417
0.000600002439
-0.000195030558
0.000695574809
-0.000236098757
0.000803911228
-0.000283055097
0.000926177319
-0.000336477765
0.00106351423
-0.00039693349
0.00121696894
-0.000464945766
0.00138742718
-0.00054097232
0.0015755266
-0.000625374287
0.00178156198
-0.000718367304
0.00200532778
-0.000819948409
0.00224607431
-0.000929929875
0.00250234029
-0.0010478124
0.00277200254
-0.00117292065
0.00305201259
-0.00130399726
0.00333865294
-0.00143972949
0.00362734042
-0.0015783153
0.00391268024
-0.00171738972
0.00419188558
-0.00185794968
0.00445650925
-0.00199125972
0.00469780453
-0.00211612453
0.00490639789
-0.00223038484
0.00507994853
-0.00233719731
0.0052177304
-0.00243254076
0.00532984713
-0.00252557008
0.00543062779
-0.00261439639
0.0055238961
-0.00270586833
0.00561230828
-0.00279811575
0.00569509292
-0.00288972093
0.00577095955
-0.00298505828
0.00584590777
-0.00308235698
0.0059221531
-0.00317815811
0.00600158305
-0.00327798912
0.00608985718
-0.00338899535
0.00618464655
-0.00349859346
0.00627806501
-0.00360644042
-0.00371317624
0.00637339866
-2.52985632e-08
5.56320937e-07
-9.53970851e-08
1.67696563e-06
-2.06053988e-07
2.84732578e-06
-3.52399513e-07
4.07332281e-06
-5.28409023e-07
5.3563464e-06
-7.2653954e-07
6.69495365e-06
-9.37381465e-07
8.08518119e-06
-1.14932602e-06
9.52061981e-06
-1.34824864e-06
1.09925999e-05
-1.51750222e-06
1.24903924e-05
-1.63741631e-06
1.40015509e-05
-1.68469277e-06
1.55118047e-05
-1.63209644e-06
1.70052733e-05
-1.44819121e-06
1.84646806e-05
-1.09694494e-06
1.98710994e-05
-5.37346611e-07
2.12037771e-05
2.77924226e-07
2.24395742e-05
1.40303652e-06
2.35529587e-05
2.89925266e-06
2.45159597e-05
4.8358769e-06
2.52973387e-05
7.29168794e-06
2.58608197e-05
1.03552546e-05
2.61665223e-05
1.4126128e-05
2.61685998e-05
1.87207195e-05
2.58154852e-05
2.42718424e-05
2.50481216e-05
3.09306724e-05
2.37993458e-05
3.8868543e-05
2.1993131e-05
4.82830279e-05
1.95391675e-05
5.94061994e-05
1.63300786e-05
7.24185604e-05
1.23345669e-05
8.76155323e-05
7.33652263e-06
0.000105397961
1.13280441e-06
0.00012615129
-6.28954333e-06
0.000150318653
-1.53055227e-05
0.000178415168
-2.61194574e-05
0.000211137326
-3.89364348e-05
0.00024899191
-5.4057091e-05
0.000292656208
-7.18093646e-05
0.000342901805
-9.2552981e-05
0.000400569992
-0.000116687779
0.000466570492
-0.000144648307
0.000541874096
-0.000176901217
0.000627496726
-0.000213943873
0.000724495307
-0.000256295309
0.000833934022
-0.00030448246
0.000956847256
-0.000359026094
0.00109419869
-0.000420421588
0.00124681789
-0.00048911302
0.00141532845
-0.000565461191
0.0016000686
-0.000649704325
0.00180101914
-0.000741942226
0.00201764848
-0.000842022922
0.00224885971
-0.000949597032
0.00249286889
-0.00106397533
0.00274725903
-0.00118433698
0.00300879053
-0.0013093602
0.00327401921
-0.00143816498
0.00353817816
-0.00156817129
0.00379782345
-0.00169938938
0.00404704385
-0.00182754992
0.0042791652
-0.00194952384
0.00448317537
-0.00206197093
0.00465820735
-0.0021663025
0.00480392711
-0.00226185653
0.00492499656
-0.00235146573
0.00502842126
-0.00244063178
0.00512273804
-0.00252686799
0.0052085184
-0.00261135983
0.00528984137
-0.0026957287
0.00536698903
-0.00278302564
0.00543885921
-0.00286999453
0.0055085325
-0.00295940483
0.00557705097
-0.0030535887
0.00564492342
-0.00315024231
0.00571544685
-0.00324869515
0.0057907986
-0.00335335672
0.00587063708
-0.0034688529
0.00595477699
-0.00358275181
0.00603887404
-0.00369055509
-0.00379618325
0.0061218612
-2.28748216e-08
5.78903128e-07
-8.37944158e-08
1.73747688e-06
-1.75752015e-07
2.93881818e-06
-2.90506951e-07
4.18755914e-06
-4.18073959e-07
5.48334338e-06
-5.46355048e-07
6.82261347e-06
-6.60730082e-07
8.19888213e-06
-7.43695427e-07
9.60285487e-06
-7.74496277e-07
1.10226104e-05
-7.28704068e-07
1.24437454e-05
-5.77748851e-07
1.38496703e-05
-2.88665887e-07
1.52217202e-05
1.76344407e-07
1.65391799e-05
8.60450544e-07
1.77794037e-05
1.81286971e-06
1.89174147e-05
3.08967103e-06
1.99256083e-05
4.75445822e-06
2.0773311e-05
6.87903958e-06
2.14267869e-05
9.5461252e-06
2.18471598e-05
1.28495683e-05
2.19920473e-05
1.6896094e-05
2.18123031e-05
2.18072774e-05
2.1253198e-05
2.77211572e-05
2.02524193e-05
3.47946365e-05
1.87395359e-05
4.32078836e-05
1.66322257e-05
5.31701041e-05
1.38342848e-05
6.48594366e-05
1.03007462e-05
7.85306773e-05
5.86467878e-06
9.45339007e-05
3.23427084e-07
0.000113209259
-6.34445378e-06
0.000134951292
-1.44094676e-05
0.000160215776
-2.41359352e-05
0.000189594032
-3.56723587e-05
0.000223568452
-4.92848268e-05
0.000262708333
-6.52645743e-05
0.000307698364
-8.39320801e-05
0.000359278101
-0.000105642857
0.000418247112
-0.000130784864
0.000485463629
-0.000159776478
0.000561832361
-0.000193063996
0.000648289015
-0.000231112977
0.000745779463
-0.000274400247
0.000855228718
-0.000323402316
0.000977502174
-0.000378578596
0.00111335968
-0.00044035048
0.00126339843
-0.000509076092
0.00142798547
-0.000585020658
0.00160718227
-0.000668322776
0.00180067127
-0.000758964142
0.00200764813
-0.0008566955
0.0022267253
-0.00096103335
0.00245589828
-0.00107120949
0.00269253423
-0.00118624616
0.00293332891
-0.00130478288
0.00317457646
-0.00142559707
0.00341184515
-0.00154664125
0.00364200548
-0.00166833738
0.00385999121
-0.00178616861
0.00405714446
-0.00189655344
0.00422773968
-0.00199815503
0.00436981767
-0.00209161125
0.00448524127
-0.00217740516
0.00458280478
-0.00226387829
0.00467065407
-0.0023497162
0.00475224685
-0.00243306663
0.00482526361
-0.00251365793
0.0048955195
-0.00259713359
0.00496496556
-0.00268081389
0.0050320841
-0.00276285464
0.00509596852
-0.00284691835
0.00516087876
-0.00293491355
0.0052276785
-0.00302621406
0.00529644789
-0.00312236808
0.00536677049
-0.00322057565
0.00543790111
-0.00331983725
0.00551156789
-0.00342703577
0.00558510143
-0.0035423992
0.00566099744
-0.0036586649
0.00574169897
-0.00377127182
-0.00388501647
0.00583052369
-1.82701954e-08
5.96741342e-07
-6.25292612e-08
1.78113256e-06
-1.22105618e-07
2.99770739e-06
-1.84297824e-07
4.24898732e-06
-2.33863866e-07
5.53207328e-06
-2.52611298e-07
6.84045524e-06
-2.18952838e-07
8.164249e-06
-1.07449312e-07
9.49030581e-06
1.11679213e-07
1.08023628e-05
4.7294391e-07
1.20812854e-05
1.01598911e-06
1.33053499e-05
1.78612051e-06
1.44502295e-05
2.83489907e-06
1.54889536e-05
4.2210587e-06
1.63917031e-05
6.01138358e-06
1.71254505e-05
8.28124783e-06
1.76540028e-05
1.1116943e-05
1.79357671e-05
1.46161028e-05
1.79256623e-05
1.88896207e-05
1.75715536e-05
2.40635368e-05
1.68159138e-05
3.02800037e-05
1.55934812e-05
3.77017362e-05
1.3828966e-05
4.65152729e-05
1.14362261e-05
5.68899731e-05
8.36200509e-06
6.90600136e-05
4.45918997e-06
8.33257851e-05
-4.34630655e-07
9.99894825e-05
-6.36629093e-06
0.000119399467
-1.35488951e-05
0.000141941956
-2.22229095e-05
0.000168124146
-3.25307554e-05
0.000198417509
-4.47072313e-05
0.000233288045
-5.9011186e-05
0.000273336422
-7.57257913e-05
0.000319211499
-9.51653331e-05
0.000371614861
-0.000117673781
0.000431298659
-0.000143622169
0.000499056213
-0.00017340717
0.000575709559
-0.000207445455
0.000662091321
-0.000246166002
0.000759019906
-0.000290000891
0.000867269714
-0.000339371675
0.000987532215
-0.000394672248
0.0011203677
-0.000456247943
0.00126614925
-0.000524370946
0.00142499984
-0.000599212567
0.00159672536
-0.000680813912
0.00178074666
-0.000769055148
0.00197605706
-0.000863646941
0.00218111237
-0.000964033089
0.00239380426
-0.00106940065
0.00261143517
-0.0011786771
0.00283078688
-0.0012905737
0.00304819
-0.00140366145
0.00325975603
-0.00151636087
0.00346146439
-0.00162731729
0.00364990145
-0.00173508959
0.0038180339
-0.00183647977
0.0039614843
-0.00192962909
0.00408032379
-0.00201540414
0.0041798336
-0.0020976761
0.00426680724
-0.0021785946
0.00434829064
-0.00225889644
0.00442070967
-0.00233630417
0.00448385931
-0.00241287351
0.00454192551
-0.00249114028
0.00459793007
-0.00256966923
0.00465007304
-0.00264928361
0.00470286151
-0.00273361114
0.00475905613
-0.00281905799
0.00481778071
-0.00290565107
0.00487855604
-0.00299569862
0.00494171742
-0.00308938484
0.00500689909
-0.00318755846
0.00507609576
-0.00328978162
0.00514728484
-0.00339103585
0.00521829095
-0.00349805111
0.00529092694
-0.00361504411
0.00536788945
-0.00373563648
0.00544306019
-0.00384645018
-0.00395987967
0.00551791798
-9.07418143e-09
6.05595106e-07
-2.24398954e-08
1.79419314e-06
-2.4537659e-08
2.99945915e-06
3.2008816e-09
4.22086377e-06
8.28829167e-08
5.4519679e-06
2.40632583e-07
6.68224328e-06
5.07044628e-07
7.89733392e-06
9.17664468e-07
9.0791394e-06
1.51348993e-06
1.02059437e-05
2.34151545e-06
1.1252615e-05
3.45543027e-06
1.21907344e-05
4.91633527e-06
1.2988563e-05
6.79362684e-06
1.36108341e-05
9.16553718e-06
1.40188938e-05
1.21214645e-05
1.41685472e-05
1.57622831e-05
1.40121236e-05
2.02020329e-05
1.3494865e-05
2.55697522e-05
1.25566928e-05
3.20111413e-05
1.11288093e-05
3.96919889e-05
9.13359716e-06
4.87708364e-05
6.5130393e-06
5.94716018e-05
3.126483e-06
7.20403107e-05
-1.13432063e-06
8.67440149e-05
-6.34368099e-06
0.000103887388
-1.26863364e-05
0.000123808408
-2.03579799e-05
0.000146939546
-2.94999432e-05
0.000173706522
-4.03185836e-05
0.00020452276
-5.3042071e-05
0.000239909446
-6.79205931e-05
0.000280430041
-8.5231223e-05
0.000326692785
-0.000105277592
0.000379350737
-0.000128387692
0.000439093976
-0.000154912819
0.000506639409
-0.000185223769
0.000582716608
-0.000219704247
0.000668048007
-0.00025874379
0.000763323682
-0.000302726711
0.000869169858
-0.00035201814
0.000986109422
-0.000406946814
0.0011145155
-0.00046778453
0.00125455872
-0.000534722686
0.00140614925
-0.000607846152
0.00156887636
-0.000687106214
0.00174194983
-0.000772294767
0.00192415551
-0.000863028983
0.00211383169
-0.000958740963
0.00230881338
-0.00105863811
0.00250646012
-0.00116168912
0.00270371476
-0.00126666443
0.00289717375
-0.00137214509
0.00308325278
-0.00147666164
0.00325825743
-0.0015786749
0.00341904177
-0.00167715393
0.00356235632
-0.00177064047
0.00368530275
-0.00185804498
0.00378719936
-0.00193838547
0.00387339674
-0.00201583452
0.00395091551
-0.00209292967
0.00402085655
-0.00216762367
0.0040838244
-0.00224156969
0.00414046797
-0.00231554785
0.00419442549
-0.00239026919
0.00424569801
-0.00246415401
0.00429547445
-0.00254092409
0.00434681132
-0.00262101235
0.00440004189
-0.00270252028
0.00445432158
-0.00278789717
0.00451025911
-0.00287500192
0.00456920734
-0.00296460602
0.00462944353
-0.00305594155
0.00468931566
-0.00314926392
0.00474846823
-0.00324671792
0.00480728072
-0.00334860122
0.00487096993
-0.00345473174
0.00493238815
-0.00355947557
0.0049879604
-0.00367062314
0.00503942894
-0.00378711307
0.00510894184
-0.00391596744
-0.0040351986
0.00518425933
6.50734691e-09
5.98732055e-07
4.43956106e-08
1.75581139e-06
1.35542597e-07
2.90775251e-06
3.05982523e-07
4.04980309e-06
5.86424824e-07
5.17084751e-06
1.01274666e-06
6.2551879e-06
1.6265334e-06
7.28275837e-06
2.47569933e-06
8.22912838e-06
3.6151303e-06
9.06560941e-06
5.10740137e-06
9.75937985e-06
7.02362565e-06
1.02734821e-05
9.4439736e-06
1.05671209e-05
1.24598513e-05
1.05937928e-05
1.61741189e-05
1.03033876e-05
2.07027486e-05
9.6385992e-06
2.61770981e-05
8.53637279e-06
3.27439907e-05
6.92648164e-06
4.05516435e-05
4.74745253e-06
4.98028654e-05
1.87590585e-06
6.07069898e-05
-1.77230436e-06
7.35001286e-05
-6.28199244e-06
8.8448742e-05
-1.18241523e-05
0.000105848179
-1.85359145e-05
0.000126068516
-2.6566319e-05
0.000149476201
-3.60964816e-05
0.00017644238
-4.73267886e-05
0.000207417338
-6.04777168e-05
0.000242888674
-7.57929381e-05
0.000283382738
-9.35393774e-05
0.000329464712
-0.000114006056
0.000381732744
-0.000137503005
0.00044081003
-0.000164358901
0.000507333713
-0.000194915692
0.000581939389
-0.000229523122
0.000665240682
-0.000268530023
0.000757804162
-0.000312273041
0.000860117443
-0.000361062759
0.000972551424
-0.000415166774
0.00109531696
-0.00047479017
0.00122841667
-0.000540053458
0.00137159378
-0.00061096902
0.0015242804
-0.000687417149
0.00168554908
-0.000769123174
0.00185407399
-0.000855640049
0.00202811213
-0.000946342377
0.00220551489
-0.00104044137
0.0023837313
-0.00113696685
0.00255987442
-0.00123479056
0.0027308888
-0.0013327127
0.00289371307
-0.0014294978
0.0030454807
-0.00152392173
0.00318371455
-0.00161490444
0.00330660919
-0.00170157843
0.00341280906
-0.00178336276
0.00350238573
-0.00186022617
0.0035773652
-0.0019330322
0.0036435132
-0.00200454001
0.0037042572
-0.00207658588
0.00376104821
-0.00214972879
0.00381608796
-0.00222267083
0.00386858927
-0.00229407706
0.00391860254
-0.00236556693
0.00396726343
-0.00243893664
0.0040162336
-0.00251313045
0.00406370759
-0.00258840357
0.00411209332
-0.00266940413
0.00416276599
-0.00275319884
0.00421426691
-0.00283940396
0.00426706469
-0.00292780547
0.00432096554
-0.00301851274
0.00437624422
-0.00311122592
0.00443204635
-0.00320507176
0.00448668623
-0.00330136331
0.00453836726
-0.00340028787
0.00459220646
-0.00350857563
0.00465170551
-0.00361897992
0.00471354976
-0.00373247172
0.00475935664
-0.00383292268
0.00478391092
-0.00394052264
-0.0040704877
0.0048192011
3.02229132e-08
5.68378296e-07
1.44570673e-07
1.6412858e-06
3.72962622e-07
2.67916095e-06
7.50688301e-07
3.67185609e-06
1.31899407e-06
4.60229818e-06
2.12566278e-06
5.44825213e-06
3.22565307e-06
6.18247557e-06
4.681822e-06
6.77263895e-06
6.56567734e-06
7.18140256e-06
8.95811631e-06
7.36655525e-06
1.19510287e-05
7.28014634e-06
1.56478248e-05
6.86985898e-06
2.01650962e-05
6.07600861e-06
2.56344471e-05
4.83347215e-06
3.21923624e-05
3.08006197e-06
4.0013306e-05
7.14747241e-07
4.92827646e-05
-2.34372435e-06
6.02083403e-05
-6.17894586e-06
7.3022821e-05
-1.09394801e-05
8.79840962e-05
-1.67345727e-05
0.000105407237
-2.37062234e-05
0.000125595383
-3.20134924e-05
0.000148890321
-4.18321599e-05
0.000175678998
-5.33564265e-05
0.00020638132
-6.68003674e-05
0.000241451035
-8.23982124e-05
0.000281375445
-0.000100403994
0.0003266712
-0.000121090729
0.000377878396
-0.000144748786
0.000435552056
-0.000171682115
0.000500250284
-0.00020220383
0.000572518098
-0.000236629522
0.00065286787
-0.000275268491
0.000741754092
-0.000318412601
0.000839543272
-0.000366322702
0.000946479075
-0.000419212595
0.00106264303
-0.000477230728
0.00118791219
-0.000540440218
0.00132191518
-0.000608797717
0.00146398994
-0.000682133073
0.00161314658
-0.000760130803
0.00176804098
-0.000842317001
0.00192696436
-0.000928052375
0.00208786216
-0.00101654401
0.00224838068
-0.00110686719
0.0024059474
-0.00119801435
0.00255786195
-0.00128888763
0.00270147793
-0.00137841275
0.00283445042
-0.00146569139
0.00295489319
-0.00154994679
0.00306170009
-0.00163073488
0.00315460146
-0.00170781229
0.00323435751
-0.00178134083
0.00330293847
-0.00185194933
0.00336387363
-0.00192116678
0.0034208914
-0.00199005523
0.00347511384
-0.00205876746
0.00352700495
-0.00212848263
0.00357639907