/*--------------------------------*- C++ -*----------------------------------*\
  =========                 |
  \\      /  F ield         | OpenFOAM: The Open Source CFD Toolbox
   \\    /   O peration     | Website:  https://openfoam.org
    \\  /    A nd           | Version:  8
     \\/     M anipulation  |
\*---------------------------------------------------------------------------*/
FoamFile
{
    version     2.0;
    format      ascii;
    class       volScalarField;
    location    "0.009";
    object      T;
}
// * * * * * * * * * * * * * * * * * * * * * * * * * * * * * * * * * * * * * //

dimensions      [0 0 0 1 0 0 0];

internalField   nonuniform List<scalar> 
42400
(
471.996744
469.968715
467.888795
465.756774
463.572562
461.336209
459.047932
456.708147
454.317495
451.876881
449.387509
446.85092
444.269031
441.644176
438.979144
436.27722
433.542219
430.778524
427.991113
425.185584
422.368176
419.545772
416.725906
413.916747
411.127074
408.366243
405.644129
402.971064
400.357748
397.815159
395.354438
392.986772
390.723266
388.574805
386.551934
384.664739
382.922737
381.334746
379.908752
378.651792
377.569846
376.667751
375.949137
375.416354
375.070373
374.912826
374.938003
375.143379
375.522869
376.068451
376.768289
377.60668
378.565603
379.620673
380.739945
381.876459
382.986973
384.046056
385.077048
385.677561
385.769377
385.383566
384.624915
383.565706
382.127157
380.186852
377.628807
374.426829
370.585257
366.020071
360.940197
355.671769
349.515933
342.834562
336.869481
331.020605
324.302484
318.288528
312.593788
308.266146
472.037844
470.09294
468.098365
466.053996
463.959828
461.816006
459.622849
457.380877
455.090847
452.753787
450.371033
447.944266
445.475553
442.967388
440.42273
437.84504
435.238323
432.60716
429.956735
427.292865
424.622014
421.951307
419.288525
416.642099
414.021083
411.435119
408.894383
406.409518
403.99155
401.651791
399.401732
397.252925
395.216868
393.304854
391.527816
389.896154
388.419557
387.106786
385.965483
385.002005
384.221248
383.626441
383.218951
382.997949
382.960224
383.098686
383.408301
383.87366
384.478663
385.203562
386.02135
386.896991
387.791093
388.675285
389.548876
390.144533
390.369745
390.216359
389.474968
388.498442
387.198569
385.499578
383.243987
380.381347
376.900265
372.813272
368.126249
362.8804
357.213377
351.167962
344.795089
338.627906
332.514461
326.199067
320.363661
315.179183
310.644765
306.419659
302.901079
300.529198
472.0901
470.250866
468.364756
466.431732
464.451886
462.425466
460.352907
458.234857
456.072214
453.866164
451.618212
449.330225
447.004474
444.643667
442.250993
439.830158
437.385422
434.921631
432.444241
429.959348
427.473697
424.994692
422.530389
420.089483
417.681279
415.315646
413.002966
410.754055
408.580089
406.492485
404.502774
402.622452
400.862807
399.234709
397.748386
396.413176
395.237277
394.227483
393.388906
392.724672
392.235515
391.919484
391.772112
391.785235
391.946942
392.241298
392.646233
393.132884
393.667099
394.21627
394.757472
395.195636
395.342355
395.177056
394.521188
393.613771
392.433681
390.905404
388.9228
386.379549
383.243665
379.500541
375.168847
370.285371
364.916848
359.158316
353.09076
346.783035
340.402089
334.144292
328.004808
322.241764
317.019431
312.300656
308.13665
304.591432
301.833878
300.231642
299.917537
299.855876
472.151982
470.437867
468.680151
466.87888
465.034238
463.146582
461.216469
459.24469
457.232302
455.180669
453.091499
450.966878
448.809317
446.621784
444.407743
442.171189
439.916683
437.649373
435.37502
433.100015
430.83138
428.576771
426.344458
424.143304
421.98272
419.8726
417.823245
415.845263
413.949438
412.14658
410.447329
408.861953
407.400085
406.070476
404.880688
403.836772
402.942913
402.201016
401.610342
401.1675
400.865197
400.691999
400.632611
400.664061
400.764554
400.905708
401.064713
401.167186
401.092737
400.763975
400.115471
399.159464
397.986525
396.529081
394.712727
392.421565
389.600686
386.221556
382.273343
377.768565
372.744278
367.260688
361.3984
355.24885
348.922291
342.546771
336.245362
330.111331
324.275062
318.900641
314.062206
309.833515
306.308295
303.421911
301.252978
300.171853
299.956417
299.896381
299.874052
299.869097
472.221391
470.647596
469.033853
467.38028
465.687156
463.954943
462.184324
460.376229
458.531881
456.652825
454.740968
452.79862
450.828524
448.833897
446.818458
444.786458
442.742706
440.692583
438.642054
436.597669
434.566552
432.556376
430.575324
428.632036
426.735523
424.895074
423.120123
421.420092
419.804202
418.281255
416.859387
415.545782
414.346344
413.265372
412.305141
411.465524
410.743813
410.133722
409.624983
409.204579
408.855849
408.560131
408.299872
407.973239
407.535065
406.932981
406.106124
405.051943
403.81899
402.349884
400.583122
398.434058
395.833834
392.749136
389.157387
385.052473
380.445361
375.364789
369.85807
363.991877
357.851382
351.535893
345.154414
338.818106
332.638161
326.735802
321.233514
316.230244
311.817782
308.069066
305.041851
302.750503
300.987984
300.14139
299.958226
299.899785
299.878571
299.873218
299.865436
299.854888
472.294713
470.86914
469.407464
467.90988
466.37675
464.808634
463.206323
461.570871
459.903632
458.206292
456.480907
454.72993
452.95625
451.163211
449.354641
447.534863
445.708708
443.881512
442.059105
440.247788
438.45429
436.685713
434.949449
433.253079
431.604243
430.010483
428.479058
427.016724
425.629479
424.322293
423.098787
421.960887
420.908465
419.939115
419.047647
418.226028
417.463874
416.748055
416.033755
415.288954
414.476226
413.552914
412.471027
411.272023
409.919703
408.369795
406.572448
404.462197
401.980023
399.091955
395.770677
391.999332
387.773977
383.104362
378.015008
372.545678
366.751007
360.699609
354.472747
348.162514
341.871417
335.704862
329.774751
324.183474
319.024274
314.387669
310.365101
307.013859
304.367933
302.401142
301.064708
300.204413
300.003604
299.936733
299.908427
299.889304
299.87569
299.860647
299.843898
299.829074
472.366066
471.084728
469.771028
468.42522
467.047732
465.63919
464.200448
462.73262
461.237106
459.715622
458.17023
456.603356
455.017814
453.416815
451.803979
450.183323
448.559257
446.936549
445.320287
443.71582
442.128678
440.564467
439.028748
437.52688
436.063843
434.644031
433.271007
431.947244
430.673828
429.450142
428.273632
427.139461
426.04024
424.961677
423.885061
422.787979
421.644603
420.425776
419.131519
417.738431
416.216112
414.530222
412.640236
410.493118
408.049036
405.275564
402.144187
398.632803
394.727803
390.425223
385.732044
380.667203
375.262109
369.561495
363.62253
357.514504
351.313188
345.10577
338.984619
333.047303
327.395026
322.122633
317.318046
313.055699
309.399726
306.391517
304.048353
302.331532
301.177111
300.462834
300.097686
299.998538
299.952728
299.920586
299.892242
299.86688
299.841444
299.824096
299.812897
299.808869
472.427512
471.270374
470.084079
468.868914
467.625323
466.353932
465.055569
463.731289
462.382391
461.010436
459.617263
458.204994
456.776041
455.333094
453.879109
452.417277
450.950984
449.483755
448.019176
446.560799
445.112028
443.675974
442.255295
440.852002
439.467246
438.101084
436.75221
435.417722
434.092836
432.770567
431.440199
430.088791
428.701617
427.265109
425.762507
424.173979
422.476212
420.641468
418.635373
416.425133
413.981354
411.275373
408.280477
404.973502
401.336242
397.356675
393.030159
388.360475
383.360692
378.053845
372.473342
366.663421
360.679357
354.589983
348.468107
342.39439
336.45242
330.736923
325.340648
320.349496
315.84326
311.88958
308.539606
305.820933
303.728623
302.212147
301.188412
300.561274
300.209986
300.047345
299.983842
299.928782
299.883628
299.851044
299.828058
299.811856
299.806677
299.805952
299.806017
299.80678
472.470601
471.400544
470.303543
469.179858
468.029877
466.854126
465.653285
464.428194
463.17986
461.909461
460.618344
459.308012
457.980107
456.636387
455.278679
453.908833
452.528654
451.139815
449.743762
448.341588
446.9339
445.520658
444.101002
442.673073
441.233876
439.779158
438.302774
436.797001
435.252176
433.656548
431.997579
430.259992
428.425092
426.472203
424.379961
422.125705
419.68597
417.037142
414.156324
411.022183
407.615842
403.921915
399.929478
395.633011
391.033275
386.138103
380.963109
375.532305
369.878691
364.044647
358.082266
352.054221
346.034758
340.101412
334.335455
328.824238
323.653833
318.907812
314.657733
310.964025
307.864706
305.373773
303.465744
302.085565
301.150509
300.562749
300.222281
300.039504
299.939096
299.881967
299.843039
299.828288
299.822618
299.818622
299.814354
299.809542
299.807129
299.806716
299.806759
299.806784
472.488696
471.45517
470.39553
469.309922
468.198576
467.061798
465.899977
464.713576
463.503127
462.269214
461.012461
459.7335
458.43294
457.111322
455.769062
454.406381
453.023223
451.619153
450.193251
448.743974
447.268973
445.764873
444.226991
442.649318
441.025291
439.346825
437.604675
435.787855
433.883774
431.878316
429.755951
427.499897
425.092382
422.515022
419.749283
416.777025
413.581074
410.145773
406.457798
402.50691
398.286712
393.795409
389.036549
384.019749
378.761379
373.285232
367.623161
361.81569
355.912542
349.972834
344.06563
338.26977
332.666507
327.339863
322.37297
317.843857
313.818637
310.346435
307.456506
305.146134
303.380518
302.096644
301.212793
300.63792
300.284312
300.075425
299.953749
299.87859
299.847271
299.834862
299.828171
299.823821
299.820448
299.816697
299.813893
299.810067
299.806504
299.805303
299.805426
299.806711
472.480298
471.429734
470.352451
469.248431
468.117677
466.960211
465.77605
464.565197
463.327607
462.063168
460.771662
459.45273
458.105815
456.730102
455.324442
453.887257
452.415957
450.906738
449.355694
447.758703
446.110881
444.406557
442.639389
440.80217
438.885801
436.880036
434.773524
432.553861
430.207698
427.720912
425.078834
422.266538
419.269211
416.072577
412.66321
409.029173
405.160583
401.050234
396.694246
392.092757
387.250639
382.178247
376.892185
371.416064
365.781216
360.027301
354.202803
348.365238
342.58086
336.923718
331.474495
326.315403
321.527053
317.182122
313.341506
310.045275
307.310413
305.123355
303.444808
302.212059
301.346857
300.766076
300.392155
300.158263
300.014543
299.925594
299.875033
299.851973
299.840124
299.831883
299.825529
299.820353
299.814878
299.811711
299.810707
299.810017
299.808484
299.806774
299.806062
299.806
472.447544
471.330706
470.185279
469.011051
467.807767
466.575115
465.31269
464.019974
462.696172
461.339541
459.94864
458.521769
457.056861
455.551433
454.002532
452.406694
450.760402
449.060135
447.301117
445.477347
443.582036
441.607556
439.545425
437.386315
435.120065
432.735745
430.221758
427.565988
424.755979
421.779183
418.623247
415.27627
411.727212
407.966358
403.985822
399.780106
395.346721
390.686867
385.806182
380.715535
375.431851
369.978943
364.388279
358.699596
352.961262
347.230225
341.5715
336.056814
330.762338
325.765347
321.139263
316.950992
313.254156
310.082324
307.444686
305.324345
303.678551
302.446268
301.55717
300.938638
300.522343
300.249981
300.076346
299.968434
299.90272
299.866092
299.847308
299.833206
299.822404
299.815052
299.810998
299.808941
299.809497
299.809427
299.809785
299.810489
299.813204
299.814818
299.811975
299.808824
472.391929
471.162577
469.901485
468.608162
467.281991
465.922201
464.527478
463.096343
461.627238
460.11902
458.569623
456.976528
455.336779
453.646943
451.903061
450.100607
448.234457
446.298846
444.287317
442.192702
440.007123
437.722
435.328087
432.815529
430.173949
427.392573
424.460383
421.36632
418.099503
414.64949
411.006649
407.162573
403.110545
398.846091
394.367593
389.676989
384.780543
379.689666
374.42177
369.0011
363.459476
357.836844
352.181516
346.549923
341.005847
335.618676
330.461243
325.605814
321.119677
317.061157
313.47275
310.380978
307.791085
305.685655
304.025458
302.756239
301.814855
301.136767
300.662535
300.339957
300.127675
299.993037
299.911394
299.860709
299.833585
299.819255
299.811048
299.808055
299.80752
299.807152
299.80704
299.807741
299.808738
299.809216
299.809138
299.809388
299.811416
299.820371
299.824029
299.822403
472.319948
470.945004
469.534348
468.087225
466.602688
465.079497
463.516303
461.911522
460.263137
458.568756
456.825566
455.030292
453.179148
451.267815
449.291398
447.244395
445.120683
442.913504
440.615471
438.218575
435.714224
433.093292
430.346201
427.463024
424.433631
421.247865
417.895725
414.367658
410.65489
406.749819
402.646477
398.341075
393.832626
389.123639
384.220896
379.136273
373.887568
368.499306
363.003412
357.43967
351.85583
346.307216
340.855684
335.567763
330.512271
325.756361
321.362612
317.383191
313.855049
310.798358
308.214576
306.086608
304.380614
303.050318
302.04205
301.299699
300.769383
300.402301
300.157138
299.993979
299.899611
299.848637
299.822692
299.817555
299.814417
299.81199
299.809788
299.808404
299.807496
299.807474
299.807374
299.807605
299.808538
299.810104
299.81013
299.810141
299.811451
299.818285
299.825504
299.834187
472.236977
470.694229
469.111266
467.4871
465.820493
464.109942
462.353827
460.55003
458.69603
456.788864
454.825087
452.800737
450.711297
448.551671
446.316172
443.998501
441.591758
439.088454
436.480541
433.759463
430.91623
427.941522
424.825821
421.559568
418.133377
414.538293
410.766125
406.809823
402.663944
398.325181
393.792979
389.070223
384.163987
379.086323
373.85505
368.494493
363.03608
357.518717
351.988805
346.499775
341.111005
335.885992
330.889727
326.185296
321.830322
317.87266
314.345923
311.269091
308.645532
306.462012
304.691206
303.293058
302.2201
301.42153
300.84629
300.446839
300.180418
300.01052
299.908876
299.866741
299.842093
299.828213
299.820349
299.816202
299.813375
299.811411
299.81003
299.809753
299.81011
299.810417
299.810184
299.810627
299.81254
299.815535
299.817766
299.816944
299.817246
299.817522
299.822744
299.831696
472.145702
470.418364
468.645882
466.827071
464.960477
463.044369
461.076623
459.054694
456.975578
454.835774
452.631251
450.357412
448.009081
445.580483
443.065249
440.456424
437.746501
434.927462
431.990856
428.927893
425.729575
422.386851
418.890829
415.233036
411.405728
407.402271
403.217591
398.848691
394.295247
389.56027
384.65082
379.578752
374.361447
369.022485
363.592179
358.107876
352.61393
347.16122
341.806114
336.608802
331.630958
326.932791
322.569601
318.58814
315.023251
311.895078
309.21031
306.959296
305.118878
303.652441
302.51599
301.661198
301.038887
300.601304
300.305064
300.112476
299.991875
299.920624
299.882443
299.857095
299.838203
299.825659
299.815971
299.809889
299.807473
299.806935
299.807568
299.810098
299.813645
299.817185
299.820391
299.823159
299.826524
299.830567
299.834936
299.836311
299.829977
299.822373
299.821525
299.827445
472.047764
470.122366
468.146569
466.118988
464.037914
461.901262
459.706529
457.450742
455.130422
452.741548
450.27953
447.73919
445.114758
442.399877
439.587632
436.670589
433.640864
430.490217
427.210176
423.792196
420.22786
416.509131
412.628658
408.580143
404.358773
399.961723
395.388727
390.642701
385.730427
380.663248
375.457752
370.136388
364.727954
359.267853
353.798058
348.366652
343.026885
337.835665
332.851476
328.131807
323.730214
319.693245
316.057453
312.846957
310.071094
307.724425
305.786787
304.225696
303.000036
302.063429
301.367533
300.865278
300.513219
300.27333
300.113994
300.010405
299.94384
299.899486
299.867449
299.840733
299.82376
299.81435
299.810288
299.807611
299.805935
299.805961
299.807879
299.811604
299.816358
299.821366
299.826311
299.830293
299.834878
299.838419
299.839335
299.841996
299.846179
299.841672
299.832347
299.830291
471.94426
469.809538
467.618846
465.370572
463.06273
460.692911
458.258237
455.755317
453.180215
450.528424
447.794852
444.973821
442.05909
439.043884
435.920961
432.682695
429.321197
425.828466
422.196586
418.417963
414.485618
410.393546
406.137122
401.713587
397.12258
392.366745
387.452362
382.390006
377.195193
371.888955
366.498293
361.056432
355.602791
350.182578
344.845949
339.646659
334.640221
329.88158
325.422433
321.308459
317.576528
314.252419
311.348784
308.864675
306.784711
305.080633
303.71564
302.64723
301.830059
301.219893
300.774851
300.457679
300.235537
300.083111
299.980069
299.912265
299.869353
299.842785
299.826537
299.81984
299.815766
299.813508
299.810997
299.809351
299.807784
299.80748
299.809213
299.812341
299.816727
299.821342
299.825314
299.830029
299.834621
299.837044
299.837276
299.836886
299.840732
299.845049
299.845587
299.847215
471.836147
469.48278
467.06762
464.58882
462.044118
459.430786
456.745585
453.984739
451.143904
448.218163
445.202033
442.08949
438.874019
435.548694
432.106282
428.539391
424.840648
421.002926
417.019619
412.88498
408.594505
404.145388
399.53703
394.771602
389.85464
384.795675
379.608835
374.313399
368.934243
363.502102
358.053581
352.630831
347.280816
342.054126
337.003313
332.180799
327.636477
323.415005
319.55344
316.078741
313.00618
310.339081
308.066726
306.168407
304.613766
303.366325
302.386545
301.633565
301.067225
300.651831
300.354755
300.147262
300.007539
299.917348
299.859867
299.828132
299.814298
299.811467
299.813443
299.816648
299.816996
299.81456
299.813458
299.81404
299.814513
299.813685
299.813012
299.812979
299.816193
299.820491
299.822846
299.826488
299.829449
299.829625
299.829042
299.829131
299.831537
299.838049
299.843348
299.84439
471.724574
469.145564
466.498757
463.782079
460.993003
458.128506
455.185038
452.158497
449.044228
445.837034
442.531211
439.120611
435.598734
431.958857
428.194199
424.298122
420.264389
416.087467
411.762895
407.287696
402.660852
397.883829
392.96114
387.900929
382.715551
377.422112
372.042918
366.60577
361.144045
355.69648
350.306596
345.0217
339.89144
334.96594
330.293572
325.918568
321.878694
318.202901
314.909358
312.005689
309.489563
307.348083
305.561512
304.101311
302.93446
302.024057
301.331393
300.818877
300.451468
300.197104
300.028079
299.921013
299.857231
299.824246
299.813065
299.80963
299.808313
299.808442
299.811209
299.814409
299.817787
299.819604
299.820516
299.820548
299.821875
299.822744
299.824129
299.825231
299.824652
299.824808
299.823865
299.824137
299.827986
299.828472
299.827671
299.82578
299.827977
299.831259
299.83702
299.839306
472.536634
471.599724
470.638389
469.652169
468.64059
467.60317
466.539403
465.448761
464.330687
463.184586
462.009821
460.8057
459.571476
458.306329
457.009365
455.679597
454.315941
452.9172
451.482052
450.009036
448.496538
446.942777
445.345784
443.703391
442.01321
440.272615
438.478729
436.628416
434.718272
432.744631
430.703105
428.58843
426.394916
424.11683
421.749478
419.287004
416.722607
414.04912
411.259028
408.344547
405.297764
402.110835
398.776293
395.287481
391.639166
387.828368
383.85547
379.72563
375.450511
371.050302
366.555902
362.011018
357.473757
353.017109
348.72765
344.70157
341.037394
337.825286
335.133577
332.996262
331.405135
330.308674
329.620377
329.234897
329.047329
328.96979
328.935574
328.90422
328.853119
328.774899
328.666889
328.537698
328.401979
328.268186
328.133365
327.982641
327.805826
327.623319
327.467297
327.347499
472.529302
471.577569
470.601025
469.599202
468.571616
467.517773
466.437158
465.329233
464.193429
463.029142
461.835723
460.612471
459.358623
458.073347
456.755728
455.40476
454.019332
452.598216
451.140054
449.643344
448.106425
446.527469
444.904461
443.235197
441.51723
439.747654
437.923197
436.040225
434.094896
432.082882
429.999771
427.841144
425.602017
423.276525
420.858409
418.340973
415.717089
412.979227
410.119523
407.129889
404.002186
400.728484
397.30145
393.714883
389.964471
386.048794
381.970635
377.738601
373.369066
368.888304
364.334624
359.760138
355.231689
350.830207
346.64782
342.781478
339.323038
336.349285
333.909784
332.016886
330.641261
329.7153
329.144533
328.824477
328.658179
328.56925
328.506655
328.441785
328.359965
328.253924
328.122401
327.979665
327.847726
327.746942
327.677302
327.628793
327.585012
327.558695
327.53147
327.762803
472.518305
471.544346
470.545022
469.519864
468.468394
467.390119
466.284528
465.151088
463.989237
462.798378
461.577872
460.327031
459.045103
457.731271
456.384634
455.004204
453.588891
452.137492
450.648687
449.120935
447.552499
445.941452
444.285691
442.582846
440.830278
439.025258
437.164802
435.245616
433.263853
431.215315
429.095427
426.899214
424.621266
422.255717
419.796229
417.236003
414.567791
411.783938
408.876461
405.837181
402.657918
399.330807
395.848736
392.20598
388.399067
384.427925
380.297352
376.018807
371.612451
367.109295
362.553147
358.00198
353.528139
349.216075
345.157161
341.4443
338.162253
335.376367
333.121704
331.395519
330.155937
329.328179
328.817267
328.524023
328.360258
328.258986
328.177615
328.094741
328.00318
327.902708
327.795972
327.693925
327.61576
327.590671
327.593334
327.61796
327.637738
327.733895
328.199444
329.545524
472.502935
471.49792
470.466771
469.409034
468.324241
467.211913
466.071552
464.902642
463.704642
462.47698
461.219045
459.930181
458.609675
457.256752
455.870561
454.450139
452.994416
451.502218
449.972217
448.403002
446.793019
445.140522
443.443514
441.699786
439.906894
438.062139
436.162539
434.204806
432.185314
430.100073
427.944711
425.714443
423.404046
421.007846
418.519701
415.932997
413.240664
410.435208
407.508789
404.453355
401.260844
397.923517
394.434428
390.788102
386.981467
383.015091
378.894734
374.633224
370.252519
365.785794
361.279239
356.793071
352.400047
348.183646
344.234009
340.640748
337.483284
334.819897
332.677725
331.046589
329.879241
329.098968
328.613146
328.329305
328.165409
328.059841
327.974361
327.891067
327.805644
327.723017
327.654777
327.609799
327.584715
327.591733
327.648041
327.844343
328.472296
329.558293
331.264166
333.419128
472.482377
471.435822
470.362109
469.260801
468.131449
466.973592
465.786756
464.570453
463.324174
462.047385
460.739522
459.399981
458.02811
456.623211
455.184509
453.711176
452.202289
450.656804
449.073568
447.4513
445.788584
444.083843
442.33533
440.541103
438.699011
436.806673
434.861451
432.860433
430.800405
428.677824
426.488792
424.229028
421.893836
419.478084
416.976177
414.382047
411.68915
408.890485
405.978655
402.945973
399.784659
396.487139
393.046508
389.457197
385.715895
381.822782
377.783083
373.608921
369.321353
364.9524
360.546656
356.161625
351.867358
347.744705
343.881021
340.363389
337.269181
334.655527
332.549736
330.943442
329.792919
329.026466
328.557112
328.268074
328.093965
327.982115
327.89769
327.822759
327.752123
327.689489
327.643044
327.616041
327.61917
327.825127
328.316577
329.26249
330.649165
332.505469
334.782847
337.375314
472.455874
471.355766
470.227177
469.06969
467.88288
466.666311
465.41954
464.142114
462.833569
461.493427
460.121206
458.716403
457.27848
455.806847
454.300868
452.759851
451.183037
449.569595
447.918608
446.229064
444.499843
442.729707
440.917286
439.061063
437.159356
435.210304
433.211843
431.161685
429.057293
426.895858
424.674261
422.389046
420.036387
417.612042
415.11133
412.529089
409.859664
407.096891
404.234132
401.264339
398.1802
394.974396
391.639995
388.17104
384.563375
380.815741
376.931166
372.918609
368.794852
364.599588
360.361021
356.131371
351.975229
347.967943
344.191721
340.729389
337.656238
335.030488
332.884163
331.216731
329.993752
329.151526
328.60675
328.283091
328.09819
327.991614
327.925787
327.885796
327.869063
327.905437
328.02765
328.280977
328.721198
329.310104
330.190427
331.50827
333.315635
335.588731
338.113749
340.717641
472.422919
471.25622
470.059388
468.832031
467.573748
466.284136
464.962789
463.609302
462.223288
460.804371
459.352155
457.866237
456.346206
454.791634
453.202072
451.577045
449.916045
448.218528
446.483902
444.711526
442.900699
441.050653
439.160544
437.229441
435.256311
433.24001
431.17926
429.072626
426.918498
424.715054
422.460236
420.151706
417.786803
415.362497
412.875337
410.321401
407.696241
404.994851
402.211642
399.340461
396.374652
393.307226
390.131125
386.83968
383.427236
379.890051
376.227506
372.443771
368.571004
364.607422
360.589594
356.559392
352.572389
348.695112
345.002438
341.572712
338.480794
335.789559
333.541203
331.750123
330.399684
329.444179
328.816534
328.440511
328.240349
328.155802
328.136225
328.166389
328.245101
328.392727
328.650131
329.078676
329.762004
330.768655
332.122983
333.840068
335.876526
337.977033
340.227557
342.329402
472.383439
471.136962
469.858364
468.54728
467.20334
465.826175
464.415437
462.970805
461.491961
459.978609
458.430472
456.847291
455.228825
453.57485
451.885152
450.159533
448.3978
446.599771
444.765269
442.894118
440.986145
439.04117
437.059005
435.039443
432.982252
430.887161
428.753845
426.581908
424.370853
422.120048
419.828699
417.4958
415.120084
412.699962
410.233457
407.718131
405.151006
402.528499
399.846355
397.099613
394.282605
391.389037
388.412139
385.344989
382.180981
378.914531
375.542064
372.063367
368.496355
364.853705
361.145002
357.403275
353.671924
350.004567
346.463592
343.117038
340.033693
337.27668
334.896228
332.922821
331.362406
330.195058
329.378108
328.853252
328.55592
328.425482
328.411797
328.486442
328.642226
328.892211
329.271018
329.828506
330.604645
331.577126
332.828304
334.359712
335.930656
337.844096
339.883477
342.180178
472.337917
470.999451
469.626564
468.218918
466.77618
465.29804
463.784203
462.234408
460.64843
459.026085
457.367236
455.671794
453.93972
452.171027
450.365783
448.524111
446.646194
444.732273
442.782656
440.797712
438.777877
436.723651
434.6356
432.514344
430.36056
428.174962
425.958295
423.711314
421.434762
419.129327
416.795604
414.434052
412.044928
409.628217
407.183552
404.710111
402.206526
399.670766
397.100042
394.490713
391.838221
389.137084
386.380963
383.562862
380.675494
377.711852
374.665944
371.533401
368.30209
365.008104
361.651389
358.243781
354.815402
351.406565
348.066926
344.853603
341.827835
339.050234
336.574893
334.44334
332.679201
331.285184
330.242883
329.516156
329.05736
328.815453
328.745147
328.790712
328.955264
329.231361
329.628881
330.164144
330.824205
331.614684
332.876862
334.346076
336.066989
337.938721
339.852775
341.694949
472.287438
470.846957
469.369498
467.854752
466.302425
464.712249
463.08399
461.417465
459.712552
457.969192
456.187404
454.367286
452.509024
450.612897
448.679283
446.708665
444.701638
442.658916
440.581335
438.469861
436.325596
434.149774
431.94377
429.709094
427.447388
425.160412
422.850037
420.518219
418.166986
415.798388
413.414457
411.017147
408.608273
406.189422
403.761862
401.326426
398.883394
396.432358
393.972088
391.500404
389.014061
386.508675
383.978697
381.417474
378.817428
376.170358
373.467907
370.702237
367.856072
364.945574
361.990766
358.980653
355.926918
352.856288
349.803895
346.812555
343.931199
341.212102
338.706969
336.462302
334.514544
332.886061
331.58261
330.593323
329.893205
329.447953
329.220404
329.175081
329.240249
329.442778
329.766168
330.152355
330.690153
331.577566
332.567491
333.756316
335.189763
336.801162
338.493201
339.987965
472.233599
470.684312
469.095307
467.466298
465.797025
464.087264
462.336848
460.545675
458.713728
456.841082
454.927918
452.974534
450.981354
448.948937
446.87799
444.769377
442.624128
440.443452
438.228742
435.981586
433.703777
431.397312
429.064399
426.707455
424.329105
421.932164
419.519634
417.094671
414.660563
412.220692
409.778479
407.337323
404.90053
402.471221
400.052222
397.645944
395.254242
392.878269
390.518317
388.173664
385.842426
383.521442
381.20619
378.890772
376.568009
374.229662
371.866872
369.470897
367.034261
364.524325
361.960825
359.374708
356.747931
354.081775
351.397554
348.723614
346.094622
343.550296
341.133255
338.886111
336.848018
335.051154
333.517716
332.257999
331.270074
330.541154
330.05038
329.772629
329.686745
329.718747
329.868466
330.126635
330.549901
331.111744
331.875107
332.813081
333.930102
335.15712
336.541377
337.481924
472.178405
470.517564
468.814181
467.067985
465.278743
463.446276
461.570475
459.651321
457.6889
455.683421
453.635227
451.544818
449.412857
447.240187
445.02785
442.777092
440.489386
438.166437
435.810201
433.42289
431.006987
428.565246
426.100698
423.616652
421.116685
418.604631
416.084563
413.560767
411.03771
408.519991
406.012292
403.519312
401.045684
398.595887
396.174129
393.784221
391.429432
389.112324
386.834586
384.59686
382.398575
380.237817
378.111204
376.013827
373.939259
371.879668
369.826064
367.768741
365.697999
363.605158
361.466213
359.26798
357.065992
354.843434
352.585238
350.306923
348.029716
345.779843
343.587553
341.485582
339.50711
337.683404
336.041419
334.601724
333.377079
332.371909
331.582697
330.999162
330.606365
330.379363
330.313132
330.334335
330.532243
330.822891
331.224277
331.802763
332.530584
333.32236
334.33511
334.803759
472.124151
470.353648
468.537809
466.67637
464.769115
462.815902
460.816674
458.771484
456.680517
454.544104
452.362747
450.137133
447.868157
445.556939
443.204838
440.813476
438.384752
435.920855
433.424285
430.89786
428.344724
425.768359
423.172577
420.561524
417.939666
415.311775
412.682905
410.058369
407.443687
404.844542
402.266716
399.716015
397.198187
394.718826
392.283257
389.896416
387.562714
385.285873
383.068759
380.913202
378.81981
376.787816
374.814949
372.897344
371.02952
369.204459
367.413728
365.647731
363.896066
362.147982
360.392756
358.621823
356.798284
354.977853
353.152119
351.304327
349.437357
347.565982
345.709149
343.888499
342.127473
340.450026
338.879125
337.435234
336.13498
334.990168
334.007254
333.187288
332.52615
332.014449
331.640516
331.382655
331.214925
331.226839
331.398067
331.752015
332.179926
332.661053
333.305594
333.689021
472.07329
470.199972
468.27868
466.309144
464.291159
462.224603
460.109463
457.945854
455.734044
453.474475
451.16779
448.814852
446.416767
443.974909
441.490938
438.966823
436.404861
433.807691
431.178315
428.520107
425.836823
423.132607
420.411989
417.679879
414.941559
412.202656
409.469115
406.747169
404.043282
401.364094
398.716351
396.106816
393.542175
391.028928
388.57326
386.180918
383.857077
381.6062
379.4319
377.336798
375.322367
373.38876
371.534672
369.757224
368.051893
366.41257
364.831705
363.300551
361.80951
360.348628