/*--------------------------------*- C++ -*----------------------------------*\
  =========                 |
  \\      /  F ield         | OpenFOAM: The Open Source CFD Toolbox
   \\    /   O peration     | Website:  https://openfoam.org
    \\  /    A nd           | Version:  8
     \\/     M anipulation  |
\*---------------------------------------------------------------------------*/
FoamFile
{
    version     2.0;
    format      ascii;
    class       volVectorField;
    location    "0.009";
    object      U;
}
// * * * * * * * * * * * * * * * * * * * * * * * * * * * * * * * * * * * * * //

dimensions      [0 1 -1 0 0 0 0];

internalField   nonuniform List<vector> 
42400
(
(-0.0207364904 0.0198566325 -8.07905473e-27)
(-0.0618942945 0.0583720141 2.6093178e-26)
(-0.103514567 0.0962486895 2.55451759e-26)
(-0.145599875 0.133424437 0)
(-0.188100767 0.16983666 0)
(-0.230973678 0.20540641 -6.57153745e-28)
(-0.274180509 0.240053875 0)
(-0.317672639 0.273696434 7.2558883e-28)
(-0.3613834 0.30624499 0)
(-0.405227248 0.337604637 8.01367884e-28)
(-0.449102044 0.36767798 8.42229681e-28)
(-0.49289225 0.396368856 -8.8519999e-28)
(-0.536472192 0.423585635 8.16224509e-27)
(-0.579709126 0.449244015 1.34124642e-26)
(-0.622465925 0.473269279 -1.02780893e-27)
(-0.664603257 0.49559802 0)
(-0.705981197 0.516179318 0)
(-0.746460283 0.534975446 0)
(-0.785902096 0.551962194 0)
(-0.824169469 0.567128953 0)
(-0.861126404 0.580478628 0)
(-0.896637746 0.592027462 -2.91603879e-27)
(-0.930568633 0.60180479 7.91037408e-26)
(-0.962783653 0.609852725 1.82185643e-25)
(-0.993145654 0.616225725 1.04013529e-25)
(-1.0215141 0.620990008 -3.57539431e-27)
(-1.04774291 0.624222788 -3.76662729e-27)
(-1.07167839 0.626011664 7.94115479e-27)
(-1.09315736 0.626454442 0)
(-1.11200354 0.62565769 0)
(-1.12801945 0.62373271 -1.93952577e-25)
(-1.14098515 0.620786103 -2.11861505e-25)
(-1.15071524 0.616910512 1.02228542e-26)
(-1.15691759 0.612353081 2.74627813e-25)
(-1.15931182 0.607460282 3.27260611e-25)
(-1.15764076 0.601774849 0)
(-1.15125593 0.59581294 0)
(-1.14023512 0.589113969 0)
(-1.12327379 0.582843826 0)
(-1.09921133 0.576295656 3.95175685e-25)
(-1.06693343 0.569131363 4.82368631e-25)
(-1.02469952 0.561584378 5.94975656e-25)
(-0.972443014 0.553292302 1.40322652e-24)
(-0.908387662 0.544749262 -4.65923669e-26)
(-0.831055362 0.53580835 -7.71747899e-25)
(-0.738471125 0.526285034 -9.56774912e-25)
(-0.628505145 0.516019357 5.81508204e-26)
(-0.499374962 0.504610627 1.01486851e-24)
(-0.348179282 0.492172311 6.90444561e-26)
(-0.175769558 0.479245702 1.51960226e-24)
(0.0269204356 0.467627052 4.28703047e-33)
(0.252687612 0.457550906 -2.89229449e-24)
(0.524579203 0.44427897 -1.89206256e-24)
(0.841329814 0.427682227 2.19679419e-25)
(1.20634019 0.410008067 0)
(1.62679799 0.391946643 0)
(2.10901654 0.373126459 0)
(2.65780127 0.353851142 -2.98217594e-25)
(3.2795282 0.33462066 -3.18382248e-25)
(3.97978721 0.315096995 0)
(4.76264705 0.295118426 6.97502482e-24)
(5.63090267 0.275424438 7.65678917e-24)
(6.58614531 0.257290651 -7.45769542e-24)
(7.62929919 0.241603912 -6.91234998e-24)
(8.75538861 0.231978856 0)
(9.94730713 0.227762153 0)
(11.2232265 0.20346883 -4.63361306e-24)
(12.5446672 0.186972493 -3.73298758e-24)
(13.8355408 0.245875214 -1.44900812e-26)
(15.3110488 0.109796048 0)
(16.7644093 -0.0707817454 0)
(17.6090727 0.588399249 3.89663432e-25)
(18.9114095 0.70429478 3.70001981e-25)
(20.8355163 -0.688765743 0)
(21.7610035 -0.537051717 1.34036109e-24)
(22.1460292 0.891857909 7.39733658e-24)
(22.9990393 0.852626029 4.01942409e-24)
(23.7630415 -0.324421741 -3.41684203e-24)
(23.9534124 -0.723153572 -6.57824638e-25)
(23.9863652 -0.341447074 -2.38536821e-23)
(-0.0247515695 0.0219319479 0)
(-0.0734806643 0.064425949 2.05091707e-26)
(-0.122413163 0.106277709 1.93012145e-26)
(-0.171637202 0.147514292 0)
(-0.221116403 0.188097575 0)
(-0.270809189 0.227958715 1.16247691e-26)
(-0.320640615 0.267002518 9.97845544e-27)
(-0.37050932 0.305114534 1.04997961e-27)
(-0.42028583 0.342165235 0)
(-0.469817514 0.378016113 1.1605724e-27)
(-0.518935441 0.412526848 1.22013285e-27)
(-0.567460595 0.445561499 8.09375925e-27)
(-0.615208817 0.476993179 2.70482256e-26)
(-0.661994535 0.50670736 1.80219228e-26)
(-0.707633415 0.534604077 -2.51136126e-26)
(-0.751944059 0.560599223 -2.65122217e-26)
(-0.794748851 0.584625124 0)
(-0.835874116 0.606630568 3.48486364e-27)
(-0.875149729 0.62658047 0)
(-0.912408341 0.644455343 0)
(-0.947484318 0.660250687 0)
(-0.980212438 0.673976381 7.12838707e-26)
(-1.01042631 0.685656138 1.65307496e-25)
(-1.03795646 0.695327022 9.48588055e-26)
(-1.06262814 0.703038929 0)
(-1.08425913 0.70885434 -1.0343531e-26)
(-1.10265564 0.712847346 -5.40078814e-27)
(-1.11760419 0.715103732 1.13510611e-26)
(-1.12888217 0.715714141 1.53172331e-25)
(-1.13627114 0.714760316 1.65362766e-25)
(-1.13953553 0.712362445 -1.31874659e-26)
(-1.13832044 0.70878421 -1.38954901e-26)
(-1.13250439 0.703865775 2.98257999e-25)
(-1.12154489 0.698052166 2.82589044e-25)
(-1.10532909 0.69120917 -2.72702531e-25)
(-1.0831113 0.683975106 -2.49819445e-25)
(-1.05320272 0.675886452 0)
(-1.01451881 0.666834428 2.05598624e-26)
(-0.966303936 0.656791355 0)
(-0.907883372 0.646005422 4.55851746e-26)
(-0.8379001 0.634766283 5.22663001e-25)
(-0.754985241 0.623060332 5.21455268e-25)
(-0.657216066 0.610769051 5.36334879e-26)
(-0.542536568 0.597746219 -5.63175583e-26)
(-0.409486048 0.583422662 1.2197455e-25)
(-0.254412791 0.567697333 -6.54069179e-26)
(-0.0758257827 0.552367788 6.91785095e-26)
(0.124283825 0.540301862 8.65458812e-25)
(0.350380585 0.528380298 8.96212758e-25)
(0.62671704 0.511342813 0)
(0.944120733 0.491203025 -9.87912867e-26)
(1.3078476 0.47109738 2.05105001e-25)
(1.72513517 0.45099028 1.46368009e-24)
(2.20109371 0.430442164 2.09062075e-24)
(2.74167133 0.409563348 2.55640031e-25)
(3.35283594 0.388300239 4.7972321e-24)
(4.03981645 0.366500102 5.30399052e-24)
(4.80681786 0.344249162 -2.67964444e-25)
(5.65672615 0.322284797 -2.64003974e-25)
(6.59196067 0.302458306 6.85974906e-24)
(7.61197945 0.286626589 7.17580497e-24)
(8.71412207 0.275485455 1.86628431e-25)
(9.88939733 0.269432944 -1.51027117e-25)
(11.1278058 0.26751136 0)
(12.4131629 0.276652948 -5.62513377e-24)
(13.7063113 0.308619796 -9.97078275e-24)
(15.0317675 0.330687124 -4.81629282e-24)
(16.3887326 0.290243253 0)
(17.6468063 0.362306691 2.02108169e-26)
(18.828917 0.479738034 2.98110365e-25)
(20.2366632 0.198943068 3.43380608e-24)
(21.275318 0.203643069 1.1114908e-24)
(21.9830497 0.832194559 -5.04447389e-24)
(22.891438 0.731311344 -1.4910525e-23)
(23.6896029 0.0212893779 5.84151807e-26)
(23.8612711 0.135886885 -8.48544377e-25)
(23.9422098 0.457565235 -1.27395249e-24)
(23.915674 0.675540669 -2.26091799e-24)
(23.9105132 0.428089681 -1.50474304e-23)
(23.9479623 0.0485434657 -1.81506e-23)
(-0.0282027946 0.0230969079 2.44752289e-27)
(-0.083446117 0.067820517 4.79745653e-28)
(-0.138678653 0.111915945 -5.07619257e-28)
(-0.194054069 0.155475013 5.32417639e-28)
(-0.249571786 0.198491244 0)
(-0.305147524 0.240886863 -8.26395182e-27)
(-0.360685628 0.282558297 1.16223594e-33)
(-0.416025151 0.323369245 2.61227104e-27)
(-0.470969259 0.363159048 -6.27874794e-28)
(-0.52529445 0.401755355 -8.48254908e-27)
(-0.578760547 0.43898477 -6.71598269e-27)
(-0.631119874 0.47468102 1.61288755e-27)
(-0.68212403 0.508690719 1.6967415e-27)
(-0.731528392 0.540877129 -2.28120746e-26)
(-0.77909478 0.571122319 -2.85494871e-26)
(-0.824592659 0.599328107 5.92950562e-27)
(-0.867799168 0.625416095 3.7217044e-26)
(-0.908498283 0.649327086 9.69699966e-26)
(-0.946479294 0.671020164 5.60790337e-26)
(-0.981534691 0.690471681 4.84830314e-27)
(-1.01345758 0.707674366 -5.09432098e-27)
(-1.04203886 0.722636538 -5.35216133e-27)
(-1.06706401 0.735380928 0)
(-1.08830593 0.745940513 1.17621706e-26)
(-1.10552765 0.754353236 -1.10757693e-25)
(-1.11848389 0.760663813 7.39609526e-29)
(-1.12692406 0.764911746 1.33007228e-25)
(-1.13052186 0.767193754 1.5079043e-25)
(-1.12918796 0.767599056 1.73434115e-25)
(-1.122557 0.766361597 -1.80355661e-25)
(-1.11030463 0.763759301 -1.63257707e-26)
(-1.09238386 0.759708865 3.36231976e-25)
(-1.0672213 0.754486487 2.13173997e-25)
(-1.03409493 0.747681673 0)
(-0.991974682 0.739301634 0)
(-0.939665356 0.729595426 -2.13625171e-26)
(-0.877050019 0.718669363 0)
(-0.802788056 0.706899675 4.70547361e-26)
(-0.715561875 0.694297367 3.61502083e-25)
(-0.613558596 0.68081815 1.0539647e-25)
(-0.494862693 0.666423464 -3.385536e-25)
(-0.3580495 0.650696675 0)
(-0.199877312 0.633727051 0)
(-0.0186149678 0.617744945 6.4466133e-25)
(0.179992068 0.604053088 6.04947015e-25)
(0.417323971 0.587959109 7.47060971e-26)
(0.691507889 0.569093325 0)
(1.00681432 0.549324156 0)
(1.36826267 0.529595419 9.9038625e-25)
(1.78150966 0.509732478 1.06554492e-24)
(2.25088927 0.489602405 -9.98819234e-26)
(2.78218804 0.46947901 0)
(3.38115995 0.449337405 -1.27909429e-24)
(4.05271916 0.429081492 -1.7499488e-24)
(4.80135006 0.40894408 -3.87575569e-24)
(5.63069637 0.390080683 -4.27545653e-24)
(6.54294549 0.373843349 -5.11588352e-24)
(7.53800741 0.361164094 -2.57568933e-32)
(8.61261159 0.352701071 2.89655157e-32)
(9.76191922 0.348472824 -1.35323817e-23)
(10.9748166 0.349920318 -6.78087699e-24)
(12.2368174 0.359114927 6.73835526e-24)
(13.5294061 0.377508799 6.65570376e-24)
(14.8387377 0.400669788 0)
(16.1472578 0.430895277 6.6394906e-24)
(17.4039217 0.48375813 1.23324441e-23)
(18.5984902 0.574048771 5.97337973e-24)
(19.7736334 0.578908148 0)
(20.9278834 0.547600716 -2.71925579e-26)
(21.7856796 0.67562964 6.91080444e-24)
(22.7198354 0.695701838 1.44192392e-23)
(23.4430213 0.512891959 0)
(23.7216041 0.535999487 0)
(23.8057099 0.768168484 9.74582936e-25)
(23.8487584 0.752860426 -7.10850307e-25)
(23.8639615 0.620682671 5.71224975e-24)
(23.8749679 0.540279251 1.01562388e-23)
(23.8886067 0.495934497 0)
(23.878857 0.568426294 -1.92274786e-24)
(23.8666147 0.489254917 1.50537778e-23)
(-0.0312356474 0.0236047919 3.57601576e-28)
(-0.092202272 0.0692627767 5.62773779e-28)
(-0.152969449 0.11428116 5.84176351e-27)
(-0.213744481 0.158797305 -3.48588469e-27)
(-0.274535819 0.202825907 -3.73123384e-27)
(-0.335262166 0.24629847 0)
(-0.395744234 0.28908362 -2.9082668e-27)
(-0.455753871 0.331022305 -9.45661857e-28)
(-0.515055444 0.371939458 4.36760465e-27)
(-0.573343423 0.411644083 8.2313966e-27)
(-0.630301178 0.449938524 1.61097709e-26)
(-0.68560766 0.486634983 4.60381434e-34)
(-0.738944927 0.521562553 2.00398889e-27)
(-0.790003326 0.554570922 2.69958095e-33)
(-0.838484043 0.585532312 -2.21949483e-27)
(-0.884099516 0.614342114 4.57908007e-26)
(-0.926572282 0.640918635 -5.3249869e-26)
(-0.965632744 0.665202225 -5.12627036e-27)
(-1.0010164 0.687153725 6.43048232e-26)
(-1.03245525 0.706748666 5.66205584e-27)
(-1.05967373 0.723973582 -1.19484403e-26)
(-1.08239096 0.73882422 -8.94756308e-26)
(-1.10033724 0.751272795 -9.68430308e-26)
(-1.11320932 0.761410755 6.83015525e-27)
(-1.12077732 0.769310965 0)
(-1.12277691 0.775098954 7.47697629e-27)
(-1.1189437 0.779001672 0)
(-1.10908236 0.781104289 1.61451447e-25)
(-1.09202417 0.781285102 3.14079361e-25)
(-1.06717202 0.779462747 1.83230469e-25)
(-1.03371661 0.775623718 -1.82385441e-25)
(-0.990535901 0.769898491 -2.30876485e-25)
(-0.937364498 0.762509697 4.20955019e-26)
(-0.873287203 0.753721729 2.20767372e-26)
(-0.797177189 0.743625411 -2.61761305e-25)
(-0.707760804 0.732280764 -3.03581842e-25)
(-0.603372389 0.719727834 0)
(-0.48218241 0.705994415 3.168735e-25)
(-0.342724934 0.690739068 3.27838304e-25)
(-0.182037977 0.674051956 5.79896774e-26)
(0.00181828051 0.658143302 6.09072044e-26)
(0.202602213 0.644300048 0)
(0.441852204 0.628181073 0)
(0.716765048 0.609638268 0)
(1.03161012 0.590682634 7.78340393e-26)
(1.39101046 0.572023018 7.201811e-25)
(1.7995872 0.553655075 6.93766595e-25)
(2.26240331 0.535710178 0)
(2.78483369 0.518299683 0)
(3.37214496 0.501441288 9.85622512e-25)
(4.0291211 0.485393213 1.07300137e-24)
(4.76032962 0.470814953 1.39290723e-24)
(5.56928366 0.458834303 1.60913419e-24)
(6.45792471 0.450408466 -2.00527059e-25)
(7.42592544 0.446080254 -2.32345581e-24)
(8.47066622 0.446191177 -2.32941704e-24)
(9.58712336 0.451312968 -5.8341929e-24)
(10.7689934 0.460919954 -6.0953593e-24)
(12.0045615 0.475659152 0)
(13.2777034 0.496640045 4.65439869e-26)
(14.5688166 0.525618436 -6.8736517e-24)
(15.8554109 0.562454222 -1.41866486e-23)
(17.1156664 0.608762231 6.93170901e-26)
(18.3287638 0.654606569 1.08385929e-25)
(19.4856533 0.701802725 -8.18677276e-24)
(20.545022 0.743123305 7.95960745e-24)
(21.4792129 0.818746718 8.0966927e-24)
(22.2912693 0.882748112 -6.49776309e-25)
(23.0651117 0.840928126 -1.15390511e-23)
(23.6167519 0.812834269 -1.25369609e-23)
(23.7337969 0.871171547 1.99020566e-26)
(23.7633778 0.911369533 -4.01887784e-24)
(23.7801941 0.911267317 -8.96355544e-24)
(23.7877234 0.852991093 0)
(23.8083958 0.840485648 -1.12419782e-23)
(23.8251227 0.768245833 -3.13494e-23)
(23.8304865 0.733962496 1.9433308e-24)
(23.8320721 0.70700796 1.09332388e-23)
(23.8517393 0.595102856 1.36679579e-23)
(23.8508064 0.547971324 1.74725176e-23)
(-0.0340597867 0.0237020861 2.16410851e-27)
(-0.100332062 0.0694597297 0)
(-0.166197206 0.114517437 0)
(-0.231899563 0.15903908 1.14987511e-30)
(-0.297444688 0.203049893 0)
(-0.362716919 0.246485912 0)
(-0.427511853 0.289223138 0)
(-0.491554591 0.331084825 -3.51660438e-27)
(-0.55445396 0.371863426 0)
(-0.615866079 0.411346357 1.95712683e-27)
(-0.675395164 0.449332471 2.13507099e-26)
(-0.732637434 0.485625399 2.71417557e-33)
(-0.787198398 0.52004545 -2.61680085e-26)
(-0.838695275 0.552436657 0)
(-0.886758088 0.582668453 -2.51977483e-27)
(-0.931028944 0.610635953 5.31439223e-27)
(-0.971154694 0.63625688 0)
(-1.0067849 0.659469968 6.42848004e-26)
(-1.03760059 0.680194636 6.16367225e-27)
(-1.06323705 0.698498338 -1.48592012e-25)
(-1.08343079 0.71437897 -9.52643463e-26)
(-1.09789096 0.727913846 7.03527775e-27)
(-1.10629646 0.739267556 0)
(-1.10806692 0.74823657 -1.38532339e-25)
(-1.10265799 0.754916425 -1.48359412e-25)
(-1.08948115 0.759304099 -1.49875119e-25)
(-1.06784057 0.761403981 -1.71453821e-25)
(-1.03684724 0.761265742 1.8832642e-25)
(-0.996226116 0.75921632 1.93119211e-25)
(-0.94509312 0.755368744 0)
(-0.882481433 0.749794068 -2.16242147e-25)
(-0.807306717 0.742569307 -2.28709982e-25)
(-0.718292864 0.733782152 2.33015963e-26)
(-0.613832567 0.723523415 -2.2926342e-25)
(-0.492193689 0.711858979 -2.49544808e-25)
(-0.351882612 0.698538965 -5.3082888e-26)
(-0.190196113 0.683694218 2.82510561e-26)
(-0.00518722028 0.669386917 -3.82944265e-25)
(0.197283977 0.656718505 -2.84970936e-25)
(0.437549294 0.641987385 3.21920767e-25)
(0.712644187 0.625147592 8.70945678e-25)
(1.02653447 0.608282286 5.30930898e-25)
(1.38366119 0.592055888 0)
(1.7882037 0.576403198 -7.64319697e-26)
(2.24488368 0.561516681 -5.45983883e-25)
(2.75879642 0.547640404 -8.2900595e-26)
(3.33490717 0.535146369 1.64537502e-32)
(3.97800815 0.524675395 -7.55226727e-25)
(4.69253193 0.517050266 0)
(5.48167536 0.513159043 -8.73793418e-26)
(6.34717228 0.513695794 -1.45049767e-24)
(7.28893903 0.519204365 -1.51032923e-24)
(8.30486576 0.530219889 -2.91721331e-25)
(9.39061945 0.547350606 -2.41932614e-24)
(10.5392441 0.571264026 -2.54523013e-24)
(11.7418229 0.601350306 -2.77098492e-24)
(12.9851021 0.637515002 -8.66081334e-24)
(14.2520989 0.679706436 -6.09296655e-24)
(15.5233126 0.727458069 -6.42527828e-24)
(16.7769597 0.779065103 -6.87724611e-24)
(17.9904025 0.83527338 0)
(19.1360443 0.892593832 1.04841933e-25)
(20.1971401 0.957165394 -7.92694816e-24)
(21.1426933 1.00764124 -8.71033096e-24)
(21.9926391 1.05682329 -4.52953284e-26)
(22.6955236 1.07685587 0)
(23.2697094 1.0876157 1.18146503e-23)
(23.6915206 1.10991023 9.81019032e-24)
(23.7803307 1.12493749 5.93333839e-25)
(23.7771291 1.16438958 -4.46030528e-25)
(23.749488 1.14993502 -4.50606659e-26)
(23.7483516 1.10807867 -1.07587224e-24)
(23.7884776 1.03788434 -9.80682372e-24)
(23.8057157 1.00269183 -8.74802611e-24)
(23.8153889 0.972507643 -6.75960557e-25)
(23.8240366 0.939486455 0)
(23.83256 0.899806235 -9.97065163e-24)
(23.8395766 0.863838304 -1.12937715e-23)
(23.8689603 0.815207721 0)
(23.8495288 0.758241828 -9.87133943e-24)
(-0.036828251 0.0235402557 -3.28037221e-27)
(-0.108238697 0.0688511999 -4.29702975e-27)
(-0.178962558 0.11334984 -5.1203761e-27)
(-0.249264578 0.157214118 -8.0409742e-28)
(-0.319134105 0.200475099 1.5949915e-27)
(-0.388415061 0.243068535 -1.78776381e-27)
(-0.456841998 0.284866986 3.62142874e-27)
(-0.524059366 0.325697672 1.51274906e-27)
(-0.589654443 0.365348287 2.0943524e-27)
(-0.653123135 0.403587908 4.40867178e-27)
(-0.713964271 0.440198605 -8.21453903e-27)
(-0.77171449 0.474980308 -4.25006929e-26)
(-0.825907034 0.507760138 -3.55641982e-26)
(-0.87606663 0.538395531 -4.01246039e-26)
(-0.921735805 0.566762431 2.85445462e-27)
(-0.962490815 0.592726577 6.14511544e-26)
(-0.997889409 0.616321079 0)
(-1.02753089 0.637434598 0)
(-1.0509166 0.656074232 9.30566858e-26)
(-1.06763632 0.672181989 2.1819343e-25)
(-1.07714447 0.685790609 1.16303639e-25)
(-1.07887014 0.696899933 1.26425941e-25)
(-1.0721847 0.705490773 2.54212329e-33)
(-1.05664063 0.711818189 -1.56649074e-25)
(-1.03156608 0.71591373 1.51601592e-25)
(-0.996187371 0.7178552 3.46428832e-25)
(-0.949645572 0.717721698 1.75385974e-25)
(-0.890984008 0.715594393 -1.05402184e-26)
(-0.819110501 0.71157984 1.10319109e-26)
(-0.732749485 0.705808687 -2.31317024e-26)
(-0.63038633 0.698406365 0)
(-0.510352008 0.689466964 2.61374005e-25)
(-0.371102842 0.678847058 -2.61100013e-26)
(-0.210215643 0.666699726 -3.34212127e-25)
(-0.0257907442 0.654843136 0)
(0.17721972 0.644175867 -2.94268946e-25)
(0.417107393 0.631764575 -2.41060835e-25)
(0.691223237 0.617612231 0)
(1.00312403 0.603672902 0)
(1.3569548 0.590569878 -3.71911346e-25)
(1.75660641 0.578324557 -4.27733109e-25)
(2.20651823 0.567239318 1.48929157e-25)
(2.71150946 0.557750337 0)
(3.27634111 0.550518886 5.18118825e-25)
(3.90549091 0.5462743 1.27044059e-24)
(4.60295751 0.54568363 6.81590632e-25)
(5.37173198 0.549485997 7.9480917e-26)
(6.21363557 0.558366909 -2.46413886e-27)
(7.129045 0.57300294 0)
(8.11657904 0.594112192 -1.47615948e-24)
(9.17268004 0.622394617 -1.14117932e-25)
(10.291217 0.658435928 2.00305174e-24)
(11.4632817 0.702720599 -5.9887804e-26)
(12.6774159 0.754866085 -2.61898098e-24)
(13.9189007 0.81428118 -5.42569787e-24)
(15.1698655 0.880358285 3.40648425e-33)
(16.4106718 0.951722529 2.9632503e-24)
(17.6196822 1.02710646 0)
(18.7740342 1.10344595 0)
(19.8537063 1.18003465 1.0779098e-25)
(20.8336147 1.25265808 1.11221552e-25)
(21.7080959 1.32039411 0)
(22.4480193 1.38363019 6.57715952e-24)
(23.0573883 1.43002733 8.15292309e-24)
(23.5169849 1.47557703 -1.16648595e-23)
(23.7995297 1.48707805 -2.39595761e-23)
(23.8792175 1.47482475 -9.29834523e-24)
(23.8606249 1.46713616 -5.31456284e-24)
(23.8025764 1.48086578 -9.30115813e-24)
(23.7894405 1.43587617 -1.24791844e-24)
(23.800177 1.39313397 1.17708559e-23)
(23.8062136 1.36232139 6.57581852e-24)
(23.8488433 1.3142411 -1.06379782e-23)
(23.8846512 1.25717381 -1.13593258e-23)
(23.8864773 1.21948637 -9.79140571e-24)
(23.8898552 1.18358798 -1.02216894e-23)
(23.9249376 1.13316095 -8.85889297e-24)
(23.9556732 1.11025982 1.34816982e-31)
(23.9935791 1.09108906 2.53454213e-23)
(23.9561299 1.04720569 2.27045597e-23)
(-0.0395945388 0.0231721452 1.50206386e-27)
(-0.116029029 0.0675971875 8.17951454e-28)
(-0.191367776 0.111052867 2.7655832e-27)
(-0.26587503 0.15371999 -1.42691068e-33)
(-0.339506008 0.195630503 -3.47475387e-28)
(-0.412048015 0.236719078 -5.14554401e-28)
(-0.483161934 0.27685503 7.24137169e-27)
(-0.552405313 0.315861311 3.77914701e-27)
(-0.619260088 0.353533243 8.67859449e-27)
(-0.683166053 0.389657308 1.13827137e-26)
(-0.743556974 0.42401592 1.44238602e-26)
(-0.799814947 0.456437816 1.55012176e-26)
(-0.851359636 0.486716302 2.24144226e-26)
(-0.897609466 0.514721829 2.97575782e-26)
(-0.937999396 0.540341119 3.19469721e-27)
(-0.971946513 0.563528999 3.34409579e-27)
(-0.998918525 0.584143841 8.56971437e-26)
(-1.01831392 0.602229025 9.48507678e-26)
(-1.0295726 0.617795057 -7.73924877e-27)
(-1.03207685 0.630854251 -8.1873546e-27)
(-1.02515877 0.64143894 1.22137473e-25)
(-1.00810329 0.649611982 1.34130885e-25)
(-0.980092819 0.655433601 0)
(-0.940275661 0.658984459 9.89020825e-27)
(-0.887673287 0.660381647 0)
(-0.821187054 0.65974933 0)
(-0.739575201 0.657222158 1.13471227e-26)
(-0.641393445 0.652939388 -2.51338606e-25)
(-0.524998266 0.647053042 -2.20113307e-25)
(-0.388805982 0.639542875 2.22895167e-25)
(-0.230712843 0.63052003 3.11277768e-25)
(-0.0487963205 0.621452025 2.73938773e-26)
(0.15352896 0.613193454 -2.83462237e-26)
(0.389963212 0.603732427 0)
(0.661802636 0.592741218 3.20456021e-26)
(0.970081322 0.582101907 0)
(1.31905275 0.572553554 0)
(1.71242376 0.564174155 3.5483748e-26)
(2.15437624 0.557416109 0)
(2.64936882 0.552828446 0)
(3.20173652 0.551039561 5.46336787e-25)
(3.81557534 0.552731339 6.85765782e-25)
(4.4945818 0.558574042 0)
(5.24167953 0.569294388 0)
(6.0588601 0.585661304 0)
(6.94687746 0.60845604 7.35412426e-26)
(7.90488944 0.63842493 6.54412202e-26)
(8.93010146 0.676231382 1.38847882e-24)
(10.01742 0.722397419 1.70856097e-24)
(11.159169 0.77724621 2.01771627e-24)
(12.3449642 0.84089332 2.37293356e-24)
(13.56168 0.912943936 2.63645397e-24)
(14.7934908 0.99251243 2.7696569e-24)
(16.0211792 1.07857415 0)
(17.2252657 1.16961307 0)
(18.383937 1.26290119 -3.02875659e-24)
(19.478832 1.35559827 -6.37243826e-24)
(20.4865643 1.44709946 -3.37801824e-24)
(21.392599 1.53218357 -3.38876777e-24)
(22.1860097 1.61217122 -2.65982868e-24)
(22.8404047 1.66698524 8.65140581e-24)
(23.4093326 1.7235526 2.35988099e-23)
(23.7292072 1.74277699 3.22710311e-25)
(23.885598 1.78744105 -9.58546501e-24)
(23.9031834 1.7999429 3.82762335e-25)
(23.9095842 1.78090597 -4.93237743e-25)
(23.8858028 1.80862269 7.60228405e-24)
(23.8662763 1.77774019 -1.01080085e-31)
(23.8701274 1.75428712 -7.53634702e-24)
(23.8805842 1.72748332 -7.72816974e-25)
(23.8888594 1.69994629 8.74084415e-24)
(23.9045872 1.66954008 9.66034213e-24)
(23.9248536 1.61677703 0)
(23.9483016 1.56285553 8.33863023e-25)
(23.9609675 1.51534453 0)
(23.9826682 1.46192814 1.13687869e-23)
(24.0594054 1.38336707 2.42270162e-23)
(24.1007001 1.3362607 1.59366835e-23)
(24.0912974 1.32555747 9.10859629e-24)
(24.0709068 1.3136892 3.72222916e-23)
(-0.0422678074 0.0225598976 1.25557837e-27)
(-0.123395159 0.0655962723 3.61016674e-27)
(-0.20284453 0.107476783 -9.80319493e-28)
(-0.280854909 0.148376775 -6.03689535e-28)
(-0.357327337 0.188325577 1.40597206e-27)
(-0.431975557 0.227257725 2.46381706e-27)
(-0.504373119 0.265044381 -2.41875036e-27)
(-0.573981108 0.301513343 -1.17850834e-26)
(-0.640172822 0.336481725 -1.57359615e-26)
(-0.702276382 0.369728218 -1.99097065e-26)
(-0.759575918 0.401068871 0)
(-0.811363186 0.430303955 -6.26052232e-27)
(-0.85689807 0.457314123 3.29936943e-27)
(-0.895484364 0.481962403 0)
(-0.92641517 0.504165702 0)
(-0.948978801 0.523871796 0)
(-0.962445411 0.541053689 0)
(-0.966054961 0.5557169 -4.21538508e-27)
(-0.959020809 0.567881848 0)
(-0.940527351 0.577612734 -7.93643679e-26)
(-0.909589252 0.584993742 -8.71727477e-26)
(-0.865242771 0.590106888 1.60190019e-25)
(-0.806376766 0.593088089 1.85436548e-25)
(-0.731764317 0.594082195 -1.90191046e-25)
(-0.640006751 0.593254396 -2.28309903e-25)
(-0.529532246 0.590797013 -2.24623092e-25)
(-0.39877868 0.586771987 -2.23049824e-25)
(-0.245887342 0.581213954 -3.11075631e-25)
(-0.0679833558 0.575091591 -6.41904808e-25)
(0.131667264 0.569613614 -2.8114811e-25)
(0.361774687 0.56365912 0)
(0.629072011 0.556289878 -3.17194079e-26)
(0.931803735 0.549149702 -3.31085779e-26)
(1.27410439 0.543343458 0)
(1.65945988 0.539052667 3.49207739e-26)
(2.09166421 0.536710145 0)
(2.57481485 0.536892284 0)
(3.11289498 0.54024064 5.62780709e-25)
(3.70969261 0.547443858 -4.01840336e-26)
(4.36868682 0.559219683 -6.48738022e-25)
(5.09275595 0.576348256 7.72254429e-25)
(5.8839499 0.599637097 8.33782688e-25)
(6.74323915 0.629866639 3.9462302e-26)
(7.67019582 0.667755307 0)
(8.66267962 0.713917895 1.23310115e-24)
(9.71653934 0.768815135 1.59062461e-24)
(10.8253389 0.83269608 0)
(11.9801341 0.905546508 0)
(13.1693237 0.987060975 -2.50009997e-24)
(14.3786009 1.07661671 -2.86009183e-24)
(15.5914847 1.17282537 2.97621929e-24)
(16.7881993 1.27413247 3.15822515e-24)
(17.948884 1.37894616 -3.23061129e-24)
(19.0512554 1.48387834 1.47876944e-32)
(20.0781343 1.58745451 3.58765935e-24)
(21.0063461 1.68383855 1.85244031e-26)
(21.8353965 1.77214963 0)
(22.534769 1.84313087 2.60128103e-25)
(23.1371045 1.90506428 -4.93020686e-24)
(23.5576585 1.93723021 3.20115298e-25)
(23.8091052 1.97600358 5.97300053e-24)
(23.8436319 1.99532775 0)
(23.8841758 1.97684987 2.92130915e-25)
(23.8968758 1.95001394 0)
(23.8965167 1.93216395 2.36029774e-25)
(23.8757741 1.92063731 -3.56545515e-25)
(23.881432 1.87691255 -9.80657323e-25)
(23.8781492 1.86277974 -1.12975174e-23)
(23.8736016 1.86689646 -8.58763508e-24)
(23.8807283 1.8275298 -6.67124789e-25)
(23.8890142 1.80449205 -9.66256638e-24)
(23.8991621 1.76509263 -9.91097341e-24)
(23.9316066 1.73715718 -1.07945067e-23)
(23.9414645 1.69792675 -1.10925337e-23)
(23.9551246 1.664126 -1.26282951e-23)
(23.9940625 1.62141817 -1.36521583e-23)
(24.054512 1.5638311 1.24148151e-23)
(24.0999665 1.49757078 1.13778801e-23)
(24.1141403 1.45761 -2.05594533e-24)
(24.1014226 1.4384781 1.18521742e-24)
(-0.0447186682 0.0216604766 8.08645394e-28)
(-0.129903803 0.0627296627 -3.10268013e-27)
(-0.212600331 0.102440788 -1.12181182e-27)
(-0.292991862 0.140958445 -1.15403478e-33)
(-0.370900324 0.178307895 4.23868239e-27)
(-0.445940646 0.21443233 -1.31193858e-27)
(-0.517572379 0.249204196 1.05481002e-26)
(-0.585123401 0.282468661 2.20406513e-33)
(-0.647835267 0.314033149 -3.17527861e-26)
(-0.704874098 0.343732398 -2.14160261e-26)
(-0.75539239 0.371387797 3.4038838e-27)
(-0.798521942 0.396855 -3.46032404e-26)
(-0.833390049 0.42001999 -3.2680136e-26)
(-0.859120997 0.44080163 -4.2178241e-26)
(-0.874826997 0.459153676 -4.83382773e-26)
(-0.879601017 0.475062801 5.50899979e-26)
(-0.87249107 0.488562511 6.1879537e-26)
(-0.852559213 0.499675459 -4.75114852e-27)
(-0.81865097 0.508516437 0)
(-0.769671628 0.51516123 -7.89041106e-26)
(-0.704366984 0.519760903 -9.23539946e-26)
(-0.62134871 0.522477927 -1.15894415e-26)
(-0.519086748 0.523504541 1.0583802e-25)
(-0.396019967 0.522934856 1.2528303e-25)
(-0.25033176 0.520866332 -2.63569768e-26)
(-0.0794694663 0.518135227 0)
(0.114378447 0.515793996 1.41612242e-26)
(0.337546065 0.513253315 1.63286226e-28)
(0.596925404 0.509842004 -3.33046925e-25)
(0.891176879 0.506722289 -3.67749043e-25)
(1.22412908 0.505024951 3.81979685e-25)
(1.59904534 0.505032818 3.44971851e-25)
(2.0192688 0.507157254 -7.35809854e-26)
(2.48851048 0.512032989 -4.24247311e-25)
(3.01043221 0.520349786 -2.81039377e-32)
(3.58854032 0.532846457 5.5505901e-25)
(4.22608439 0.550286074 -6.56809397e-25)
(4.9258329 0.573459588 -6.8530452e-25)
(5.68983803 0.603173567 -8.47168532e-26)
(6.51922717 0.640198162 4.26221985e-26)
(7.41392356 0.685236348 4.06348153e-26)
(8.37235899 0.738885674 -1.17130926e-24)
(9.39118539 0.801586906 -2.69585949e-24)
(10.465005 0.873564588 -1.59907908e-24)
(11.5861448 0.954765197 -1.93082731e-24)
(12.7445053 1.04479887 -2.19013864e-24)
(13.9275051 1.14289463 0)
(15.1201974 1.247932 2.9215766e-24)
(16.305608 1.35827825 3.20238392e-24)
(17.4643105 1.47202563 3.37105359e-24)
(18.5757731 1.58711985 7.03393961e-24)
(19.6194134 1.70042892 7.29761916e-24)
(20.5773766 1.80968777 7.55409903e-24)
(21.4306334 1.91051245 7.75616695e-24)
(22.171446 2.00074553 3.92572053e-24)
(22.7814923 2.0731971 -3.51052117e-25)
(23.2945198 2.12566775 0)
(23.6494719 2.1709251 -5.70751008e-24)
(23.7855114 2.18605212 -5.16268602e-24)
(23.8312414 2.19658525 0)
(23.8376153 2.20842377 -3.7836353e-24)
(23.8436766 2.19215494 -3.64597727e-24)
(23.8359231 2.18773045 0)
(23.8374511 2.16348313 -1.67115989e-25)
(23.8312449 2.11748142 0)
(23.8363911 2.09454175 -8.00995041e-24)
(23.843744 2.05908618 -6.50345542e-25)
(23.8596111 1.99880338 7.89903046e-24)
(23.8618721 1.95791331 -7.62354041e-25)
(23.8632325 1.95284657 -5.00182285e-25)
(23.874706 1.91321708 -1.17848465e-23)
(23.8901995 1.87527469 -1.12223603e-23)
(23.9276584 1.85716318 -6.78877368e-25)
(23.9551164 1.81267107 -7.35286265e-25)
(23.9676533 1.79005442 -6.03090517e-26)
(24.0127419 1.75285803 -8.78790527e-25)
(24.080407 1.70983846 1.22789428e-23)
(24.112267 1.66033652 2.53563954e-23)
(24.1168008 1.66482903 8.52649598e-24)
(24.104787 1.59357719 -1.45331754e-24)
(-0.0466728205 0.0203928742 0)
(-0.134682719 0.0587819633 -1.22426469e-27)
(-0.219095743 0.0956254225 1.29069122e-27)
(-0.299996707 0.131074187 -6.90848521e-27)
(-0.377088578 0.165148921 1.43294436e-27)
(-0.449853553 0.19778765 1.51009507e-27)
(-0.517598629 0.228890371 -1.52898702e-26)
(-0.579501158 0.258315709 0)
(-0.634636892 0.285913303 3.50820204e-27)
(-0.682018096 0.311537676 -2.88320534e-26)
(-0.720620541 0.335062292 -3.03173189e-26)
(-0.749397665 0.356388956 3.99677607e-26)
(-0.767285831 0.375453134 4.30020806e-27)
(-0.773203044 0.392227243 -1.01614865e-25)
(-0.766028595 0.406735882 -1.20015212e-25)
(-0.744667448 0.418995292 -6.19073094e-26)
(-0.707801557 0.429128296 -5.21766077e-27)
(-0.654197088 0.437217018 -8.31817221e-26)
(-0.582452648 0.443431451 -8.56521165e-26)
(-0.491070094 0.447957581 5.9378304e-27)
(-0.378500139 0.450919885 -6.27785675e-27)
(-0.242951868 0.452507255 -2.61931845e-26)
(-0.08217169 0.453450271 -1.39515659e-25)
(0.102442722 0.454492486 -2.67647486e-25)
(0.316632498 0.455334761 -1.31878004e-25)
(0.565555169 0.455686834 -1.57532675e-26)
(0.84890398 0.456513582 -1.42959429e-25)
(1.17006352 0.458810474 1.69417848e-26)
(1.53206425 0.462965488 -1.76095466e-26)
(1.93798149 0.469445457 -1.88785174e-25)
(2.3911855 0.478911736 0)
(2.89503889 0.492062477 -5.03800278e-25)
(3.45276848 0.509646413 -4.10346821e-26)
(4.06739157 0.532440858 6.21423161e-25)
(4.74154676 0.561237799 6.82437226e-25)
(5.4772672 0.596842745 7.55423236e-25)
(6.27580359 0.640025293 -4.41024083e-26)
(7.13737276 0.691488546 0)
(8.06089258 0.751830873 -8.80188153e-26)