/*--------------------------------*- C++ -*----------------------------------*\
  =========                 |
  \\      /  F ield         | OpenFOAM: The Open Source CFD Toolbox
   \\    /   O peration     | Website:  https://openfoam.org
    \\  /    A nd           | Version:  8
     \\/     M anipulation  |
\*---------------------------------------------------------------------------*/
FoamFile
{
    version     2.0;
    format      ascii;
    class       volScalarField;
    location    "0.041";
    object      T;
}
// * * * * * * * * * * * * * * * * * * * * * * * * * * * * * * * * * * * * * //

dimensions      [0 0 0 1 0 0 0];

internalField   nonuniform List<scalar> 
42400
(
472.187366
470.543891
468.856759
467.124645
465.346257
463.520353
461.645765
459.721427
457.746403
455.719919
453.6414
451.51051
449.32719
447.091712
444.804719
442.467282
440.080955
437.647826
435.170574
432.652527
430.097714
427.510911
424.897685
422.264429
419.618381
416.967637
414.321134
411.688633
409.080658
406.50843
403.983766
401.518957
399.126628
396.819566
394.610539
392.512102
390.536419
388.695069
386.998853
385.457588
384.079941
382.873283
381.843562
380.995241
380.331221
379.85278
379.559481
379.450321
379.51919
379.761008
380.166801
380.724598
381.418563
382.230646
383.136721
384.10571
385.092644
386.0647
387.024414
387.812381
388.197599
388.132186
387.55875
386.692313
385.518487
383.964211
381.890645
379.247434
375.985615
372.098966
367.858069
362.810951
356.854928
351.421963
346.121635
339.416786
332.005162
326.32536
320.329722
315.842572
472.226031
470.660766
469.053971
467.404425
465.710949
463.972418
462.187794
460.356143
458.476673
456.548761
454.571992
452.546198
450.471497
448.348344
446.177576
443.960461
441.698755
439.394755
437.051351
434.672083
432.261188
429.823652
427.365247
424.892561
422.413023
419.934909
417.467326
415.020192
412.604178
410.230642
407.911521
405.659222
403.486476
401.406191
399.431266
397.574388
395.847807
394.263087
392.830847
391.560496
390.460025
389.535781
388.792236
388.231762
387.854323
387.657274
387.635598
387.778261
388.078337
388.516495
389.071666
389.715896
390.409807
391.117653
391.810088
392.48786
392.846593
392.8281
392.463296
391.632724
390.548725
389.130435
387.290375
384.887046
381.893014
378.307654
374.142045
369.455116
364.287919
358.61078
352.827253
346.878805
340.289637
333.870625
328.309083
322.683594
317.076007
311.608503
307.320228
303.298964
472.274157
470.80624
469.299439
467.752663
466.16487
464.535086
462.862431
461.146141
459.385603
457.580387
455.730279
453.835324
451.895864
449.912584
447.886561
445.819311
443.712838
441.569692
439.393013
437.186588
434.954895
432.703144
430.437316
428.164188
425.891348
423.627192
421.380911
419.162454
416.982474
414.852254
412.783602
410.788718
408.880027
407.069992
405.370872
403.794456
402.351767
401.05276
399.906008
398.918371
398.094656
397.437191
396.945484
396.616293
396.442329
396.412196
396.507901
396.716078
397.002183
397.336732
397.693655
398.061898
398.220069
398.138059
397.71952
396.872889
395.827743
394.505665
392.833696
390.692601
388.007612
384.751347
380.913491
376.516162
371.601592
366.237044
360.48821
354.445667
348.262696
341.918165
335.637348
329.710256
323.909596
318.383882
313.323077
309.136828
305.156514
302.146884
300.311949
299.942235
472.32844
470.970328
469.57632
468.145476
466.676918
465.169846
463.623565
462.037513
460.411291
458.744696
457.037753
455.29076
453.504323
451.6794
449.817348
447.919968
445.989551
444.028927
442.041514
440.031355
438.003164
435.962354
433.915069
431.868192
429.829354
427.806918
425.809943
423.848129
421.931739
420.071483
418.278369
416.563521
414.937956
413.412315
411.996573
410.699712
409.529355
408.491379
407.589475
406.824738
406.19552
405.696248
405.316987
405.043218
404.855907
404.733043
404.652543
404.596694
404.417137
404.062499
403.468741
402.551651
401.4711
400.161449
398.55755
396.580471
394.12901
391.168431
387.675643
383.647852
379.101249
374.078154
368.629118
362.815865
356.719437
350.448703
344.102023
337.762828
331.589779
325.693613
320.148363
315.135338
310.740175
306.996172
303.763358
301.204877
300.219904
300.001896
299.9305
299.904385
472.385117
471.141661
469.865443
468.555696
467.211719
465.832908
464.418777
462.968985
461.483369
459.961971
458.40508
456.813258
455.18739
453.528714
451.838865
450.119917
448.374425
446.605459
444.816646
443.012198
441.196939
439.376324
437.55644
435.744002
433.946324
432.171272
430.427195
428.72282
427.067117
425.469128
423.937759
422.481531
421.108293
419.824887
418.636789
417.54769
416.55907
415.669912
414.875916
414.169601
413.540942
412.976965
412.463752
411.930322
411.337416
410.639677
409.785392
408.71563
407.511045
406.119231
404.486611
402.551972
400.222479
397.460538
394.235949
390.53011
386.340808
381.68282
376.587118
371.113484
365.320691
359.276656
353.06182
346.762878
340.470254
334.293007
328.338527
322.70851
317.503768
312.861054
308.868715
305.576327
303.050282
301.001331
300.176327
299.994614
299.92972
299.909335
299.900713
299.899101
472.439954
471.307439
470.145222
468.952711
467.7294
466.474884
465.188889
463.871297
462.52217
461.141787
459.73067
458.289617
456.819737
455.322481
453.799676
452.253553
450.686781
449.102488
447.50428
445.896252
444.282992
442.669567
441.061496
439.464708
437.885462
436.330261
434.805723
433.318421
431.874691
430.480404
429.140697
427.859682
426.640097
425.482962
424.387332
423.349853
422.364678
421.42021
420.492989
419.558638
418.588127
417.547144
416.396223
415.153664
413.790101
412.267832
410.54453
408.568261
406.273592
403.624516
400.588831
397.141284
393.267298
388.963886
384.241575
379.125797
373.6568
367.896714
361.908838
355.764978
349.545326
343.336814
337.226216
331.309511
325.676175
320.41828
315.627712
311.402701
307.817374
304.923437
302.757198
301.217744
300.261421
300.033751
299.963826
299.942293
299.921669
299.900983
299.875309
299.858435
472.488194
471.453285
470.391392
469.302094
468.185062
467.040074
465.867038
464.666016
463.437247
462.181172
460.898456
459.59002
458.257054
456.90105
455.523811
454.127475
452.71452
451.287765
449.850372
448.405816
446.957866
445.510523
444.067962
442.634429
441.214133
439.811091
438.428958
437.070813
435.738915
434.434431
433.157136
431.905145
430.674507
429.45855
428.245431
427.020065
425.764286
424.460942
423.099649
421.658864
420.113561
418.434682
416.587609
414.528085
412.218246
409.625704
406.719706
403.473257
399.865508
395.883127
391.521805
386.787688
381.698313
376.283483
370.587811
364.67213
358.60636
352.454993
346.291144
340.199098
334.27057
328.60287
323.280797
318.388085
313.996867
310.175219
306.981786
304.455492
302.578489
301.313901
300.517862
300.123608
300.0206
299.974794
299.941204
299.910882
299.872259
299.839405
299.817492
299.806347
472.524853
471.56413
470.57851
469.567713
468.531542
467.4699
466.382808
465.270419
464.133034
462.971122
461.785333
460.576509
459.345697
458.094153
456.823345
455.534948
454.23083
452.91303
451.58372
450.245159
448.899621
447.549315
446.196273
444.84222
443.488417
442.135481
440.783178
439.430202
438.073962
436.710305
435.333191
433.934608
432.504084
431.028867
429.49599
427.889571
426.190369
424.374883
422.414827
420.284239
417.955997
415.402643
412.597557
409.51581
406.135276
402.438127
398.412046
394.051411
389.358379
384.343904
379.028492
373.443212
367.630607
361.645003
355.563924
349.452926
343.384487
337.433649
331.684804
326.228875
321.155923
316.548514
312.47195
308.987504
306.125737
303.897884
302.271532
301.171865
300.507577
300.143783
299.996734
299.944276
299.90241
299.864108
299.83097
299.806577
299.801952
299.800238
299.800883
299.802705
472.545394
471.626251
470.6834
469.716636
468.725822
467.710894
466.671875
465.608877
464.522111
463.411893
462.278642
461.122877
459.945218
458.746362
457.527073
456.28816
455.030462
453.754785
452.46185
451.152215
449.82619
448.483722
447.124263
445.746609
444.348709
442.927426
441.478211
439.995068
438.471022
436.897438
435.263943
433.558142
431.765735
429.870528
427.854564
425.698291
423.380877
420.880669
418.175814
415.245107
412.068603
408.628023
404.908056
400.897299
396.589199
391.982966
387.084446
381.906925
376.471896
370.809767
364.960469
358.974971
352.919052
346.868538
340.896319
335.080682
329.505362
324.254605
319.412439
315.054274
311.247491
308.039386
305.449431
303.462587
302.025934
301.059284
300.464025
300.135049
299.969562
299.896576
299.854202
299.83073
299.819758
299.813262
299.809144
299.805112
299.802092
299.800331
299.800394
299.802661
472.5467
471.630208
470.690082
469.726099
468.738078
467.725881
466.689411
465.628613
464.543469
463.433988
462.300198
461.142125
459.959774
458.753099
457.52198
456.266172
454.98523
453.67845
452.344781
450.982708
449.590115
448.164111
446.700821
445.195096
443.641064
442.032474
440.36216
438.62177
436.801012
434.888168
432.870119
430.732411
428.459404
426.034499
423.44045
420.659771
417.67526
414.470601
411.030351
407.341061
403.39199
399.175875
394.689707
389.935534
384.921268
379.661507
374.178323
368.501948
362.671384
356.734863
350.750705
344.791097
338.933281
333.256391
327.844388
322.782608
318.152302
314.026935
310.459947
307.484432
305.106573
303.295162
301.99047
301.1091
300.553512
300.227594
300.046548
299.947946
299.885901
299.851289
299.834905
299.826793
299.818367
299.811084
299.806736
299.804371
299.802646
299.802164
299.801278
299.801557
472.529425
471.578003
470.602018
469.601189
468.575235
467.523877
466.446823
465.343756
464.214323
463.058115
461.874654
460.663361
459.423115
458.15211
456.848472
455.510423
454.135802
452.722001
451.265899
449.763804
448.211422
446.603827
444.93547
443.200344
441.391273
439.499421
437.514923
435.426881
433.223391
430.891637
428.41803
425.788416
422.988342
420.003408
416.819723
413.423904
409.803775
405.948999
401.851694
397.507107
392.914333
388.077082
383.004503
377.712039
372.222329
366.566081
360.782748
354.920867
349.038075
343.200759
337.485431
331.971704
326.739653
321.870265
317.439507
313.51335
310.138744
307.338251
305.103003
303.393694
302.14836
301.286162
300.719329
300.364347
300.14832
300.016783
299.933725
299.880982
299.852228
299.836641
299.825946
299.819604
299.813835
299.807161
299.802002
299.800741
299.800862
299.804279
299.809651
299.809993
472.492528
471.466473
470.413819
469.334135
468.226946
467.091713
465.927813
464.73431
463.509782
462.252942
460.962256
459.6359
458.272126
456.86932
455.425294
453.937007
452.400938
450.813035
449.168657
447.462501
445.688579
443.840162
441.909715
439.888898
437.768544
435.538672
433.188542
430.706742
428.081322
425.299974
422.350258
419.219921
415.89703
412.370272
408.629535
404.66641
400.474756
396.051343
391.396558
386.515188
381.417266
376.11896
370.643485
365.021985
359.294348
353.509706
347.72634
342.010984
336.43714
331.083139
326.029428
321.348549
317.106278
313.356506
310.135599
307.45677
305.306168
303.643015
302.404855
301.51807
300.905938
300.496676
300.229573
300.058856
299.952104
299.885784
299.842369
299.824061
299.814772
299.809254
299.809277
299.81003
299.812759
299.811577
299.807458
299.803893
299.803164
299.804266
299.810077
299.81825
472.437495
471.300116
470.133072
468.935708
467.707263
466.446841
465.152986
463.824473
462.460166
461.058323
459.616906
458.133549
456.605515
455.029658
453.402373
451.719543
449.976489
448.167943
446.288006
444.330102
442.286973
440.150665
437.912541
435.563304
433.09305
430.491352
427.747375
424.850033
421.788195
418.550906
415.127438
411.507809
407.683184
403.646351
399.392274
394.918722
390.226986
385.322674
380.216564
374.925507
369.473311
363.891564
358.220281
352.508296
346.813279
341.200942
335.743394
330.516644
325.596489
321.054566
316.952584
313.333691
310.222662
307.623332
305.517297
303.865285
302.610855
301.688558
301.031431
300.577523
300.272812
300.07467
299.947813
299.872363
299.837585
299.820549
299.819623
299.815705
299.812168
299.809402
299.8083
299.809311
299.813658
299.817798
299.819265
299.819006
299.8149
299.811151
299.810916
299.815901
472.368843
471.092604
469.78293
468.438944
467.059607
465.643586
464.189613
462.696011
461.160815
459.581728
457.956084
456.28081
454.552379
452.76678
450.919478
449.005381
447.018807
444.953462
442.802432
440.558178
438.212548
435.756805
433.181683
430.47746
427.634067
424.641232
421.488675
418.166171
414.663868
410.972651
407.084536
402.993133
398.694196
394.186253
389.47132
384.555694
379.450796
374.174042
368.749682
363.209534
357.593506
351.949792
346.334594
340.811244
335.448587
330.318307
325.491549
321.034934
317.005249
313.444124
310.375086
307.798957
305.695843
304.028196
302.744645
301.786349
301.093365
300.608587
300.281639
300.070031
299.939512
299.865279
299.832043
299.822807
299.816987
299.818467
299.819178
299.81618
299.812916
299.811078
299.810854
299.811261
299.815636
299.820752
299.822407
299.823969
299.82994
299.825225
299.817467
299.816036
472.289684
470.853342
469.379253
467.866318
466.313217
464.71843
463.080264
461.396625
459.665065
457.882744
456.046387
454.152253
452.196092
450.173119
448.077987
445.904768
443.646943
441.2974
438.848449
436.291853
433.618874
430.82035
427.886796
424.808548
421.575895
418.179213
414.609297
410.857684
406.917039
402.781617
398.447808
393.914759
389.185076
384.265595
379.168199
373.910636
368.517296
363.019845
357.457646
351.877811
346.334779
340.889289
335.606623
330.55409
325.79771
321.398277
317.407365
313.863787
310.790336
308.19073
306.04909
304.332855
302.99732
301.989201
301.251977
300.730383
300.375205
300.143463
299.999135
299.913761
299.867343
299.843867
299.829286
299.819053
299.814276
299.814204
299.815655
299.815923
299.815697
299.816621
299.818775
299.820233
299.820352
299.821497
299.822439
299.823871
299.831265
299.833401
299.823539
299.814782
472.201923
470.588083
468.931739
467.231578
465.486051
463.693374
461.851418
459.957672
458.009213
456.00267
453.934182
451.799374
449.593323
447.31054
444.944964
442.489953
439.938304
437.282276
434.513645
431.623769
428.603692
425.44428
422.136317
418.670729
415.038869
411.232827
407.245817
403.07263
398.710166
394.158044
389.419278
384.501021
379.415332
374.179948
368.818991
363.363529
357.851908
352.329734
346.849366
341.468836
336.250079
331.256519
326.550005
322.18732
318.216312
314.67231
311.575885
308.931298
306.726999
304.936054
303.519127
302.42818
301.611811
301.019148
300.60176
300.31683
300.127541
300.005894
299.930022
299.883154
299.851971
299.829967
299.816731
299.809296
299.804997
299.804797
299.80787
299.811341
299.81367
299.815751
299.818336
299.81952
299.81987
299.820972
299.821699
299.822427
299.825989
299.834353
299.828768
299.817583
472.106829
470.300672
468.446891
466.543974
464.590121
462.583198
460.520694
458.399676
456.216749
453.968021
451.649071
449.254929
446.780059
444.218356
441.56316
438.807277
435.943028
432.962317
429.856728
426.617649
423.236376
419.704362
416.013464
412.156255
408.126397
403.919081
399.531543
394.963641
390.21851
385.303256
380.229686
375.015019
369.682534
364.262077
358.790343
353.310819
347.87329
342.532791
337.347935
332.378599
327.683039
323.314694
319.319054
315.730497
312.570272
309.843494
307.541421
305.641511
304.110646
302.907102
301.984743
301.295962
300.79575
300.443034
300.201214
300.039634
299.92985
299.866061
299.831673
299.813947
299.807593
299.808786
299.809492
299.809161
299.806271
299.806252
299.807083
299.810002
299.81387
299.818269
299.821064
299.82167
299.821693
299.821019
299.820898
299.818951
299.81871
299.827396
299.831883
299.832413
472.005425
469.994191
467.92987
465.810725
463.634687
461.399302
459.10169
456.738503
454.305891
451.799469
449.214304
446.544903
443.785215
440.928661
437.968166
434.896227
431.705003
428.386422
424.932318
421.334641
417.585704
413.678477
409.606946
405.366531
400.954575
396.370893
391.61839
386.703712
381.637928
376.437198
371.123369
365.724452
360.274877
354.815456
349.392935
344.059068
338.869129
333.879865
329.146924
324.721906
320.64933
316.963872
313.687677
310.8296
308.385933
306.342359
304.671808
303.339051
302.30313
301.519757
300.944204
300.53368
300.249277
300.05933
299.938119
299.864347
299.834113
299.818473
299.811728
299.809374
299.80904
299.809074
299.81098
299.816915
299.819796
299.819897
299.818112
299.817093
299.819756
299.826034
299.829851
299.831761
299.831625
299.831314
299.828735
299.822731
299.815762
299.819487
299.830182
299.836053
471.89861
469.671359
467.385278
465.038404
462.628399
460.152497
457.607466
454.989567
452.294535
449.517558
446.653272
443.695781
440.638684
437.475132
434.197909
430.799531
427.272379
423.608896
419.801812
415.844423
411.730929
407.456826
403.019365
398.41807
393.655312
388.736927
383.672852
378.477754
373.171604
367.780131
362.335094
356.874281
351.441157
346.084082
340.855043
335.807901
330.996184
326.470554
322.276128
318.44989
315.018667
311.997255
309.388404
307.183223
305.361069
303.891311
302.735776
301.851644
301.194426
300.720948
300.391003
300.169031
300.024436
299.93211
299.876353
299.845338
299.827602
299.817076
299.811491
299.808933
299.808136
299.808725
299.81079
299.816366
299.823155
299.830028
299.83544
299.837954
299.838421
299.836009
299.835831
299.835566
299.834563
299.834145
299.837508
299.839159
299.835384
299.822765
299.826551
299.831561
471.787509
469.335578
466.818855
464.235161
461.581904
458.856029
456.053982
453.171691
450.204546
447.147402
443.994605
440.74003
437.377147
433.899119
430.298916
426.569489
422.703982
418.69599
414.539863
410.231081
405.766671
401.145698
396.369799
391.443762
386.376136
381.179824
375.872652
370.477825
365.024234
359.546533
354.0849
348.684429
343.394081
338.265208
333.349652
328.697545
324.354939
320.361459
316.74814
313.535674
310.733381
308.338444
306.33527
304.697866
303.391189
302.374433
301.603764
301.035113
300.626868
300.342116
300.149162
300.022251
299.941174
299.889735
299.857593
299.836281
299.826623
299.818438
299.813002
299.811173
299.811199
299.813334
299.815651
299.81823
299.822221
299.829821
299.83445
299.836213
299.836703
299.835474
299.834876
299.83427
299.832279
299.830719
299.832576
299.837045
299.843648
299.843642
299.834332
299.83101
472.591141
471.764416
470.916083
470.045703
469.152827
468.236999
467.297749
466.334595
465.347036
464.334549
463.29659
462.232586
461.141931
460.023987
458.878075
457.703471
456.499402
455.265038
453.999493
452.70181
451.370965
450.005852
448.605282
447.167976
445.692554
444.177529
442.621303
441.022148
439.378206
437.687469
435.947768
434.156757
432.311891
430.410406
428.449286
426.425236
424.334636
422.173477
419.93731
417.6213
415.220117
412.727639
410.137028
407.440615
404.629796
401.694938
398.62534
395.409294
392.034315
388.48765
384.757192
380.833013
376.709704
372.389722
367.887818
363.236338
358.490736
353.734288
349.079437
344.66359
340.637033
337.143059
334.291725
332.13389
330.646825
329.738011
329.267763
329.083505
329.067601
329.099411
329.12762
329.138661
329.136607
329.128659
329.121252
329.109654
329.060674
328.957735
328.777047
328.53782
472.583152
471.740267
470.875341
469.987913
469.07752
468.143688
467.185933
466.20376
465.19666
464.164102
463.105538
462.020391
460.908062
459.767916
458.599277
457.401428
456.173603
454.914982
453.624684
452.301762
450.94519
449.553862
448.126581
446.662045
445.158842
443.615438
442.030158
440.401178
438.726507
437.003963
435.231157
433.405467
431.524008
429.583604
427.580749
425.51157
423.371775
421.156604
418.86077
416.478387
414.002908
411.427038
408.742655
405.940744
403.011345
399.943559
396.725638
393.345247
389.789989
386.048323
382.111041
377.97345
373.638457
369.120623
364.451034
359.682447
354.893544
350.190596
345.704341
341.580047
337.959627
334.957871
332.637608
330.991754
329.941929
329.357461
329.088391
329.025369
329.023738
329.04965
329.064028
329.065438
329.060088
329.044486
329.024233
328.992458
328.943635
328.874584
328.788268
328.694142
472.572475
471.707997
470.820901
469.910707
468.976929
468.019077
467.036648
466.029134
464.996012
463.936743
462.850771
461.737524
460.596397
459.426756
458.227932
456.999214
455.739845
454.449015
453.125853
451.769421
450.378702
448.952596
447.489901
445.989309
444.44939
442.868573
441.245136
439.57718
437.862612
436.09912
434.284146
432.414857
430.488109
428.500416
426.447903
424.326264
422.130713
419.855925
417.49598
415.044298
412.493571
409.835706
407.061764
404.161933
401.125546
397.941186
394.596918
391.080759
387.381481
383.489919
379.400924
375.11611
370.647456
366.02169
361.285046
356.507577
351.785577
347.240059
343.009305
339.23419
336.037026
333.497326
331.627246
330.370533
329.616587
329.227693
329.066502
329.035659
329.044641
329.068579
329.084883
329.087127
329.078791
329.0716
329.067417
329.079076
329.128736
329.217164
329.364625
329.684459
472.559215
471.667917
470.753287
469.814818
468.852001
467.864321
466.851253
465.812269
464.746828
463.654377
462.534354
461.386173
460.209224
459.002872
457.766446
456.499241
455.200505
453.869438
452.505178
451.1068
449.673302
448.203597
446.696497
445.150705
443.5648
441.937213
440.266218
438.549904
436.786153
434.972617
433.106688
431.185462
429.205712
427.163845
425.055856
422.877285
420.623169
418.287979
415.865568
413.349109
410.731036
408.002995
405.155813
402.179507
399.063359
395.796101
392.366285
388.762919
384.976516
381.000692
376.834471
372.485395
367.973423
363.335383
358.629348
353.937747
349.367846
345.047559
341.115049
337.693341
334.873661
332.696843
331.142581
330.132824
329.553406
329.258344
329.170784
329.165857
329.199336
329.246587
329.289693
329.325887
329.369877
329.455976
329.626696
329.947319
330.427621
331.043241
331.894834
333.271612
472.543363
471.620004
470.672456
469.700181
468.702639
467.679282
466.629558
465.552909
464.448769
463.316569
462.155722
460.965628
459.745663
458.495184
457.213516
455.899952
454.553745
453.174102
451.760178
450.311068
448.825797
447.303312
445.742467
444.142017
442.500597
440.816709
439.088705
437.314766
435.492881
433.620821
431.69611
429.715998
427.677424
425.576977
423.410856
421.174818
418.864133
416.473521
413.997099
411.428318
408.759904
405.983821
403.091239
400.072572
396.91758
393.615612
390.156055
386.529091
382.726896
378.74543
374.58696
370.263386
365.80027
361.241149
356.651423
352.120542
347.760041
343.690267
340.032719
336.892438
334.338723
332.405441
331.044267
330.17592
329.6915
329.491136
329.461227
329.51005
329.621781
329.7649
329.924263
330.103196
330.337322
330.70455
331.316014
332.29195
333.677812
335.419232
337.615798
340.615199
472.524769
471.563801
470.577634
469.565694
468.527396
467.462155
466.369379
465.248473
464.098838
462.919874
461.710966
460.471489
459.2008
457.89824
456.563127
455.194752
453.792372
452.355212
450.882452
449.373227
447.826614
446.241631
444.617224
442.952259
441.245511
439.495648
437.701225
435.86066
433.97222
432.033996
430.043884
427.999551
425.898408
423.737569
421.513813
419.223532
416.862685
414.426729
411.910564
409.308459
406.61399
403.819983
400.918484
397.900781
394.757508
391.4789
388.05526
384.477767
380.739727
376.83845
372.777843
368.571781
364.248035
359.852328
355.451801
351.132854
346.996822
343.155214
339.714021
336.765759
334.374556
332.551433
331.278309
330.468817
330.024522
329.850319
329.838358
329.92891
330.104565
330.340977
330.63326
331.002808
331.511539
332.270954
333.43741
335.191829
337.646327
340.71797
344.185511
347.875037
472.503152
471.498457
470.467385
469.409312
468.323605
467.209626
466.066733
464.894286
463.691644
462.458164
461.193193
459.896077
458.566148
457.202729
455.80513
454.372644
452.904545
451.400088
449.858502
448.278991
446.660731
445.002864
443.304494
441.564686
439.782456
437.956766
436.086516
434.170531
432.20755
430.196213
428.135032
426.022379
423.856449
421.635232
419.356464
417.017588
414.615685
412.147416
409.608937
406.995825
404.302979
401.524546
398.653857
395.68341
392.604942
389.409641
386.088578
382.633474
379.037921
375.299195
371.420765
367.415466
363.30913
359.144243
354.980784
350.894297
346.975101
343.322491
340.040977
337.214866
334.898995
333.11362
331.83866
331.014403
330.557621
330.392709
330.384597
330.51848
330.782732
331.160762
331.663361
332.34165
333.299385
334.672499
336.583278
339.084054
342.111021
345.454739
348.70562
351.37772
472.478161
471.42291
470.339916
469.228496
468.087953
466.917588
465.7167
464.484594
463.220574
461.923947
460.594019
459.230098
457.831492
456.39751
454.927459
453.420646
451.87638
450.293971
448.672733
447.011986
445.311055
443.569276
441.785996
439.960576
438.092389
436.180822
434.225275
432.225155
430.179872
428.088829
425.951406
423.766945
421.534721
419.253918
416.923572
414.542528
412.109371
409.62234
407.079243
404.47734
401.813232
399.082727
396.280742
393.401238
390.437211
387.380831
384.223772
380.957856
377.576098
374.074249
370.453044
366.721007
362.897666
359.016915
355.126681
351.290889
347.587609
344.10483
340.933903
338.158165
335.840649
334.014914
332.679026
331.796127
331.303558
331.137735
331.178422
331.426245
331.853836
332.445914
333.206193
334.178184
335.464635
337.188671
339.43281
342.110669
344.942225
347.60907
350.032358
351.886876
472.449484
471.336221
470.193645
469.021001
467.81752
466.582433
465.314969
464.014369
462.679876
461.310739
459.90622
458.465591
456.988138
455.473162
453.919981
452.327937
450.696397
449.024761
447.31247
445.559009
443.763919
441.926804
440.047339
438.125283
436.160481
434.152876
432.102515
430.00955
427.874239
425.696948
423.478134
421.218334
418.91814
416.578172
414.199021
411.781189
409.325011
406.830561
404.297528
401.725086
399.111743
396.45517
393.752037
390.997907
388.187154
385.312998
382.367723
379.343138
376.231427
373.026248
369.724354
366.327176
362.861452
359.334736
355.78675
352.267543
348.839545
345.574883
342.550329
339.839876
337.505832
335.590464
334.109878
333.052222
332.381892
332.047893
331.992672
332.17199
332.583415
333.217131
334.081305
335.193045
336.587548
338.275288
340.127662
342.332328
344.998633
347.523487
349.691168
351.270674
472.416988
471.237987
470.027892
468.785866
467.511062
466.202628
464.859723
463.481509
462.067164
460.61588
459.126872
457.599383
456.03268
454.42607
452.778901
451.09057
449.360535
447.588325
445.773552
443.915924
442.015262
440.071514
438.084771
436.055286
433.983483
431.869981
429.715602
427.521378
425.288565
423.018639
420.71329
418.374407
416.004053
413.604432
411.177833
408.726548
406.252789
403.758566
401.245549
398.714897
396.167087
393.601701
391.01721
388.410806
385.778248
383.113796
380.410268
377.659282
374.851844
371.97913
369.033871
366.012684
362.931964
359.795022
356.620882
353.444395
350.312067
347.280655
344.414213
341.779146
339.4376
337.440196
335.819603
334.586501
333.729611
333.221452
333.028533
333.089809
333.406803
333.968602
334.755082
335.747615
336.909775
338.28872
340.008023
341.939543
343.858435
345.793089
347.564506
349.025333
472.380859
471.128775
469.843615
468.524458
467.170366
465.780407
464.353652
462.889189
461.386125
459.843597
458.260779
456.636885
454.97118
453.262991
451.511714
449.716832
447.877926
445.994695
444.06697
442.09474
440.078167
438.017617
435.913673
433.767168
431.579201
429.351159
427.084739
424.781959
422.445166
420.077044
417.680604
415.259165
412.816329
410.355929
407.881974
405.398553
402.909731
400.419415
397.931188
395.448118
392.972546
390.505854
388.048205
385.598329
383.153313
380.708486
378.257393
375.791953
373.302911
370.780599
368.216187
365.603409
362.920075
360.20779
357.452858
354.676149
351.908101
349.18835
346.564379
344.088814
341.815381
339.793923
338.065129
336.656094
335.578056
334.828006
334.393716
334.26414
334.342481
334.655608
335.206291
335.94225
336.718371
337.896981
339.180151
340.561712
342.0191
343.514573
344.9196
346.031349
472.341735
471.010507
469.644061
468.24138
466.80144
465.323217
463.805697
462.24789
460.648838
459.007625
457.323388
455.595326
453.822713
452.004915
450.141402
448.23177
446.275756
444.27327
442.224409
440.129493
437.989087
435.80403
433.57547
431.304888
428.994124
426.64541
424.261384
421.845108
419.400082
416.930237
414.439928
411.933909
409.417295
406.895503
404.374173
401.85907
399.355959
396.870458
394.407855
391.97291
389.569608
387.200922
384.868538
382.572591
380.311444
378.0815
375.877115
373.690633
371.512562
369.331925
367.13677
364.914775
362.653337
360.372303
358.066077
355.726659
353.37226
351.028169
348.726387
346.504496
344.403538
342.465053
340.727601
339.22332
337.975275
336.996515
336.291405
335.860179
335.706008
335.72557
335.89466
336.258335
336.776705
337.367559
338.220237
339.208264
340.272034
341.36934
342.461683
343.211079
472.300827
470.886849
469.435414
467.945413
466.415728
464.845245
463.232871
461.577541
459.878236
458.133995
456.343927
454.507229
452.623201
450.691266
448.710991
446.682111
444.604555
442.478474
440.304274
438.082647
435.814605
433.501515
431.145134
428.74764
426.311667
423.840329
421.33724
418.806528
416.252843
413.681344
411.097679
408.507953
405.918679
403.336702
400.769104
398.223091
395.705849
393.224381
390.785322
388.394728
386.057845
383.778865
381.560671
379.404555
377.309999
375.274462
373.293266
371.35959
369.464664
367.598102
365.74854
363.90461
362.056339
360.165739
358.278319
356.380578
354.462382
352.535836
350.619553
348.737076
346.915851
345.185645
343.576511
342.116536
340.829719
339.734433
338.842833
338.161292
337.691388
337.419999
337.375902
337.408499
337.440466
337.699769
338.244477
338.888523
339.621179
340.412488
341.30583
341.970182
472.259959
470.763313
469.226975
467.649742
466.030409
464.367777
462.660677
460.907977
459.108606
457.261566
455.365951
453.420967
451.425957
449.380418
447.284034
445.136705
442.938574
440.690068
438.39193
436.045259
433.651549
431.212727
428.731189
426.209837
423.652108
421.062001
418.444092
415.803544
413.146106
410.478093
407.806356
405.138225
402.48145
399.844112
397.234511
394.661032
392.131987
389.655438
387.238993
384.889586
382.61325
380.414888
378.298058
376.264751
374.315182
372.447616
370.658231
368.941033
367.28802
365.689461
364.134417
362.611384
361.109094
359.617188