/*--------------------------------*- C++ -*----------------------------------*\
  =========                 |
  \\      /  F ield         | OpenFOAM: The Open Source CFD Toolbox
   \\    /   O peration     | Website:  https://openfoam.org
    \\  /    A nd           | Version:  8
     \\/     M anipulation  |
\*---------------------------------------------------------------------------*/
FoamFile
{
    version     2.0;
    format      ascii;
    class       volVectorField;
    location    "0.041";
    object      U;
}
// * * * * * * * * * * * * * * * * * * * * * * * * * * * * * * * * * * * * * //

dimensions      [0 1 -1 0 0 0 0];

internalField   nonuniform List<vector> 
42400
(
(-0.0168559966 0.0161528566 -6.33218259e-27)
(-0.0500611886 0.04729699 2.10244382e-26)
(-0.0834525774 0.0777625438 2.18352705e-26)
(-0.11709518 0.107527485 0)
(-0.150998492 0.136555085 0)
(-0.185175504 0.164801235 -7.0781371e-28)
(-0.219640438 0.19222417 0)
(-0.254394639 0.218779651 7.79445523e-28)
(-0.289418546 0.244414751 0)
(-0.32467051 0.269066676 8.5710055e-28)
(-0.360090072 0.292665713 8.98257333e-28)
(-0.395603181 0.315139934 -9.40999528e-28)
(-0.431127499 0.336419863 -1.92109957e-26)
(-0.466576777 0.356442292 -1.85308332e-26)
(-0.501863922 0.375152958 -1.07891022e-27)
(-0.53690276 0.392508126 0)
(-0.571608702 0.408475295 0)
(-0.605898579 0.423033263 0)
(-0.639689952 0.436171845 0)
(-0.672900136 0.44789143 0)
(-0.705445096 0.458202548 0)
(-0.737238324 0.467125522 -2.91564652e-27)
(-0.768189722 0.474690231 -1.16985469e-26)
(-0.79820444 0.480935979 -1.74775564e-26)
(-0.827181611 0.485911417 -5.52610352e-27)
(-0.855012894 0.48967448 -3.4202178e-27)
(-0.881580648 0.492292274 -3.55476921e-27)
(-0.906755605 0.493840885 7.38585291e-27)
(-0.930394047 0.494405068 0)
(-0.952334985 0.49407756 0)
(-0.972396556 0.492956985 -1.02129895e-26)
(-0.990368378 0.491143728 -1.45710182e-26)
(-1.00600242 0.488734583 8.87588015e-27)
(-1.01905724 0.485842651 2.4689786e-26)
(-1.02931044 0.482605858 3.7283557e-26)
(-1.03621091 0.479463266 0)
(-1.03947388 0.475894024 0)
(-1.03845301 0.472271565 0)
(-1.03312737 0.468162076 0)
(-1.02207694 0.465027307 3.61624886e-26)
(-1.00447963 0.462050538 4.93498545e-26)
(-0.979055339 0.458887873 1.08205765e-25)
(-0.94374444 0.455805899 4.27368965e-25)
(-0.898405017 0.452192028 -3.05755531e-26)
(-0.841112729 0.448608295 -2.75512898e-25)
(-0.770323565 0.444897318 -3.88883088e-25)
(-0.684135954 0.440864975 3.57402612e-26)
(-0.58060032 0.436329691 4.11615969e-25)
(-0.457998188 0.430816764 4.03745298e-26)
(-0.312731906 0.424356202 7.02036653e-25)
(-0.145160335 0.417364356 2.60217564e-33)
(0.0529927454 0.411232543 -1.72318562e-24)
(0.274873746 0.405785852 -9.56196049e-25)
(0.542684132 0.397053272 1.26449876e-25)
(0.854778132 0.384771423 0)
(1.21451756 0.371098979 0)
(1.62920335 0.356416133 0)
(2.10415767 0.34044385 -1.73778125e-25)
(2.64483723 0.323350274 -1.8501946e-25)
(3.25721056 0.305278303 0)
(3.94653984 0.285841072 3.90789958e-24)
(4.71662797 0.264966452 4.27337379e-24)
(5.56989563 0.243400494 -4.25967339e-24)
(6.50799753 0.223152415 -4.16168073e-24)
(7.52770168 0.207323936 0)
(8.62420911 0.195728564 0)
(9.79103269 0.190347245 -1.65444105e-24)
(10.9870886 0.217533011 -7.70972652e-25)
(12.2762376 0.187848198 3.43302396e-25)
(13.6728305 0.0919241323 0)
(14.7007697 0.475342083 0)
(15.949881 0.57984877 7.958614e-25)
(18.0461276 -0.5248466 8.3893669e-25)
(19.1649109 -0.545336282 0)
(19.2730622 1.61209725 1.77595138e-24)
(20.5389321 1.48340196 -6.4698751e-24)
(22.5535584 -0.479958674 7.79250705e-24)
(23.6058334 -1.09481081 -4.00057989e-24)
(23.7177629 -0.51543179 -1.50849211e-23)
(23.661282 0.582950842 -8.57527373e-24)
(-0.0198132688 0.0175666189 0)
(-0.0588312341 0.0516672189 1.57412315e-26)
(-0.0980548471 0.0853235492 1.57887232e-26)
(-0.137568749 0.118543022 0)
(-0.177351046 0.151270574 0)
(-0.217375653 0.18343358 1.42381877e-26)
(-0.257596145 0.214947573 1.47184431e-26)
(-0.297948691 0.245719667 8.57782624e-28)
(-0.338348902 0.275648757 0)
(-0.378693894 0.304627907 9.43899379e-28)
(-0.418867363 0.332548942 9.89710669e-28)
(-0.458745362 0.359307497 -1.1569498e-26)
(-0.498201253 0.384807264 -2.00290302e-26)
(-0.537109211 0.408962959 -9.41530349e-27)
(-0.575346163 0.431702002 6.95349115e-27)
(-0.61279237 0.452965132 9.24424974e-27)
(-0.649330975 0.472706265 0)
(-0.684846851 0.490891881 2.72808129e-27)
(-0.719225048 0.507500219 0)
(-0.752349084 0.522520451 0)
(-0.784099188 0.535951965 0)
(-0.814350596 0.547803807 5.40280669e-28)
(-0.84297186 0.558094276 8.33201447e-27)
(-0.869823058 0.566850669 8.03597355e-27)
(-0.894753808 0.574109165 0)
(-0.91760102 0.579914641 -7.68108643e-27)
(-0.938186171 0.584319935 -3.99552166e-27)
(-0.956311125 0.587384746 8.32058782e-27)
(-0.971751554 0.589175817 2.12218725e-26)
(-0.984264845 0.589771684 2.35383249e-26)
(-0.993605755 0.589251948 -9.29674572e-27)
(-0.99952544 0.587675468 -9.52317769e-27)
(-1.00153967 0.585373884 8.55230843e-26)
(-0.999539337 0.582032139 9.1744581e-26)
(-0.992868774 0.578089988 -9.9252129e-26)
(-0.981445357 0.573329154 -5.97004177e-26)
(-0.964357488 0.568513057 0)
(-0.940244991 0.563149932 1.29783363e-26)
(-0.907758694 0.557208242 0)
(-0.866305544 0.550363121 2.83376805e-26)
(-0.814800823 0.542983157 1.74963338e-25)
(-0.751944726 0.535249173 1.65977343e-25)
(-0.676362527 0.527165438 3.11414516e-26)
(-0.58620763 0.518617276 -3.27884949e-26)
(-0.479473212 0.509479566 6.81963795e-26)
(-0.354664276 0.499349284 -3.57890552e-26)
(-0.208493782 0.488349093 3.89157024e-26)
(-0.0393472472 0.478169894 4.6152566e-25)
(0.150277187 0.469726439 4.51697141e-25)
(0.375421146 0.459397923 0)
(0.640201992 0.445892127 -5.27365316e-26)
(0.94632555 0.430595669 1.13045515e-25)
(1.29868508 0.41467894 7.61520265e-25)
(1.70385726 0.398058849 1.0999362e-24)
(2.16672296 0.380576857 1.40430442e-25)
(2.69302848 0.362397888 2.60387749e-24)
(3.28845444 0.343367743 2.92349482e-24)
(3.95790238 0.323452117 -1.49348411e-25)
(4.7054502 0.302950984 -1.43994637e-25)
(5.53418241 0.282589161 4.24478872e-24)
(6.44586396 0.263608928 4.74453124e-24)
(7.43998159 0.247492876 8.12814008e-26)
(8.512131 0.234343653 -5.1407964e-26)
(9.65668977 0.225095838 0)
(10.8568484 0.225119378 -4.64435616e-24)
(12.1001962 0.238106201 -9.0878344e-24)
(13.3859945 0.241839461 -4.09065438e-24)
(14.6589203 0.29413299 0)
(15.8950894 0.384385791 2.0615939e-26)
(17.3442551 0.237570178 6.15567674e-25)
(18.5133737 0.2751853 2.1612536e-24)
(19.2986842 0.94546839 3.95630435e-24)
(20.7002636 0.701094181 -3.87825187e-24)
(22.2604628 -0.367238213 -3.09295404e-24)
(22.9450741 0.00748439676 3.69407571e-26)
(23.2099999 1.01499546 1.48683761e-23)
(23.6015124 1.03664034 1.73743595e-23)
(23.8150561 0.356448046 -4.7566147e-24)
(23.8317877 0.159301604 -1.49639794e-23)
(23.8233788 0.184464138 -1.44061979e-23)
(-0.0222161367 0.0182046437 1.65298794e-27)
(-0.0659791514 0.0537264967 3.34378676e-28)
(-0.109990493 0.089019253 -3.53428917e-28)
(-0.15434931 0.124114614 3.70025191e-28)
(-0.199023494 0.158954513 0)
(-0.24392653 0.193436464 -9.61513102e-27)
(-0.288960455 0.227444031 8.03831344e-34)
(-0.333996688 0.260848586 8.20766642e-27)
(-0.378882407 0.293510896 7.37491625e-27)
(-0.423449508 0.32528783 1.27879371e-26)
(-0.46752073 0.356039155 6.29851133e-27)
(-0.510916042 0.385632992 1.10400083e-27)
(-0.553457521 0.413949762 1.1580073e-27)
(-0.594972155 0.440884515 7.77587206e-28)
(-0.635292783 0.466347837 -1.06178711e-27)
(-0.674257567 0.49026571 3.99899608e-27)
(-0.711708454 0.512578681 2.45365462e-27)
(-0.747489058 0.533240709 1.51544363e-26)
(-0.781442263 0.552217948 1.00625734e-26)
(-0.813407764 0.569487673 3.19770339e-27)
(-0.843219539 0.585037539 -3.34068988e-27)
(-0.870703285 0.598865221 -3.48768791e-27)
(-0.895673899 0.610978245 0)
(-0.917932422 0.621393676 7.57832801e-27)
(-0.937260019 0.630135575 -2.78946969e-26)
(-0.953418781 0.637232996 1.88852849e-29)
(-0.966157027 0.642716778 3.34457531e-26)
(-0.975210578 0.64661542 3.90408339e-26)
(-0.980233168 0.649021782 4.93115116e-26)
(-0.981004967 0.649900908 -5.23478427e-26)
(-0.977159637 0.649467445 -9.89032223e-27)
(-0.968304661 0.647929764 1.22970297e-25)
(-0.954328615 0.645202676 6.86112951e-26)
(-0.933962992 0.6416787 0)
(-0.906312867 0.636930311 0)
(-0.87024634 0.630912735 -1.23496146e-26)
(-0.824701964 0.623730244 0)
(-0.769246395 0.615488377 2.60219651e-26)
(-0.702603578 0.606515341 1.1960562e-25)
(-0.623474084 0.59682287 5.61479486e-26)
(-0.530116451 0.58636025 -1.14054313e-25)
(-0.42068417 0.575100348 0)
(-0.293703873 0.56272467 0)
(-0.146147457 0.549321404 2.91828278e-25)
(0.0241840837 0.536667356 3.46590672e-25)
(0.212931476 0.52561266 3.5561502e-26)
(0.439038447 0.512321924 0)
(0.700811651 0.496755462 0)
(1.00245432 0.480541368 4.64680017e-25)
(1.3492184 0.464198575 5.1411912e-25)
(1.74613876 0.447654095 -4.61885961e-26)
(2.19845597 0.430937203 0)
(2.71175624 0.414159141 -6.47156682e-25)
(3.29154865 0.397330646 -8.84575909e-25)
(3.94266442 0.380539537 -2.07010839e-24)
(4.66946726 0.364284935 -2.47788716e-24)
(5.47566699 0.349795975 -3.10425142e-24)
(6.3632177 0.338270477 -9.00750414e-33)
(7.33121179 0.330517158 7.88338449e-33)
(8.37598117 0.327303413 -9.89081819e-24)
(9.49058667 0.328310457 -5.31301219e-24)
(10.6664838 0.334499302 5.47030895e-24)
(11.8904872 0.345889734 5.76673288e-24)
(13.1549918 0.361201032 0)
(14.4362902 0.381980981 6.36497648e-24)
(15.7053107 0.431512143 1.20738544e-23)
(16.9606417 0.470459858 6.28357684e-24)
(18.2122809 0.486044889 0)
(19.2894539 0.623268604 -2.87856735e-26)
(20.4076095 0.692406946 7.36751051e-24)
(21.5507557 0.512945963 6.96989396e-24)
(22.4120301 0.619721956 0)
(22.9895226 1.03547257 0)
(23.533637 0.846388335 1.12645047e-24)
(23.701496 0.465816838 -1.50277151e-24)
(23.7559004 0.654933272 3.69714878e-24)
(23.8035358 0.689996544 2.05117779e-23)
(23.8076131 0.816880537 0)
(23.8066671 0.618330824 -3.17257308e-24)
(23.8164434 0.501803382 1.67707844e-23)
(-0.0241597267 0.0182676403 2.21048209e-28)
(-0.0717864236 0.0540325542 3.47752534e-28)
(-0.119728485 0.0897232721 3.8986638e-27)
(-0.168097956 0.125390109 -2.76723252e-27)
(-0.216839697 0.160972716 -3.253927e-27)
(-0.265835563 0.196356978 0)
(-0.314911942 0.231394346 -5.2645775e-27)
(-0.363861506 0.265923039 -4.92781391e-27)
(-0.412478575 0.299777817 -2.5016091e-27)
(-0.460524163 0.332792858 -1.01239016e-27)
(-0.507753732 0.364804356 2.83867751e-27)
(-0.553925927 0.395659781 2.81156172e-34)
(-0.598805455 0.425222501 1.21962571e-27)
(-0.642165198 0.453373469 1.64060054e-33)
(-0.683786306 0.480011432 -1.34325686e-27)
(-0.723456591 0.505052186 1.53563329e-26)
(-0.760967827 0.528427299 -1.86290898e-26)
(-0.796112438 0.550082768 -3.07785381e-27)
(-0.828680002 0.569977852 2.27360703e-26)
(-0.858453745 0.588083642 3.36558056e-27)
(-0.885202087 0.604378384 -7.05901816e-27)
(-0.908674883 0.618844558 -3.4688296e-26)
(-0.928605859 0.631468304 -3.7882187e-26)
(-0.944722534 0.642215055 3.982652e-27)
(-0.956707328 0.651126057 0)
(-0.964299799 0.658237475 4.29709236e-27)
(-0.967197208 0.663648601 0)
(-0.965088411 0.66749512 7.14806957e-26)
(-0.957726113 0.669862862 1.27732044e-25)
(-0.944165962 0.670741396 7.08342049e-26)
(-0.92370653 0.670000034 -6.1615247e-26)
(-0.89552701 0.667585144 -8.02548489e-26)
(-0.858500293 0.663549412 2.25315106e-26)
(-0.812058379 0.658002806 1.16356685e-26)
(-0.755379362 0.651172778 -1.11414737e-25)
(-0.68733044 0.643178463 -1.28560282e-25)
(-0.606660197 0.634070065 0)
(-0.51177301 0.623877981 1.42282974e-25)
(-0.400908778 0.612641631 1.21195823e-25)
(-0.272572658 0.600118075 2.68196427e-26)
(-0.123989349 0.586415365 2.88149667e-26)
(0.0471854799 0.573317875 0)
(0.236199289 0.561674731 0)
(0.462074102 0.547925609 0)
(0.722232014 0.532234381 3.34211391e-26)
(1.02075974 0.516417541 3.55537688e-25)
(1.36286048 0.500961006 3.3726876e-25)
(1.75306854 0.485800803 0)
(2.19649105 0.471064505 0)
(2.69855865 0.456889147 4.93448474e-25)
(3.26453678 0.443458433 5.75103901e-25)
(3.8994619 0.431296684 7.78083351e-25)
(4.60798511 0.421376971 9.45515899e-25)
(5.39374605 0.41472547 -5.24735412e-26)
(6.25863468 0.412097161 -1.37201898e-24)
(7.20237539 0.414117252 -1.5955731e-24)
(8.22199302 0.421371313 -3.93128189e-24)
(9.31217972 0.4348089 -4.80324322e-24)
(10.4637098 0.455011802 0)
(11.6647875 0.483277267 -9.71206613e-26)
(12.9014029 0.518631333 -5.68478578e-24)
(14.1602542 0.560542644 -1.18327269e-23)
(15.4191929 0.607839736 1.85280537e-25)
(16.666667 0.658083469 2.16194795e-25)
(17.885933 0.697299897 -7.77222435e-24)
(19.0373615 0.752638633 7.59605692e-24)
(20.0872106 0.83214684 7.8013897e-24)
(21.098724 0.853352852 -7.69041013e-25)
(21.9891996 0.855992596 -6.41026734e-24)
(22.7172367 0.947742696 -1.15630953e-23)
(23.3475488 0.958267554 6.58185209e-26)
(23.653917 0.880518932 -9.96782315e-24)
(23.7260525 0.93583611 -2.33425008e-24)
(23.720417 1.05876568 0)
(23.7014042 1.07871529 -1.25119885e-23)
(23.7105155 0.956872553 -2.40986922e-23)
(23.806114 0.858365577 2.33075006e-24)
(23.8491341 0.816411976 1.37271189e-23)
(23.8408586 0.898552481 9.17972317e-24)
(23.8065591 0.827567291 1.32420416e-23)
(-0.0259210043 0.0180461937 1.32089023e-27)
(-0.0770452257 0.0534190164 0)
(-0.128540809 0.0887791763 0)
(-0.180525589 0.124186507 8.74420728e-31)
(-0.232916365 0.159577688 0)
(-0.285543344 0.194828713 0)
(-0.338178985 0.22978052 0)
(-0.390559477 0.264249457 -1.99275706e-27)
(-0.442366975 0.298037675 0)
(-0.493278318 0.330958734 1.10675028e-27)
(-0.543015145 0.362837397 7.8443497e-27)
(-0.591259751 0.393519081 1.53347881e-33)
(-0.637711444 0.422858181 -9.87296528e-27)
(-0.682081574 0.450729129 0)
(-0.724090071 0.477026426 -1.41689387e-27)
(-0.763462804 0.501663038 2.97767257e-27)
(-0.799927217 0.524568375 0)
(-0.833201901 0.545684302 3.13077969e-26)
(-0.862992877 0.564961703 3.43874274e-27)
(-0.889019727 0.582325109 -7.00238075e-26)
(-0.910940987 0.597819183 -4.45393919e-26)
(-0.928493721 0.611424359 3.85993767e-27)
(-0.941380824 0.623187399 0)
(-0.949271143 0.633226553 -7.10661193e-26)
(-0.951637396 0.64138811 -7.87457533e-26)
(-0.947917348 0.647700367 -7.92057393e-26)
(-0.937502277 0.652146823 -8.87675291e-26)
(-0.919681968 0.65469041 9.60184936e-26)
(-0.893567512 0.655335937 1.01461146e-25)
(-0.858665699 0.654283561 0)
(-0.814149061 0.651650678 -1.1766583e-25)
(-0.759024225 0.647497964 -1.23440438e-25)
(-0.692194792 0.641882598 1.13289848e-26)
(-0.612400826 0.634868688 -1.26147267e-25)
(-0.518094312 0.626526324 -1.43030771e-25)
(-0.407594485 0.616931214 -2.45985406e-26)
(-0.279381146 0.605917692 1.27306056e-26)
(-0.130905183 0.593636845 -2.28083437e-25)
(0.0401260364 0.581765214 -2.31641002e-25)
(0.229357418 0.571027468 1.60284225e-25)
(0.454606928 0.558439728 3.34801622e-25)
(0.713267502 0.544254958 2.74513875e-25)
(1.00917214 0.530316614 0)
(1.34723309 0.517043583 -2.95179745e-26)
(1.73163176 0.504396867 -3.0660272e-25)
(2.16725069 0.492670229 -2.93006761e-26)
(2.65931045 0.482159323 5.46686764e-33)
(3.21296734 0.473367505 -4.78101679e-25)
(3.83322218 0.467114454 0)
(4.52445222 0.464255442 -2.10840833e-26)
(5.29012074 0.46558424 -8.94007577e-25)
(6.13230684 0.471795101 -1.04199417e-24)
(7.05134408 0.483544105 8.51537012e-27)
(8.04555559 0.50161077 -1.52399888e-24)
(9.11048216 0.526814654 -1.93210137e-24)
(10.2388367 0.560044988 -2.35217533e-24)
(11.419051 0.601729669 -7.87140642e-24)
(12.6379551 0.651975067 -5.62073839e-24)
(13.8810809 0.710427614 -5.78568986e-24)
(15.1299518 0.778277867 -6.3097293e-24)
(16.3636897 0.853312138 0)
(17.5664593 0.931858916 2.6430487e-25)
(18.7135902 1.00918757 -6.74723379e-24)
(19.7847611 1.08906251 -7.84594106e-24)
(20.7678295 1.14878759 -4.25158314e-26)
(21.6497455 1.18949346 0)
(22.4015148 1.23239247 1.16230048e-23)
(22.9892637 1.27919703 9.739748e-24)
(23.5097989 1.2464985 1.00641444e-24)
(23.7606101 1.22316118 -9.94337169e-25)
(23.7702383 1.24908661 -4.67984888e-26)
(23.7363042 1.28849664 -1.20740565e-24)
(23.7123543 1.22948128 -1.48668004e-23)
(23.7183537 1.17097182 -8.55190745e-24)
(23.7662777 1.15155916 -1.14838129e-24)
(23.7963546 1.16397562 0)
(23.8469966 1.10777677 -9.71420582e-24)
(23.9098293 1.01366871 -1.24366055e-23)
(23.9792647 0.948720973 0)
(23.9580708 0.961751529 -1.10841792e-23)
(-0.0277578653 0.0177466791 -2.41989655e-27)
(-0.082479569 0.0524938664 -3.41747966e-27)
(-0.137570077 0.0871933762 -3.99143736e-27)
(-0.193139544 0.121905219 -4.31340863e-28)
(-0.249064863 0.156561438 2.23923859e-27)
(-0.305117249 0.191027179 -9.59733602e-28)
(-0.360996959 0.225129403 4.35171464e-28)
(-0.416356194 0.258676113 -6.17232587e-28)
(-0.470818941 0.291469086 1.12451885e-27)
(-0.524005959 0.323303506 2.36873481e-27)
(-0.575485763 0.353989674 -2.5476911e-27)
(-0.624871288 0.38336744 -1.82682026e-26)
(-0.671831791 0.411291064 -1.67886784e-26)
(-0.715989557 0.437651324 -1.98214985e-26)
(-0.756985238 0.462347171 1.5286849e-27)
(-0.794464496 0.485299194 3.30554588e-26)
(-0.828092247 0.50640996 0)
(-0.85748711 0.52570773 0)
(-0.882317872 0.543131264 4.99973915e-26)
(-0.902143793 0.558666039 1.25641282e-25)
(-0.91655651 0.572251915 6.9794205e-26)
(-0.9250295 0.583898783 7.71830316e-26)
(-0.926996194 0.593579203 1.31400139e-33)
(-0.921820248 0.601250962 -9.50377404e-26)
(-0.908989363 0.607082387 9.33340164e-26)
(-0.887802282 0.611090962 2.1372369e-25)
(-0.857470697 0.613315059 1.10710638e-25)
(-0.817106149 0.613802605 -5.27561171e-27)
(-0.765721848 0.612602175 5.46376576e-27)
(-0.702206159 0.609781534 -1.13249075e-26)
(-0.625277626 0.605429819 0)
(-0.53343278 0.599644433 1.72665294e-25)
(-0.425044043 0.592526501 -1.23222022e-26)
(-0.298561353 0.583981655 -1.76488935e-25)
(-0.151619524 0.574193682 0)
(0.0179811674 0.564646458 -2.54828354e-25)
(0.206660299 0.555905737 -1.61675582e-25)
(0.43032236 0.545663202 0)
(0.686772502 0.534159972 0)
(0.979507258 0.523141568 -2.74941223e-25)
(1.31311555 0.513047543 -2.91718545e-25)
(1.69154294 0.503923695 5.69298207e-26)
(2.11941784 0.496200568 0)
(2.60173394 0.490421231 3.84890939e-25)
(3.1433562 0.487226456 9.26271068e-25)
(3.74888954 0.487330618 5.32787482e-25)
(4.42243161 0.49148904 2.0334413e-26)
(5.16735476 0.500448082 -1.88320703e-27)
(5.98600321 0.514944268 0)
(6.87937459 0.535788005 -1.12652651e-24)
(7.84665448 0.563833942 2.40599749e-26)
(8.88467985 0.599910927 1.66901173e-24)
(9.98736845 0.644725939 8.95178001e-26)
(11.1455119 0.698922613 -2.29049378e-24)
(12.3456145 0.762869723 -5.51502105e-24)
(13.5723393 0.836367176 2.25459147e-32)
(14.8095541 0.918577719 2.96902472e-24)
(16.0400062 1.00726351 0)
(17.2467534 1.10017085 0)
(18.4062108 1.19728125 2.67123738e-25)
(19.4961608 1.30011857 2.86298652e-25)
(20.4905584 1.40206431 0)
(21.3879509 1.49488618 8.27847979e-24)
(22.1659679 1.58460162 6.70888251e-24)
(22.7957686 1.64343822 -6.64585909e-24)
(23.334059 1.68798257 -2.36330126e-23)
(23.6885481 1.71448748 -1.19627922e-23)
(23.8702494 1.69359562 -1.33304418e-23)
(23.8753412 1.69592653 -6.82532627e-24)
(23.8160269 1.69971912 -1.51277289e-24)
(23.7790662 1.65001484 1.36721462e-23)
(23.7810131 1.59105236 7.98909335e-24)
(23.7923225 1.54327572 -9.58475136e-24)
(23.830761 1.4854007 -7.40034059e-24)
(23.9601685 1.39652196 -1.31946436e-23)
(23.9951749 1.38051254 -1.4381955e-23)
(23.9737663 1.39912755 -9.82100922e-24)
(24.0509362 1.32679122 1.78978621e-31)
(24.1283707 1.25318743 3.11611501e-23)
(24.1087432 1.18778495 3.05869903e-23)
(-0.0298613858 0.0174750785 1.41173559e-27)
(-0.0886025098 0.0515781171 4.27842809e-28)
(-0.147590103 0.0855128264 3.59967515e-27)
(-0.206908917 0.119331449 -7.47521426e-34)
(-0.266381044 0.152960146 -2.21171293e-27)
(-0.325705229 0.186255406 -2.23808659e-27)
(-0.384497598 0.219034667 6.14343633e-29)
(-0.44231998 0.251097169 2.62336686e-28)
(-0.498702191 0.282238831 3.08147268e-27)
(-0.553160094 0.312264481 4.86793103e-27)
(-0.60521204 0.340994363 6.47552303e-27)
(-0.654393951 0.368255456 6.57209772e-27)
(-0.700201982 0.393916633 1.05173815e-26)
(-0.74219037 0.417884326 1.56482355e-26)
(-0.779941413 0.440046037 1.66949532e-27)
(-0.812989489 0.460355391 1.74972372e-27)
(-0.840846591 0.478795624 5.25222699e-26)
(-0.863052357 0.495263285 5.99975623e-26)
(-0.879059112 0.50977877 -4.00006569e-27)
(-0.88833622 0.522373928 -4.22769348e-27)
(-0.890292146 0.533043821 7.90196166e-26)
(-0.8842607 0.541805255 8.83588747e-26)
(-0.869507959 0.548690831 0)
(-0.845217 0.55373026 5.03324714e-27)
(-0.810495368 0.556972944 0)
(-0.764334801 0.558492391 0)
(-0.70560427 0.558373959 5.66674924e-27)
(-0.633028121 0.556715181 -1.70839371e-25)
(-0.545140479 0.553627252 -1.63251503e-25)
(-0.440349906 0.549230053 1.60018924e-25)
(-0.317081628 0.54349011 1.9031131e-25)
(-0.173125796 0.536613243 1.32174199e-26)
(-0.00636697394 0.52986137 -1.34168083e-26)
(0.180447402 0.52367428 0)
(0.40112029 0.516387317 1.4532305e-26)
(0.654047819 0.508233437 0)
(0.942450967 0.500791653 0)
(1.27056725 0.494536745 1.54038063e-26)
(1.6421496 0.489643876 0)
(2.06151018 0.486624447 0)
(2.53323167 0.486045606 4.21317881e-25)
(3.06178983 0.488546975 5.04737363e-25)
(3.65146062 0.494835462 0)
(4.30612931 0.505660585 0)
(5.02913379 0.521816508 0)
(5.82299559 0.544123429 1.62185772e-26)
(6.68905926 0.573403772 6.61321076e-27)
(7.62712004 0.610452342 1.27454297e-24)
(8.63501466 0.655996583 1.52710566e-24)
(9.70818563 0.710642241 1.83060368e-24)
(10.8393225 0.774845006 2.18929409e-24)
(12.0177562 0.848946741 2.64406875e-24)
(13.2289877 0.933078441 2.96937252e-24)
(14.4555944 1.02697167 0)
(15.679791 1.12946796 0)
(16.8835529 1.23847168 -3.0960286e-24)
(18.0467417 1.35188571 -6.68252098e-24)
(19.1514274 1.46509689 -3.63498359e-24)
(20.1821282 1.57527167 -3.77186314e-24)
(21.1198614 1.67677717 -3.18026125e-24)
(21.9565213 1.78281314 7.39002697e-24)
(22.638274 1.87120052 1.46937682e-23)
(23.2428977 1.95529175 4.72821142e-25)
(23.6161381 2.01105176 -1.395944e-23)
(23.8374927 2.06516711 4.2052008e-25)
(23.8987945 2.08311807 -9.6123512e-25)
(23.9084347 2.06673518 5.01876771e-24)
(23.9010327 2.06685902 -9.89431237e-32)
(23.8768209 2.03974535 -1.278628e-23)
(23.8771934 2.01413307 -9.38755982e-25)
(23.8905197 1.99134225 7.94373455e-24)
(23.9166601 1.97775441 6.67208544e-24)
(23.9719517 1.94770791 0)
(24.0367117 1.90495741 1.12507398e-24)
(24.1562085 1.80913873 0)
(24.2029641 1.74560208 1.14225051e-23)
(24.2131264 1.7535947 2.68609951e-23)
(24.1960791 1.7378489 9.97437291e-24)
(24.2061573 1.67994813 8.41043527e-24)
(24.2016708 1.6200768 2.11181699e-23)
(-0.0322302782 0.0171982304 1.48684274e-27)
(-0.0953657634 0.0506042455 4.58857863e-27)
(-0.15845126 0.0836717149 -5.1409096e-28)
(-0.221519868 0.116437639 -2.94778416e-27)
(-0.284317441 0.148818889 -1.75791211e-27)
(-0.346450419 0.180663576 -1.04152209e-27)
(-0.407432353 0.211782799 -1.27129821e-27)
(-0.466717304 0.241972841 -4.19114069e-27)
(-0.523726933 0.27103073 -6.25667254e-27)
(-0.577871696 0.298765704 -8.62356505e-27)
(-0.628564459 0.325008703 0)
(-0.675220921 0.349634754 -3.27016956e-27)
(-0.717272346 0.372506143 1.72049001e-27)
(-0.754146689 0.39352271 0)
(-0.785241391 0.412650528 0)
(-0.809981386 0.429831482 0)
(-0.827755157 0.445052218 0)
(-0.837912819 0.458314299 -2.18473411e-27)
(-0.839751881 0.469634878 0)
(-0.832522067 0.479036152 -5.07934392e-26)
(-0.815385221 0.48658077 -5.6580802e-26)
(-0.787434924 0.492323729 1.0990362e-25)
(-0.747653046 0.496347215 1.27141708e-25)
(-0.694907632 0.498744829 -1.34146471e-25)
(-0.627933857 0.499626067 -1.58872812e-25)
(-0.545298031 0.499118451 -1.64960447e-25)
(-0.445441046 0.49736126 -1.65611008e-25)
(-0.326782769 0.494380136 -2.03238373e-25)
(-0.187255875 0.490403259 -4.69754738e-25)
(-0.0248147194 0.486489238 -2.45167573e-25)
(0.158562341 0.483000416 0)
(0.374656262 0.478827281 -1.512583e-26)
(0.62244242 0.474209762 -1.57899914e-26)
(0.904962413 0.470522356 0)
(1.22606703 0.468261443 1.60097874e-26)
(1.589282 0.467677964 0)
(1.99858223 0.469312791 0)
(2.45816715 0.473764267 4.42255704e-25)
(2.97216758 0.481691474 -1.69703091e-26)
(3.54458123 0.493827805 -5.42917807e-25)
(4.17910612 0.510964445 6.39012012e-25)
(4.87896253 0.53392223 7.2021179e-25)
(5.64668722 0.563521753 1.27976531e-26)
(6.48380846 0.600557065 0)
(7.39052555 0.645767697 1.16400345e-24)
(8.36537304 0.699793278 1.40653648e-24)
(9.40488112 0.763119507 0)
(10.5032454 0.836016917 0)
(11.6520201 0.918514052 -2.33166965e-24)
(12.8396529 1.01036859 -2.73057008e-24)
(14.0515081 1.11111506 3.18386116e-24)
(15.2686425 1.220344 3.44673956e-24)
(16.4722183 1.33669742 -3.3996209e-24)
(17.6431029 1.4580409 3.34131246e-32)
(18.7609221 1.58211134 3.79713408e-24)
(19.8080114 1.70567209 1.91422576e-26)
(20.7632702 1.82578769 0)
(21.6178637 1.93445315 3.65446581e-25)
(22.359248 2.03062397 -3.90563652e-24)
(23.0011862 2.09785514 4.64905949e-25)
(23.4914541 2.15242459 7.11683409e-24)
(23.7828844 2.2125793 0)
(23.8582048 2.21102608 5.69701869e-25)
(23.8760355 2.27031908 0)
(23.8812442 2.27697184 3.80550782e-25)
(23.8879658 2.25820235 -4.08071946e-25)
(23.8913254 2.23842152 -8.54092052e-25)
(23.8895334 2.23775582 -1.07869476e-23)
(23.9157758 2.21165768 -1.16084014e-23)
(23.9530617 2.18345412 -1.06452927e-24)
(23.9746222 2.18177394 -1.29845896e-23)
(24.0045624 2.1121958 -1.24245549e-23)
(24.0562746 2.06778105 -1.32005455e-23)
(24.0824573 2.06691404 -1.16625358e-23)
(24.1382251 2.01090156 -1.1269808e-23)
(24.2132201 1.87379428 -1.53546119e-23)
(24.2301666 1.83216541 1.19581864e-23)
(24.2243987 1.82647718 1.26033703e-23)
(24.2293473 1.82909027 -1.55986086e-24)
(24.2297279 1.73508232 3.71638759e-24)
(-0.0346280258 0.0167678684 1.24958884e-27)
(-0.102042892 0.0491686638 -4.30075172e-27)
(-0.168903251 0.0810540434 -5.96903205e-28)
(-0.235156531 0.112440301 -6.13309458e-34)
(-0.300446017 0.143232706 -6.95907272e-29)
(-0.364263379 0.173273092 -6.96124575e-28)
(-0.426000956 0.202371649 3.67347029e-27)
(-0.484986791 0.230336576 1.16703763e-33)
(-0.540520473 0.256967521 -1.62904246e-26)
(-0.591875399 0.282094324 -1.19248608e-26)
(-0.638322214 0.305565745 1.79155206e-27)
(-0.679137707 0.327243733 -1.98012217e-26)
(-0.713590853 0.347061824 -1.94843607e-26)
(-0.740961283 0.36494763 -2.55684681e-26)
(-0.760508703 0.380872337 -3.00453351e-26)
(-0.771469277 0.394834852 3.49191431e-26)
(-0.773034841 0.40686256 4.00102092e-26)
(-0.764353218 0.416986553 -2.46379518e-27)
(-0.74447181 0.425291545 0)
(-0.712382681 0.431849531 -5.45330981e-26)
(-0.666958268 0.436770653 -6.36786077e-26)
(-0.606952122 0.440179125 -5.94041751e-27)
(-0.530969115 0.442219971 7.69534496e-26)
(-0.437491983 0.4430551 8.81132066e-26)
(-0.324955397 0.442767655 -1.32511189e-26)
(-0.191422034 0.441606057 0)
(-0.0349023392 0.440457925 7.18111363e-27)
(0.143277647 0.439639045 1.30677892e-28)
(0.353079201 0.438487992 -2.39218411e-25)
(0.593967504 0.43726366 -2.80072995e-25)
(0.868824884 0.437146133 3.06017636e-25)
(1.18115247 0.438646722 2.95328252e-25)
(1.53425502 0.442089938 -3.46681932e-26)
(1.93179713 0.448046394 -3.60811973e-25)
(2.37763533 0.45715047 -1.28696027e-32)
(2.87559225 0.470093652 4.63523879e-25)
(3.42939216 0.48762781 -5.39644328e-25)
(4.04251815 0.510553541 -5.90878014e-25)
(4.71804148 0.539693843 -3.45668662e-26)
(5.45846927 0.575866792 1.66625608e-26)
(6.26545053 0.619857203 1.40308701e-26)
(7.1394909 0.672390344 -1.06140091e-24)
(8.07964605 0.734083982 -2.50007699e-24)
(9.0832088 0.805390559 -1.48806888e-24)
(10.1454089 0.886534424 -1.76695791e-24)
(11.2591416 0.977447177 -2.09654592e-24)
(12.4147368 1.07770204 0)
(13.5998052 1.18645452 2.94881433e-24)
(14.7991833 1.30247418 3.45491396e-24)
(15.9943058 1.42425918 3.74975084e-24)
(17.165737 1.54984353 7.86428346e-24)
(18.2937319 1.67669524 8.22140662e-24)
(19.3585142 1.8025792 8.6579586e-24)
(20.3409395 1.92393045 9.08735951e-24)
(21.2233239 2.03865413 4.76888234e-24)
(21.9921297 2.1415549 -4.94502221e-25)
(22.6362882 2.23342087 0)
(23.1502698 2.29356846 -5.23466241e-24)
(23.5553717 2.3467006 -5.72392242e-24)
(23.7678021 2.37539063 0)
(23.8144467 2.39964505 -3.9939959e-24)
(23.8384482 2.39751731 -5.12563267e-24)
(23.8456448 2.42086613 0)
(23.8609592 2.37426273 -4.98391663e-25)
(23.863884 2.37240069 0)
(23.8642191 2.38739781 -9.38274891e-24)
(23.8842322 2.33809343 -1.3736107e-24)
(23.9010361 2.32665283 1.17263488e-23)
(23.936084 2.29104974 -9.68753457e-25)
(23.974737 2.25895846 -9.65764367e-25)
(23.9804569 2.25177491 -1.2581288e-23)
(23.9828378 2.25266925 -1.13422299e-23)
(24.0369969 2.18230059 -1.02739299e-24)
(24.0900025 2.11456121 -1.01322335e-24)
(24.1031169 2.12111119 -6.20684517e-26)
(24.1216494 2.1031101 -9.73767492e-25)
(24.163065 2.03298604 1.27643475e-23)
(24.1867115 1.96009605 2.68846353e-23)
(24.2181471 1.87794415 1.12658472e-23)
(24.2138126 1.83402771 -2.4386075e-24)
(-0.0366825331 0.01602362 0)
(-0.107495823 0.0468171175 -6.63385276e-28)
(-0.177005032 0.0769412264 6.97929445e-28)
(-0.245035018 0.106394065 -2.18701874e-27)
(-0.311097469 0.135069831 7.73237126e-28)
(-0.374538289 0.162811165 8.13248509e-28)
(-0.434594356 0.189435144 -8.10465394e-27)
(-0.490436026 0.214748769 0)
(-0.541187892 0.238585655 1.8803366e-27)
(-0.585966621 0.260789812 -1.71273973e-26)
(-0.623880857 0.281240906 -1.88389896e-26)
(-0.654036951 0.299852028 2.50260404e-26)
(-0.675536382 0.316571589 2.2871643e-27)
(-0.687466903 0.331383722 -6.6572356e-26)
(-0.688882363 0.34431194 -7.93279863e-26)
(-0.678807734 0.355385142 -4.23961951e-26)
(-0.656162614 0.364705425 -2.74170457e-27)
(-0.619833452 0.372358306 -5.74365321e-26)
(-0.568584852 0.378481565 -6.1179704e-26)
(-0.501061245 0.383232908 3.07805716e-27)
(-0.415792238 0.38679319 -3.24430168e-27)
(-0.311240034 0.389294612 -1.34178061e-26)
(-0.185581024 0.390997917 -1.01381215e-25)
(-0.0368714573 0.392646272 -2.16875763e-25)
(0.134121945 0.394525564 -1.03642331e-25)
(0.335723698 0.396335658 -7.89429428e-27)
(0.567807261 0.398360933 -1.17823421e-25)
(0.833103363 0.401620861 8.35073005e-27)
(1.13479999 0.406641168 -8.57529561e-27)
(1.47599092 0.413813721 -1.58305207e-25)
(1.86006138 0.423735095 0)
(2.29055781 0.43706373 -4.09474932e-25)
(2.77101691 0.454510326 -1.89338732e-26)
(3.30490561 0.47683859 5.10344807e-25)
(3.89549983 0.504858234 5.71098878e-25)
(4.54572356 0.539400638 6.40304886e-25)