/*--------------------------------*- C++ -*----------------------------------*\
  =========                 |
  \\      /  F ield         | OpenFOAM: The Open Source CFD Toolbox
   \\    /   O peration     | Website:  https://openfoam.org
    \\  /    A nd           | Version:  8
     \\/     M anipulation  |
\*---------------------------------------------------------------------------*/
FoamFile
{
    version     2.0;
    format      ascii;
    class       volScalarField;
    location    "0.025";
    object      p_rgh;
}
// * * * * * * * * * * * * * * * * * * * * * * * * * * * * * * * * * * * * * //

dimensions      [1 -1 -2 0 0 0 0];

internalField   nonuniform List<scalar> 
42400
(
101391.112
101391.098
101391.083
101391.069
101391.055
101391.042
101391.029
101391.017
101391.006
101390.995
101390.986
101390.976
101390.968
101390.96
101390.953
101390.946
101390.94
101390.935
101390.93
101390.925
101390.921
101390.918
101390.914
101390.911
101390.908
101390.905
101390.901
101390.898
101390.894
101390.889
101390.884
101390.879
101390.872
101390.865
101390.856
101390.846
101390.835
101390.823
101390.809
101390.805
101390.814
101390.825
101390.811
101390.768
101390.719
101390.677
101390.651
101390.634
101390.617
101390.598
101390.58
101390.56
101390.532
101390.529
101390.552
101390.584
101390.587
101390.55
101390.534
101390.558
101390.611
101390.666
101390.724
101390.797
101390.896
101391.03
101391.217
101391.398
101391.541
101392.035
101392.323
101391.777
101393.119
101396.03
101396.124
101395.436
101397.305
101397.825
101401.425
101409.542
101391.321
101391.31
101391.297
101391.285
101391.274
101391.263
101391.252
101391.242
101391.233
101391.224
101391.215
101391.207
101391.2
101391.193
101391.187
101391.182
101391.176
101391.172
101391.168
101391.164
101391.16
101391.157
101391.154
101391.152
101391.149
101391.146
101391.143
101391.139
101391.136
101391.132
101391.127
101391.121
101391.115
101391.107
101391.099
101391.096
101391.1
101391.107
101391.117
101391.105
101391.069
101391.029
101391.002
101390.99
101390.977
101390.963
101390.949
101390.933
101390.913
101390.886
101390.883
101390.914
101390.923
101390.881
101390.845
101390.848
101390.877
101390.901
101390.921
101390.949
101390.99
101391.054
101391.146
101391.267
101391.42
101391.621
101391.937
101392.323
101392.548
101393.06
101393.876
101393.71
101394.043
101395.806
101396.777
101398.602
101403.284
101407.282
101408.913
101410.887
101391.462
101391.453
101391.443
101391.433
101391.424
101391.416
101391.407
101391.4
101391.392
101391.385
101391.379
101391.373
101391.368
101391.364
101391.36
101391.356
101391.354
101391.352
101391.35
101391.349
101391.348
101391.348
101391.348
101391.349
101391.35
101391.35
101391.351
101391.352
101391.353
101391.354
101391.354
101391.354
101391.357
101391.365
101391.376
101391.382
101391.373
101391.354
101391.332
101391.32
101391.318
101391.315
101391.311
101391.306
101391.297
101391.281
101391.282
101391.299
101391.334
101391.336
101391.3
101391.29
101391.306
101391.324
101391.334
101391.345
101391.363
101391.395
101391.443
101391.506
101391.587
101391.689
101391.83
101392.026
101392.29
101392.637
101393.123
101393.819
101394.4
101395.025
101396.01
101396.322
101396.857
101400.204
101403.72
101405.957
101406.472
101407.889
101412.044
101415.132
101391.551
101391.544
101391.535
101391.528
101391.521
101391.514
101391.508
101391.502
101391.497
101391.492
101391.488
101391.485
101391.483
101391.481
101391.481
101391.481
101391.482
101391.483
101391.486
101391.489
101391.493
101391.498
101391.504
101391.511
101391.518
101391.526
101391.534
101391.543
101391.553
101391.565
101391.579
101391.596
101391.607
101391.61
101391.611
101391.611
101391.617
101391.63
101391.642
101391.653
101391.663
101391.671
101391.671
101391.688
101391.732
101391.751
101391.732
101391.727
101391.742
101391.771
101391.791
101391.808
101391.828
101391.855
101391.89
101391.934
101391.988
101392.054
101392.139
101392.25
101392.405
101392.609
101392.878
101393.216
101393.642
101394.192
101394.889
101395.867
101396.583
101397.36
101399.696
101403.32
101405.688
101405.607
101406.123
101408.142
101410.25
101412.905
101414.984
101416.779
101391.6
101391.593
101391.586
101391.579
101391.573
101391.568
101391.563
101391.559
101391.556
101391.554
101391.553
101391.552
101391.553
101391.555
101391.558
101391.563
101391.569
101391.575
101391.584
101391.593
101391.604
101391.617
101391.63
101391.644
101391.658
101391.675
101391.694
101391.715
101391.735
101391.755
101391.774
101391.794
101391.816
101391.843
101391.869
101391.895
101391.921
101391.947
101391.971
101391.989
101392.021
101392.078
101392.11
101392.11
101392.128
101392.163
101392.196
101392.225
101392.255
101392.288
101392.326
101392.367
101392.414
101392.469
101392.535
101392.618
101392.722
101392.853
101393.028
101393.25
101393.535
101393.871
101394.29
101394.755
101395.314
101395.854
101396.346
101397.864
101401.107
101403.6
101404.295
101404.397
101405.704
101407.469
101409.41
101411.34
101413.25
101414.97
101416.752
101418.465
101391.583
101391.576
101391.569
101391.563
101391.557
101391.553
101391.55
101391.547
101391.546
101391.547
101391.548
101391.551
101391.556
101391.562
101391.57
101391.579
101391.591
101391.604
101391.619
101391.635
101391.651
101391.67
101391.692
101391.717
101391.746
101391.775
101391.806
101391.838
101391.872
101391.908
101391.946
101391.984
101392.022
101392.062
101392.103
101392.143
101392.178
101392.224
101392.294
101392.34
101392.359
101392.397
101392.45
101392.497
101392.542
101392.587
101392.633
101392.681
101392.732
101392.787
101392.85
101392.924
101393.011
101393.115
101393.241
101393.395
101393.595
101393.845
101394.162
101394.539
101395.016
101395.55
101396.233
101396.862
101397.685
101399.575
101402.133
101403.454
101403.527
101404.019
101405.296
101407.127
101409.028
101410.478
101411.854
101413.348
101414.868
101416.483
101418.198
101419.816
101391.47
101391.463
101391.456
101391.45
101391.446
101391.442
101391.441
101391.44
101391.441
101391.444
101391.449
101391.455
101391.464
101391.475
101391.488
101391.504
101391.52
101391.539
101391.561
101391.587
101391.617
101391.649
101391.684
101391.72
101391.758
101391.799
101391.841
101391.886
101391.933
101391.982
101392.033
101392.086
101392.14
101392.189
101392.249
101392.33
101392.39
101392.428
101392.485
101392.555
101392.618
101392.679
101392.74
101392.802
101392.865
101392.93
101393
101393.075
101393.159
101393.253
101393.361
101393.488
101393.637
101393.817
101394.041
101394.318
101394.656
101395.06
101395.553
101396.111
101396.799
101397.412
101398.318
101400.289
101402.142
101403.162
101403.638
101404.371
101405.532
101406.701
101407.933
101409.682
101411.364
101412.653
101413.729
101415.113
101417.062
101418.773
101420.35
101421.348
101391.21
101391.203
101391.196
101391.191
101391.187
101391.186
101391.186
101391.188
101391.192
101391.198
101391.206
101391.218
101391.231
101391.247
101391.266
101391.288
101391.314
101391.344
101391.376
101391.41
101391.448
101391.489
101391.532
101391.579
101391.629
101391.682
101391.738
101391.797
101391.858
101391.921
101391.982
101392.052
101392.141
101392.214
101392.268
101392.341
101392.424
101392.502
101392.578
101392.656
101392.735
101392.815
101392.898
101392.984
101393.075
101393.173
101393.28
101393.398
101393.531
101393.683
101393.857
101394.062
101394.308
101394.603
101394.95
101395.361
101395.831
101396.36
101396.937
101397.495
101398.544
101400.727
101402.301
101402.709
101403.237
101404.079
101405.061
101406.205
101407.544
101409.061
101410.57
101412.121
101413.505
101415.062
101416.689
101418.41
101420.193
101421.923
101423.869
101425.863
101390.751
101390.744
101390.738
101390.735
101390.733
101390.734
101390.737
101390.743
101390.751
101390.762
101390.775
101390.792
101390.813
101390.837
101390.863
101390.893
101390.927
101390.964
101391.005
101391.049
101391.097
101391.149
101391.205
101391.264
101391.326
101391.392
101391.459
101391.528
101391.605
101391.699
101391.78
101391.847
101391.931
101392.025
101392.115
101392.205
101392.298
101392.392
101392.488
101392.587
101392.69
101392.798
101392.912
101393.035
101393.168
101393.315
101393.478
101393.663
101393.872
101394.114
101394.397
101394.732
101395.123
101395.587
101396.118
101396.753
101397.44
101398.248
101399.303
101401.06
101402.249
101402.512
101403.002
101403.694
101404.848
101406.171
101407.611
101409.021
101410.391
101412.156
101413.847
101414.874
101416.084
101417.708
101419.289
101420.937
101422.622
101424.431
101426.166
101428.238
101390.029
101390.024
101390.021
101390.02
101390.022
101390.027
101390.034
101390.045
101390.06
101390.077
101390.097
101390.121
101390.148
101390.18
101390.215
101390.255
101390.298
101390.346
101390.397
101390.453
101390.513
101390.578
101390.645
101390.714
101390.79
101390.879
101390.97
101391.048
101391.129
101391.222
101391.323
101391.422
101391.523
101391.626
101391.732
101391.841
101391.954
101392.071
101392.192
101392.321
101392.457
101392.603
101392.762
101392.936
101393.129
101393.345
101393.588
101393.864
101394.178
101394.542
101394.957
101395.43
101395.955
101396.558
101397.164
101397.896
101399.168
101400.823
101402.017
101402.335
101402.75
101403.838
101404.91
101405.92
101407.258
101408.749
101410.292
101411.556
101412.531
101413.655
101414.84
101416.174
101417.496
101418.833
101420.555
101422.286
101424.005
101425.764
101427.65
101429.313
101389.001
101389
101389.001
101389.004
101389.011
101389.021
101389.035
101389.051
101389.072
101389.096
101389.124
101389.157
101389.194
101389.235
101389.28
101389.33
101389.385
101389.444
101389.508
101389.575
101389.646
101389.724
101389.814
101389.9
101389.982
101390.076
101390.177
101390.28
101390.385
101390.493
101390.604
101390.719
101390.838
101390.96
101391.087
101391.219
101391.358
101391.505
101391.661
101391.829
101392.011
101392.211
101392.432
101392.679
101392.954
101393.263
101393.612
101394.006
101394.453
101394.954
101395.518
101396.131
101396.771
101397.578
101398.976
101400.571
101401.309
101401.629
101402.159
101403.031
101404.251
101405.472
101406.539
101407.667
101409.023
101410.418
101411.69
101412.811
101414.016
101415.358
101416.753
101418.219
101419.787
101421.455
101423.114
101424.836
101426.526
101428.216
101430.206
101431.87
101387.602
101387.606
101387.612
101387.622
101387.635
101387.651
101387.672
101387.697
101387.726
101387.76
101387.798
101387.841
101387.889
101387.941
101387.999
101388.061
101388.128
101388.199
101388.277
101388.366
101388.453
101388.538
101388.634
101388.738
101388.843
101388.952
101389.066
101389.184
101389.305
101389.431
101389.561
101389.696
101389.836
101389.984
101390.139
101390.303
101390.479
101390.669
101390.876
101391.103
101391.354
101391.633
101391.945
101392.295
101392.688
101393.129
101393.627
101394.183
101394.808
101395.496
101396.263
101397.15
101398.265
101399.623
101400.445
101400.849
101401.564
101402.608
101403.785
101405.021
101406.363
101407.885
101409.359
101410.33
101411.237
101412.324
101413.41
101414.751
101416.281
101417.754
101419.203
101420.578
101421.889
101423.433
101425.269
101427.068
101428.867
101430.725
101432.841
101434.639
101385.78
101385.789
101385.803
101385.82
101385.841
101385.867
101385.897
101385.932
101385.971
101386.016
101386.066
101386.121
101386.181
101386.246
101386.316
101386.393
101386.479
101386.566
101386.654
101386.751
101386.855
101386.962
101387.074
101387.191
101387.312
101387.438
101387.568
101387.704
101387.845
101387.991
101388.145
101388.306
101388.476
101388.657
101388.852
101389.062
101389.291
101389.542
101389.819
101390.127
101390.469
101390.851
101391.276
101391.749
101392.275
101392.855
101393.493
101394.179
101394.899
101395.69
101396.795
101398.224
101399.488
101400.094
101400.711
101401.728
101402.868
101404.154
101405.506
101406.898
101408.146
101409.161
101410.055
101411.087
101412.41
101413.706
101415.049
101416.524
101417.99
101419.529
101421.144
101422.724
101424.665
101426.672
101428.425
101430.388
101432.437
101434.198
101435.44
101436.669
101383.468
101383.485
101383.509
101383.536
101383.567
101383.603
101383.645
101383.691
101383.743
101383.8
101383.863
101383.931
101384.005
101384.088
101384.174
101384.262
101384.359
101384.463
101384.571
101384.684
101384.802
101384.925
101385.054
101385.188
101385.327
101385.472
101385.624
101385.782
101385.949
101386.124
101386.31
101386.509
101386.724
101386.956
101387.209
101387.488
101387.795
101388.136
101388.514
101388.933
101389.398
101389.912
101390.479
101391.099
101391.775
101392.501
101393.285
101394.191
101395.487
101397.086
101398.077
101398.569
101399.141
101400.002
101401.248
101402.626
101404.17
101405.709
101406.97
101407.889
101408.802
101409.99
101411.301
101412.692
101414.139
101415.667
101417.272
101418.914
101420.601
101422.344
101424.159
101426.071
101427.835
101429.56
101431.439
101432.809
101433.963
101435.487
101437.245
101438.606
101380.62
101380.648
101380.683
101380.721
101380.765
101380.814
101380.868
101380.927
101380.993
101381.066
101381.143
101381.225
101381.314
101381.409
101381.511
101381.618
101381.731
101381.849
101381.974
101382.104
101382.24
101382.381
101382.53
101382.685
101382.847
101383.018
101383.198
101383.39
101383.594
101383.814
101384.052
101384.31
101384.594
101384.907
101385.252
101385.635
101386.06
101386.531
101387.053
101387.628
101388.259
101388.949
101389.697
101390.492
101391.341
101392.263
101393.526
101395.153
101396.2
101396.759
101397.499
101398.585
101399.856
101401.196
101402.559
101403.885
101405.204
101406.212
101407.046
101408.308
101409.962
101411.495
101413.005
101414.522
101416.054
101417.598
101419.132
101420.747
101422.503
101424.263
101426.028
101428.014
101429.865
101431.133
101432.781
101434.852
101436.522
101438.073
101440.026
101442.232
101377.192
101377.232
101377.281
101377.333
101377.39
101377.453
101377.522
101377.597
101377.677
101377.763
101377.856
101377.955
101378.06
101378.171
101378.287
101378.41
101378.54
101378.675
101378.817
101378.966
101379.121
101379.285
101379.457
101379.639
101379.832
101380.038
101380.259
101380.497
101380.757
101381.04
101381.352
101381.696
101382.077
101382.5
101382.969
101383.49
101384.065
101384.7
101385.396
101386.157
101386.982
101387.874
101388.821
101389.795
101390.865
101392.366
101393.569
101394.196
101395.056
101396.292
101397.607
101398.857
101400.17
101401.753
101403.222
101404.444
101405.663
101406.953
101408.414
101409.919
101411.341
101412.822
101414.336
101415.876
101417.478
101419.072
101420.545
101421.963
101423.73
101425.854
101427.919
101429.989
101432.02
101434.081
101435.587
101437.145
101438.945
101440.909
101442.57
101444.523
101373.18
101373.234
101373.299
101373.367
101373.439
101373.517
101373.601
101373.691
101373.787
101373.889
101373.998
101374.112
101374.232
101374.359
101374.492
101374.632
101374.779
101374.933
101375.095
101375.266
101375.446
101375.638
101375.842
101376.06
101376.296
101376.552
101376.831
101377.136
101377.473
101377.846
101378.258
101378.715
101379.222
101379.782
101380.4
101381.08
101381.823
101382.633
101383.51
101384.455
101385.467
101386.572
101387.715
101388.864
101390.258
101391.439
101392.463
101393.78
101395.187
101396.567
101397.977
101399.474
101401.152
101402.747
101404.14
101405.448
101406.627
101407.958
101409.496
101411.038
101412.587
101414.194
101415.872
101417.489
101419.301
101421.52
101423.578
101425.506
101427.588
101429.226
101430.709
101432.348
101433.964
101435.672
101437.376
101439.123
101440.725
101442.978
101445.477
101447.259
101368.59
101368.66
101368.742
101368.826
101368.915
101369.01
101369.11
101369.216
101369.328
101369.447
101369.571
101369.702
101369.84
101369.985
101370.137
101370.297
101370.467
101370.646
101370.836
101371.039
101371.256
101371.491
101371.745
101372.022
101372.325
101372.66
101373.029
101373.438
101373.891
101374.394
101374.95
101375.565
101376.241
101376.981
101377.786
101378.656
101379.588
101380.578
101381.613
101382.671
101383.757
101385.207
101387.037
101388.637
101389.582
101390.602
101392.142
101393.804
101395.571
101396.99
101398.57
101400.768
101402.286
101403.307
101404.373
101405.494
101406.945
101408.631
101410.349
101412.015
101413.6
101415.514
101417.952
101420.236
101422.053
101423.762
101425.468
101427.234
101429.074
101431.243
101433.748
101435.497
101436.751
101438.234
101439.842
101441.431
101443.134
101444.737
101446.132
101447.12
101363.515
101363.6
101363.7
101363.802
101363.907
101364.017
101364.133
101364.255
101364.382
101364.516
101364.656
101364.804
101364.959
101365.123
101365.297
101365.481
101365.677
101365.888
101366.115
101366.361
101366.629
101366.923
101367.246
101367.604
101368
101368.44
101368.929
101369.472
101370.075
101370.74
101371.473
101372.277
101373.153
101374.103
101375.129
101376.229
101377.404
101378.652
101379.972
101381.379
101383.239
101384.914
101386
101387.411
101389.389
101391.361
101393.234
101394.648
101395.84
101397.628
101399.237
101400.024
101401.145
101403.053
101404.928
101406.811
101408.713
101410.578
101412.508
101414.641
101416.843
101419.037
101420.597
101421.856
101423.697
101425.951
101428.316
101430.415
101431.916
101433.542
101435.152
101436.88
101439.302
101441.392
101443.004
101444.847
101446.333
101447.435
101448.444
101449.426
101358.036
101358.137
101358.255
101358.374
101358.496
101358.623
101358.756
101358.896
101359.042
101359.195
101359.357
101359.529
101359.71
101359.905
101360.113
101360.338
101360.581
101360.847
101361.139
101361.461
101361.817
101362.214
101362.655
101363.147
101363.695
101364.306
101364.985
101365.736
101366.565
101367.474
101368.465
101369.538
101370.693
101371.926
101373.232
101374.597
101375.998
101377.455
101379.144
101380.794
101382.35
101384.354
101386.433
101387.853
101388.994
101390.469
101392.516
101394.318
101395.7
101396.847
101398.224
101400.167
101402.24
101404.27
101406.261
101408.256
101410.289
101412.334
101414.504
101416.793
101419.015
101420.798
101422.983
101425.254
101426.769
101428.379
101430.209
101432.148
101434.134
101436.078
101437.929
101439.881
101441.403
101442.884
101444.953
101446.74
101448.243
101450.385
101452.158
101453.806
101352.423
101352.424
101352.425
101352.424
101352.422
101352.419
101352.414
101352.407
101352.399
101352.39
101352.379
101352.366
101352.351
101352.335
101352.316
101352.296
101352.274
101352.25
101352.223
101352.194
101352.163
101352.129
101352.093
101352.054
101352.012
101351.968
101351.92
101351.869
101351.815
101351.758
101351.697
101351.632
101351.564
101351.492
101351.416
101351.335
101351.251
101351.163
101351.07
101350.971
101350.868
101350.76
101350.647
101350.53
101350.407
101350.279
101350.145
101350.005
101349.86
101349.708
101349.549
101349.382
101349.205
101349.017
101348.816
101348.599
101348.363
101348.105
101347.817
101347.494
101347.126
101346.701
101346.205
101345.618
101344.922
101344.096
101343.125
101342
101340.727
101339.317
101337.784
101336.134
101334.37
101332.463
101330.383
101328.155
101325.598
101322.511
101319.654
101316.726
101355.082
101355.083
101355.083
101355.083
101355.081
101355.078
101355.075
101355.07
101355.064
101355.057
101355.049
101355.039
101355.029
101355.017
101355.004
101354.989
101354.973
101354.955
101354.936
101354.915
101354.892
101354.868
101354.841
101354.813
101354.783
101354.75
101354.716
101354.679
101354.64
101354.599
101354.555
101354.509
101354.46
101354.409
101354.355
101354.298
101354.239
101354.177
101354.111
101354.041
101353.969
101353.895
101353.817
101353.737
101353.653
101353.567
101353.477
101353.384
101353.288
101353.188
101353.085
101352.978
101352.867
101352.749
101352.624
101352.491
101352.346
101352.188
101352.011
101351.81
101351.577
101351.302
101350.973
101350.573
101350.086
101349.497
101348.792
101347.963
101347.009
101345.93
101344.728
101343.409
101341.971
101340.397
101338.692
101336.848
101334.795
101332.346
101329.628
101327.698
101357.882
101357.883
101357.883
101357.883
101357.882
101357.88
101357.878
101357.875
101357.871
101357.867
101357.862
101357.856
101357.85
101357.843
101357.834
101357.826
101357.816
101357.805
101357.793
101357.78
101357.767
101357.752
101357.736
101357.718
101357.7
101357.68
101357.66
101357.637
101357.614
101357.589
101357.563
101357.535
101357.506
101357.476
101357.444
101357.411
101357.377
101357.34
101357.3
101357.26
101357.219
101357.177
101357.134
101357.09
101357.045
101356.999
101356.952
101356.904
101356.856
101356.807
101356.757
101356.706
101356.654
101356.601
101356.546
101356.489
101356.43
101356.364
101356.288
101356.196
101356.096
101355.975
101355.82
101355.617
101355.354
101355.017
101354.593
101354.071
101353.443
101352.706
101351.862
101350.92
101349.899
101348.796
101347.606
101346.324
101344.928
101343.354
101341.633
101340.243
101360.772
101360.773
101360.773
101360.772
101360.772
101360.771
101360.77
101360.769
101360.768
101360.766
101360.765
101360.763
101360.76
101360.758
101360.755
101360.751
101360.748
101360.744
101360.739
101360.735
101360.73
101360.724
101360.718
101360.712
101360.705
101360.697
101360.69
101360.681
101360.673
101360.664
101360.654
101360.645
101360.635
101360.625
101360.614
101360.604
101360.592
101360.579
101360.568
101360.556
101360.545
101360.534
101360.524
101360.514
101360.505
101360.497
101360.491
101360.485
101360.481
101360.479
101360.479
101360.481
101360.484
101360.492
101360.501
101360.514
101360.53
101360.544
101360.557
101360.559
101360.568
101360.578
101360.578
101360.567
101360.529
101360.451
101360.318
101360.111
101359.811
101359.4
101358.867
101358.231
101357.53
101356.784
101355.974
101355.113
101354.228
101353.369
101352.549
101351.589
101363.697
101363.697
101363.697
101363.697
101363.697
101363.697
101363.698
101363.698
101363.699
101363.7
101363.701
101363.703
101363.704
101363.706
101363.708
101363.71
101363.712
101363.715
101363.717
101363.72
101363.723
101363.726
101363.729
101363.732
101363.736
101363.74
101363.745
101363.749
101363.754
101363.76
101363.766
101363.772
101363.779
101363.788
101363.797
101363.806
101363.817
101363.828
101363.84
101363.854
101363.869
101363.887
101363.906
101363.927
101363.95
101363.976
101364.005
101364.037
101364.073
101364.112
101364.155
101364.203
101364.257
101364.319
101364.387
101364.458
101364.535
101364.62
101364.715
101364.818
101364.918
101365.01
101365.126
101365.266
101365.39
101365.495
101365.566
101365.585
101365.524
101365.359
101365.079
101364.709
101364.288
101363.845
101363.374
101362.864
101362.363
101361.903
101361.339
101360.67
101366.608
101366.607
101366.607
101366.607
101366.608
101366.609
101366.611
101366.613
101366.616
101366.619
101366.623
101366.627
101366.632
101366.638
101366.644
101366.651
101366.658
101366.666
101366.675
101366.685
101366.695
101366.705
101366.717
101366.729
101366.743
101366.757
101366.772
101366.788
101366.805
101366.824
101366.844
101366.865
101366.888
101366.912
101366.937
101366.964
101366.993
101367.024
101367.057
101367.093
101367.131
101367.172
101367.215
101367.262
101367.312
101367.366
101367.424
101367.486
101367.553
101367.624
101367.702
101367.786
101367.878
101367.976
101368.079
101368.19
101368.31
101368.44
101368.58
101368.733
101368.897
101369.072
101369.246
101369.444
101369.669
101369.886
101370.094
101370.286
101370.441
101370.54
101370.573
101370.537
101370.435
101370.288
101370.111
101369.901
101369.654
101369.358
101369.037
101368.89
101369.459
101369.458
101369.458
101369.458
101369.459
101369.461
101369.464
101369.467
101369.472
101369.477
101369.483
101369.49
101369.498
101369.507
101369.517
101369.528
101369.54
101369.553
101369.567
101369.582
101369.598
101369.616
101369.634
101369.654
101369.676
101369.699
101369.723
101369.75
101369.778
101369.808
101369.839
101369.872
101369.907
101369.944
101369.983
101370.025
101370.07
101370.117
101370.167
101370.22
101370.277
101370.337
101370.4
101370.467
101370.539
101370.615
101370.695
101370.781
101370.871
101370.968
101371.072
101371.184
101371.303
101371.426
101371.558
101371.699
101371.85
101372.012
101372.185
101372.371
101372.573
101372.794
101373.033
101373.283
101373.562
101373.862
101374.158
101374.458
101374.759
101375.053
101375.334
101375.582
101375.778
101375.923
101376.03
101376.141
101376.27
101376.428
101376.624
101376.794
101372.211
101372.21
101372.209
101372.209
101372.211
101372.213
101372.217
101372.221
101372.227
101372.234
101372.242
101372.251
101372.261
101372.273
101372.286
101372.3
101372.316
101372.333
101372.351
101372.371
101372.392
101372.415
101372.44
101372.467
101372.496
101372.526
101372.558
101372.591
101372.626
101372.664
101372.705
101372.748
101372.793
101372.841
101372.891
101372.945
101373.002
101373.061
101373.125
101373.191
101373.262
101373.336
101373.415
101373.498
101373.585
101373.677
101373.775
101373.877
101373.986
101374.102
101374.226
101374.356
101374.491
101374.635
101374.787
101374.948
101375.12
101375.304
101375.504
101375.721
101375.954
101376.205
101376.478
101376.775
101377.089
101377.438
101377.798
101378.172
101378.567
101378.983
101379.422
101379.857
101380.27
101380.658
101381.037
101381.41
101381.817
101382.294
101382.779
101383.206
101374.831
101374.83
101374.829
101374.829
101374.83
101374.833
101374.836
101374.842
101374.848
101374.856
101374.866
101374.876
101374.889
101374.902
101374.918
101374.934
101374.953
101374.973
101374.994
101375.018
101375.043
101375.07
101375.099
101375.129
101375.162
101375.197
101375.234
101375.274
101375.316
101375.361
101375.408
101375.458
101375.51
101375.566
101375.625
101375.687
101375.753
101375.822
101375.895
101375.971
101376.052
101376.137
101376.226
101376.32
101376.419
101376.522
101376.631
101376.746
101376.868
101376.995
101377.129
101377.27
101377.418
101377.573
101377.74
101377.918
101378.108
101378.308
101378.521
101378.754
101379.007
101379.277
101379.563
101379.876
101380.228
101380.617
101381.03
101381.474
101381.954
101382.462
101382.986
101383.522
101384.089
101384.704
101385.315
101385.897
101386.499
101387.17
101387.893
101388.642
101377.293
101377.291
101377.289
101377.288
101377.29
101377.292
101377.296
101377.301
101377.307
101377.315
101377.325
101377.336
101377.349
101377.364
101377.38
101377.398
101377.418
101377.44
101377.463
101377.489
101377.516
101377.546
101377.578
101377.611
101377.648
101377.686
101377.727
101377.77
101377.816
101377.865
101377.917
101377.971
101378.029
101378.09
101378.154
101378.221
101378.293
101378.367
101378.446
101378.528
101378.615
101378.706
101378.801
101378.901
101379.006
101379.117
101379.234
101379.356
101379.486
101379.622
101379.765
101379.919
101380.081
101380.247
101380.419
101380.6
101380.795
101381.011
101381.244
101381.483
101381.735
101382.008
101382.308
101382.64
101383.012
101383.416
101383.851
101384.325
101384.85
101385.426
101386.058
101386.738
101387.454
101388.189
101388.957
101389.824
101390.795
101391.756
101392.758
101393.803
101379.572
101379.569
101379.566
101379.565
101379.565
101379.566
101379.57
101379.574
101379.581
101379.589
101379.598
101379.609
101379.622
101379.637
101379.654
101379.672
101379.693
101379.715
101379.739
101379.765
101379.794
101379.824
101379.857
101379.893
101379.93
101379.97
101380.013
101380.058
101380.106
101380.156
101380.21
101380.267
101380.326
101380.389
101380.456
101380.525
101380.599
101380.676
101380.757
101380.841
101380.931
101381.024
101381.123
101381.227
101381.337
101381.455
101381.58
101381.711
101381.845
101381.981
101382.124
101382.272
101382.428
101382.601
101382.789
101382.984
101383.187
101383.395
101383.616
101383.854
101384.111
101384.391
101384.699
101385.035
101385.404
101385.803
101386.247
101386.745
101387.307
101387.939
101388.635
101389.398
101390.235
101391.159
101392.213
101393.375
101394.481
101395.629
101397.124
101398.355
101381.654
101381.65
101381.645
101381.643
101381.642
101381.642
101381.644
101381.648
101381.653
101381.66
101381.669
101381.679
101381.691
101381.705
101381.721
101381.739
101381.758
101381.78
101381.804
101381.83
101381.858
101381.888
101381.92
101381.955
101381.992
101382.032
101382.074
101382.119
101382.166
101382.216
101382.269
101382.325
101382.384
101382.446
101382.512
101382.581
101382.653
101382.73
101382.812
101382.898
101382.989
101383.084
101383.183
101383.284
101383.389
101383.498
101383.613
101383.735
101383.869
101384.012
101384.161
101384.316
101384.477
101384.641
101384.811
101384.994
101385.189
101385.398
101385.62
101385.859
101386.116
101386.395
101386.7
101387.033
101387.401
101387.808
101388.261
101388.768
101389.334
101389.97
101390.699
101391.561
101392.519
101393.546
101394.738
101396.099
101397.466
101398.918
101400.594
101401.995
101383.532
101383.526
101383.519
101383.515
101383.512
101383.511
101383.511
101383.513
101383.516
101383.522
101383.528
101383.537
101383.547
101383.559
101383.573
101383.589
101383.607
101383.627
101383.648
101383.672
101383.698
101383.726
101383.756
101383.789
101383.824
101383.861
101383.9
101383.942
101383.987
101384.034
101384.084
101384.138
101384.194
101384.254
101384.318
101384.384
101384.453
101384.523
101384.596
101384.672
101384.752
101384.837
101384.93
101385.03
101385.135
101385.243
101385.357
101385.474
101385.594
101385.719
101385.853
101385.996
101386.147
101386.308
101386.477
101386.655
101386.844
101387.045
101387.259
101387.488
101387.735
101388.002
101388.293
101388.612
101388.966
101389.359
101389.8
101390.294
101390.85
101391.474
101392.225
101393.141
101394.138
101395.229
101396.48
101397.847
101399.284
101400.849
101402.658
101404.256
101385.194
101385.186
101385.177
101385.171
101385.166
101385.162
101385.16
101385.159
101385.16
101385.162
101385.167
101385.172
101385.18
101385.189
101385.201
101385.213
101385.228
101385.245
101385.264
101385.284
101385.307
101385.332
101385.359
101385.388
101385.419
101385.453
101385.489
101385.528
101385.568
101385.611
101385.655
101385.701
101385.75
101385.8
101385.853
101385.909
101385.97
101386.036
101386.105
101386.176
101386.251
101386.329
101386.408
101386.49
101386.578
101386.671
101386.771
101386.876
101386.987
101387.105
101387.228
101387.358
101387.496