/*--------------------------------*- C++ -*----------------------------------*\
  =========                 |
  \\      /  F ield         | OpenFOAM: The Open Source CFD Toolbox
   \\    /   O peration     | Website:  https://openfoam.org
    \\  /    A nd           | Version:  8
     \\/     M anipulation  |
\*---------------------------------------------------------------------------*/
FoamFile
{
    version     2.0;
    format      ascii;
    class       surfaceScalarField;
    location    "0.025";
    object      phi;
}
// * * * * * * * * * * * * * * * * * * * * * * * * * * * * * * * * * * * * * //

dimensions      [1 0 -1 0 0 0 0];

internalField   nonuniform List<scalar> 
84340
(
-7.27990173e-08
3.23616124e-07
-2.50531403e-07
-2.93004571e-07
1.00956685e-06
-7.88899457e-07
-6.66315427e-07
1.7494232e-06
-1.37554208e-06
-1.19804199e-06
2.53631456e-06
-2.00392424e-06
-1.89351397e-06
3.3661874e-06
-2.66996919e-06
-2.75816404e-06
4.23692962e-06
-3.37145693e-06
-3.7975935e-06
5.14802029e-06
-4.1076939e-06
-5.0175876e-06
6.10010197e-06
-4.87913569e-06
-6.42409747e-06
7.09454897e-06
-5.68698872e-06
-8.02319686e-06
8.13310811e-06
-6.53287577e-06
-9.82101984e-06
9.21764428e-06
-7.41860046e-06
-1.18236823e-05
1.03499713e-05
-8.34599403e-06
-1.40371913e-05
1.15317525e-05
-9.31682811e-06
-1.64673422e-05
1.27644522e-05
-1.03327781e-05
-1.9119597e-05
1.40493162e-05
-1.13954227e-05
-2.19989627e-05
1.53873872e-05
-1.25062592e-05
-2.51098415e-05
1.6779518e-05
-1.3666745e-05
-2.84558809e-05
1.82263962e-05
-1.48783214e-05
-3.2039801e-05
1.9728569e-05
-1.61424626e-05
-3.58632102e-05
2.12864581e-05
-1.74607016e-05
-3.99264023e-05
2.29003707e-05
-1.88346594e-05
-4.42281326e-05
2.4570501e-05
-2.02660682e-05
-4.87653617e-05
2.62969134e-05
-2.17567863e-05
-5.35329805e-05
2.80795234e-05
-2.33087982e-05
-5.85234859e-05
2.99180456e-05
-2.49242117e-05
-6.37266241e-05
3.18119367e-05
-2.66052333e-05
-6.91289932e-05
3.37603048e-05
-2.83541185e-05
-7.47135874e-05
3.57618044e-05
-3.01731246e-05
-8.0459299e-05
3.78144949e-05
-3.20644122e-05
-8.63403505e-05
3.99156547e-05
-3.40299285e-05
-9.23256554e-05
4.20615483e-05
-3.60712462e-05
-9.83780937e-05
4.4247127e-05
-3.8189349e-05
-0.000104453956
4.64659498e-05
-4.03843851e-05
-0.000110503019
4.8710501e-05
-4.2655351e-05
-0.000116468944
5.09721892e-05
-4.49997713e-05
-0.000122287081
5.32388848e-05
-4.74138368e-05
-0.000127868958
5.54824935e-05
-4.98932544e-05
-0.000133112748
5.76861201e-05
-5.24344755e-05
-0.000137904858
5.98338591e-05
-5.50334076e-05
-0.000142147954
6.19309116e-05
-5.7678956e-05
-0.000145730532
6.39173209e-05
-6.03255011e-05
-0.000148458075
6.57109146e-05
-6.29737843e-05
-0.000150009844
6.71836187e-05
-6.56215684e-05
-0.000150066298
6.829119e-05
-6.82237209e-05
-0.000148313834
6.89605303e-05
-7.07013173e-05
-0.000144445751
6.90665922e-05
-7.29222812e-05
-0.00013805194
6.84687345e-05
-7.48494886e-05
-0.000128719965
6.70210965e-05
-7.63393143e-05
-0.000115961593
6.45569623e-05
-7.73008393e-05
-9.92620375e-05
6.08950606e-05
-7.75793644e-05
-7.80060753e-05
5.5742582e-05
-7.69825167e-05
-5.16651733e-05
4.90195286e-05
-7.53436205e-05
-2.00533921e-05
4.08290047e-05
-7.24231677e-05
1.75492695e-05
3.03031269e-05
-6.78872114e-05
6.22061116e-05
1.70917199e-05
-6.17292131e-05
0.000115090192
7.10246138e-07
-5.35742176e-05
0.000177475039
-1.89088779e-05
-4.34545078e-05
0.000250830838
-4.30823051e-05
-3.02503569e-05
0.000336885024
-7.22914455e-05
-1.37379062e-05
0.000437116189
-0.000107034628
6.83022173e-06
0.000553454864
-0.0001478725
3.15627829e-05
0.000687564491
-0.000195833878
6.17560187e-05
0.000841410499
-0.000251932658
9.81218234e-05
0.0010171524
-0.000317205401
0.000141502956
0.00121733724
-0.000392676578
0.000192536067
0.00144485529
-0.000480027092
0.000252556687
0.00170456167
-0.000582878823
0.000323220324
0.0019952733
-0.000692566372
0.000401903371
0.00230776092
-0.000806567933
0.000494129407
0.00266871423
-0.000978885591
0.000617982454
0.00309570622
-0.00112628476
0.0006993447
0.00348453383
-0.00118782177
0.000799046932
0.00382058097
-0.00147635725
0.00114036276
0.00436708147
-0.00188586365
0.00133941911
0.00511058474
-0.00194463726
0.00120118616
0.0056287611
-0.00194748128
0.00142934835
0.00590461572
-0.00231383325
0.00203801385
0.006264253
-0.00269085667
0.002331242
0.006820803
-0.00283903994
0.00228247721
-0.00287037883
0.00228546893
0.00740567486
-5.90683958e-08
3.83048508e-07
-2.38540014e-07
1.18955495e-06
-5.43351427e-07
2.05482929e-06
-9.77942594e-07
2.97157259e-06
-1.54651732e-06
3.93549708e-06
-2.25335888e-06
4.94457288e-06
-3.10280404e-06
5.99833493e-06
-4.09925276e-06
7.09749078e-06
-5.24713664e-06
8.24344768e-06
-6.55085972e-06
9.43792583e-06
-8.01471694e-06
1.06826818e-05
-9.64279599e-06
1.19793227e-05
-1.14388617e-05
1.33291893e-05
-1.34062224e-05
1.47332902e-05
-1.5547589e-05
1.6192274e-05
-1.78649009e-05
1.77064122e-05
-2.03591472e-05
1.9275608e-05
-2.30301631e-05
2.08993951e-05
-2.58763991e-05
2.25769367e-05
-2.88946729e-05
2.4307022e-05
-3.2079891e-05
2.60880477e-05
-3.54247335e-05
2.79179816e-05
-3.89193152e-05
2.97943236e-05
-4.2550795e-05
3.17140336e-05
-4.63029401e-05
3.3673435e-05
-5.01556377e-05
3.56681049e-05
-5.40843285e-05
3.76927057e-05
-5.80593838e-05
3.97408223e-05
-6.20454644e-05
4.18048048e-05
-6.60010133e-05
4.38757138e-05
-6.98778558e-05
4.59431976e-05
-7.36208381e-05
4.79952228e-05
-7.71661892e-05
5.00167407e-05
-8.04350738e-05
5.19851873e-05
-8.33426474e-05
5.38859103e-05
-8.58060399e-05
5.57087074e-05
-8.7746009e-05
5.74292083e-05
-8.9029993e-05
5.89772925e-05
-8.94795798e-05
6.02911075e-05
-8.88261547e-05
6.12855532e-05
-8.67973768e-05
6.18970281e-05
-8.31180725e-05
6.20406249e-05
-7.75301775e-05
6.16053028e-05
-6.97158013e-05
6.04869191e-05
-5.92917364e-05
5.85471177e-05
-4.58535698e-05
5.56396353e-05
-2.89162805e-05
5.15432394e-05
-8.08550093e-06
4.62027087e-05
1.71426242e-05
3.93418657e-05
4.6930512e-05
3.11208866e-05
8.22228794e-05
2.04644268e-05
0.000123870402
7.38666872e-06
0.000172923953
-8.20902426e-06
0.000230601578
-2.73578884e-05
0.000298368
-5.06570157e-05
0.00037755895
-7.84618519e-05
0.00046989686
-0.00011122665
0.000576588649
-0.000149752459
0.000699135301
-0.00019481473
0.000839323588
-0.00024719735
0.00099923561
-0.000307756594
0.00118096374
-0.000377531316
0.00138652505
-0.000457460614
0.00161803594
-0.000548681801
0.0018775746
-0.000652181517
0.00216663759
-0.000769056512
0.00249008389
-0.000906291484
0.00285453929
-0.00105698701
0.00323956398
-0.00119155659
0.0036309237
-0.00137020707
0.00410326113
-0.00159858174
0.00464038982
-0.00172490742
0.00504773829
-0.00188366142
0.00539764528
-0.0022357251
0.00594191327
-0.00248886509
0.00653814691
-0.00254367864
0.00687102366
-0.00264667767
0.00699857777
-0.00281838321
0.00713736539
-0.00297780914
-0.00310679039
0.00737377038
-4.66051581e-08
4.3011977e-07
-1.88422005e-07
1.3320369e-06
-4.29160381e-07
2.29633578e-06
-7.71998068e-07
3.31527256e-06
-1.21982124e-06
4.38427017e-06
-1.77524096e-06
5.50102691e-06
-2.44092861e-06
6.66514115e-06
-3.21947199e-06
7.87723894e-06
-4.11332797e-06
9.13859819e-06
-5.12474623e-06
1.04507329e-05
-6.25566765e-06
1.18150915e-05
-7.50760224e-06
1.32328508e-05
-8.8814899e-06
1.47047819e-05
-1.03775417e-05
1.62311647e-05
-1.19950598e-05
1.78117396e-05
-1.37322428e-05
1.94456741e-05
-1.55859558e-05
2.11315392e-05
-1.75514886e-05
2.28672927e-05
-1.96222749e-05
2.46502428e-05
-2.17895852e-05
2.64770152e-05
-2.40421834e-05
2.83435012e-05
-2.63659436e-05
3.02447785e-05
-2.87434256e-05
3.2175034e-05
-3.11533752e-05
3.41274134e-05
-3.35701666e-05
3.609387e-05
-3.59632043e-05
3.80650111e-05
-3.82963632e-05
4.00299692e-05
-4.0527336e-05
4.19761481e-05
-4.26057432e-05
4.38878272e-05
-4.44751808e-05
4.57500527e-05
-4.60717098e-05
4.75449368e-05
-4.7325471e-05
4.92544593e-05
-4.81659788e-05
5.08630012e-05
-4.84956463e-05
5.23209657e-05
-4.81870238e-05
5.35837307e-05
-4.70711299e-05
5.45996213e-05
-4.49384617e-05
5.53037716e-05
-4.15777977e-05
5.56242648e-05
-3.67551478e-05
5.54765745e-05
-3.02184545e-05
5.47574858e-05
-2.16956337e-05
5.33833252e-05
-1.08747349e-05
5.12293534e-05
2.57910118e-06
4.81616246e-05
1.90914335e-05
4.39852829e-05
3.90397319e-05
3.86100623e-05
6.25631583e-05
3.21280483e-05
9.0395542e-05
2.37233591e-05
0.000123263531
1.33476395e-05
0.00016195995
6.58731381e-07
0.000207399855
-1.4304894e-05
0.00026065188
-3.27725245e-05
0.000322952264
-5.4897807e-05
0.000395871431
-8.11113877e-05
0.000480519354
-0.000111988043
0.000578075905
-0.000148194744
0.000690017701
-0.000190383612
0.000818088546
-0.000239276062
0.000964039975
-0.000295681029
0.00112962366
-0.000360374104
0.00131666469
-0.000434212291
0.00152707466
-0.000518139452
0.00176257908
-0.000613009063
0.00202488776
-0.000719743741
0.00231476427
-0.000838533334
0.00263324942
-0.000970641959
0.00298006201
-0.00111584388
0.00335227751
-0.00127848094
0.0037584949
-0.00146317654
0.00419706753
-0.0016300994
0.0046218712
-0.00179497786
0.00503800905
-0.00201468388
0.00553134518
-0.00221820741
0.0059905458
-0.00234282588
0.00625807583
-0.00250321874
0.00643805597
-0.0026688077
0.00668822976
-0.00279380047
0.00694935508
-0.00290776234
0.00713541831
-0.00300441846
0.00726158516
-0.00310395461
-0.00320326282
0.00735806701
-3.82699306e-08
4.68779004e-07
-1.54332649e-07
1.44865084e-06
-3.5047614e-07
2.49311261e-06
-6.2824164e-07
3.59374718e-06
-9.88892347e-07
4.74570178e-06
-1.43334386e-06
5.94632967e-06
-1.96207066e-06
7.19479048e-06
-2.57535529e-06
8.49152031e-06
-3.27327113e-06
9.83758925e-06
-4.05546229e-06
1.12340829e-05
-4.92101224e-06
1.26818899e-05
-5.8682997e-06
1.41814827e-05
-6.89482421e-06
1.57327537e-05
-7.99702062e-06
1.73349183e-05
-9.17004713e-06
1.89864408e-05
-1.0407542e-05
2.0684969e-05
-1.17013641e-05
2.24272946e-05
-1.30412924e-05
2.42092959e-05
-1.44147045e-05
2.60258801e-05
-1.58061888e-05
2.78708834e-05
-1.71970711e-05
2.97369355e-05
-1.85648871e-05
3.16153236e-05
-1.9882854e-05
3.34959159e-05
-2.11194449e-05
3.53671141e-05
-2.22380363e-05
3.72157793e-05
-2.31972171e-05
3.90277289e-05
-2.39507263e-05
4.07872316e-05
-2.44473901e-05
4.24767907e-05
-2.46274257e-05
4.40720782e-05
-2.44120515e-05
4.55391378e-05
-2.37070586e-05
4.68446713e-05
-2.2397627e-05
4.79500348e-05
-2.03353913e-05
4.8806062e-05
-1.73652531e-05
4.93564162e-05
-1.33105209e-05
4.95348914e-05
-7.96472752e-06
4.92600735e-05
-1.09049689e-06
4.84361601e-05
7.55048887e-06
4.69902591e-05
1.82270112e-05
4.48074079e-05
3.12308126e-05
4.17614299e-05
4.69424729e-05
3.76798095e-05
6.57257459e-05
3.24546565e-05
8.77313491e-05
2.61650603e-05
0.000113659571
1.80664104e-05
0.000144141305
8.13799707e-06
0.00017994379
-3.66415132e-06
0.00022190908
-1.82309859e-05
0.000271036842
-3.57685828e-05
0.000328370784
-5.6663001e-05
0.000395385266
-8.13064526e-05
0.000472902279
-0.000110275832
0.000562158453
-0.000144139419
0.000664568876
-0.000183506273
0.000781651449
-0.000229054001
0.000914933974
-0.000281459603
0.00106603334
-0.000341464266
0.00123660428
-0.000409827084
0.00142826658
-0.000487322015
0.00164272386
-0.00057480961
0.00188138263
-0.000672850101
0.00214532461
-0.000782061486
0.00243485607
-0.000902521268
0.00275018126
-0.00103505016
0.00308885487
-0.00117718813
0.00344889011
-0.00133065809
0.0038276205
-0.00149455413
0.00421761682
-0.00166845583
0.00461304888
-0.00185858507
0.00502349709
-0.0020405227
0.00541966919
-0.00219112334
0.00573763496
-0.0023326226
0.00599611135
-0.00247665217
0.00623549027
-0.00258216032
0.00642387154
-0.00269155289
0.00655846673
-0.0028033528
0.00667888475
-0.00291417064
0.00679009171
-0.00301893334
0.00690379024
-0.00311808314
0.0070157385
-0.00321587582
-0.00331294808
0.00712544218
-3.53237975e-08
5.04651084e-07
-1.41202984e-07
1.55530635e-06
-3.18164777e-07
2.67096609e-06
-5.65910325e-07
3.84248943e-06
-8.83616122e-07
5.06450189e-06
-1.27015911e-06
6.33406106e-06
-1.72383909e-06
7.64975246e-06
-2.24229728e-06
9.01135563e-06
-2.82267562e-06
1.04194429e-05
-3.46147049e-06
1.18744555e-05
-4.15429068e-06
1.33763953e-05
-4.89567172e-06
1.49246616e-05
-5.67887051e-06
1.6517869e-05
-6.49563102e-06
1.81537199e-05
-7.33592164e-06
1.98289034e-05
-8.18765008e-06
2.15390066e-05
-9.03631925e-06
2.3278417e-05
-9.8646273e-06
2.5040208e-05
-1.06520414e-05
2.6816056e-05
-1.13744813e-05
2.85962499e-05
-1.2004075e-05
3.03696308e-05
-1.25091465e-05
3.21236815e-05
-1.28539387e-05
3.3844178e-05
-1.29960549e-05
3.55128914e-05
-1.28830526e-05
3.71066493e-05
-1.24537436e-05
3.86025053e-05
-1.16357448e-05
3.99735305e-05
-1.03416189e-05
4.1187204e-05
-8.4702895e-06
4.22055538e-05
-5.90972126e-06
4.29836372e-05
-2.5269962e-06
4.34672883e-05
1.83630502e-06
4.35923897e-05
7.36503558e-06
4.32833248e-05
1.42519138e-05
4.24758657e-05
2.27157667e-05
4.10777223e-05
3.29987856e-05
3.89841121e-05
4.53650671e-05
3.60773313e-05
6.01598852e-05
3.22032998e-05
7.77321611e-05
2.72434412e-05
9.82563028e-05
2.12460848e-05
0.000122386104
1.35591476e-05
0.000150698817
4.15142111e-06
0.000183871364
-6.9973755e-06
0.00022266771
-2.0719123e-05
0.000267990682
-3.71735097e-05
0.00032105324
-5.67145573e-05
0.000382594915
-7.97597779e-05
0.000453634789
-0.000106794793
0.000535323225
-0.000138336925
0.000628970707
-0.000174938483
0.000735914332
-0.000217203007
0.000857558489
-0.000265766182
0.000995354344
-0.000321283827
0.00115075741
-0.000384437835
0.00132523015
-0.000455912025
0.00152016954
-0.000536382133
0.00173683675
-0.00062647271
0.00197614888
-0.00072661385
0.00223865042
-0.000837292181
0.00252426635
-0.000958448162
0.00283222442
-0.00109000262
0.00315979793
-0.00123007841
0.00350447165
-0.00137970787
0.00386100964
-0.00153371001
0.00422611286
-0.00169574477
0.00459169183
-0.00186011566
0.00494423632
-0.00202098305
0.00525428785
-0.00216861891
0.00552015403
-0.00230636862
0.00574999958
-0.00242094265
0.0059395402
-0.00252213467
0.00608157994
-0.00261866322
0.00621480887
-0.00271535699
0.00633247054
-0.00280917436
0.00643285328
-0.00290369595
0.00651975829
-0.00300104249
0.006598553
-0.00309769446
0.00667459875
-0.00319409015
0.00675393785
-0.00329518083
-0.00339887827
0.00683988875
-3.66165149e-08
5.41671159e-07
-1.44389968e-07
1.66364941e-06
-3.21874756e-07
2.84910408e-06
-5.66631595e-07
4.08797672e-06
-8.75512512e-07
5.37418622e-06
-1.24470197e-06
6.7041257e-06
-1.66989864e-06
8.07589795e-06
-2.14592523e-06
9.48840802e-06
-2.66625971e-06
1.09408843e-05
-3.22352954e-06
1.24329187e-05
-3.80900229e-06
1.3963154e-05
-4.41235694e-06
1.55294013e-05
-5.02141677e-06
1.71284201e-05
-5.62184876e-06
1.87557565e-05
-6.19682292e-06
2.04056034e-05
-6.72665975e-06
2.20706978e-05
-7.18849018e-06
2.37422392e-05
-7.55609712e-06
2.54099534e-05
-7.79945779e-06
2.70617051e-05
-7.88251847e-06
2.86817552e-05
-7.76309731e-06
3.02528233e-05
-7.39228108e-06
3.175566e-05
-6.71270358e-06
3.31675823e-05
-5.65937306e-06
3.4462733e-05
-4.15876854e-06
3.56094182e-05
-2.12260174e-06
3.65699206e-05
5.53897965e-07
3.73008372e-05
3.99401157e-06
3.77511395e-05
8.3384515e-06
3.7865413e-05
1.37397764e-05
3.75868628e-05
2.03715297e-05
3.68403497e-05
2.84294706e-05
3.55395373e-05
3.81309558e-05
3.35872118e-05
4.9738658e-05
3.08738302e-05
6.35628046e-05
2.72595429e-05
7.99339497e-05
2.26192594e-05
9.90417331e-05
1.69761944e-05
0.00012148091
9.77101809e-06
0.000147775312
9.561745e-07
0.000178520423
-9.49144842e-06
0.000214398887
-2.23112416e-05
0.000256201888
-3.76430518e-05
0.000305021596
-5.58080685e-05
0.000361519979
-7.72079704e-05
0.000426635539
-0.000102278966
0.000501422644
-0.000131490935
0.000587030191
-0.000165355893
0.000684668978
-0.000204421394
0.000795604258
-0.000249259266
0.000921142034
-0.000300462563
0.00106258324
-0.000358629725
0.00122118418
-0.000424351773
0.00139810699
-0.0004981903
0.0015943738
-0.000580687193
0.00181076591
-0.000672286473
0.00204767444
-0.000773273878
0.00230492491
-0.000883707314
0.00258160228
-0.00100327617
0.00287600232
-0.00113167793
0.00318562257
-0.00126805467
0.00350733421
-0.00141170097
0.00383514821
-0.00155787925
0.00416424021
-0.00170878674
0.004489137
-0.00185859365
0.00479276888
-0.00199936366
0.00505772782
-0.0021250617
0.00527583154
-0.00223907256
0.00544696183
-0.0023397287
0.00558633572
-0.00244572006
0.00571394728
-0.0025485321
0.0058345927
-0.00264275514
0.00594138604
-0.00272542812
0.00603811098
-0.00281204436
0.00613118072
-0.00290220705
0.00621552332
-0.0029880053
0.0062936769
-0.00307916387
0.00637604734
-0.00318003333
0.00646174797
-0.00327975652
0.00654572229
-0.00337913042
-0.00347817671
0.00662503844
-3.97899611e-08
5.82042683e-07
-1.54814729e-07
1.77949363e-06
-3.41218136e-07
3.03644572e-06
-5.93985151e-07
4.34179027e-06
-9.07142508e-07
5.68849052e-06
-1.27374589e-06
7.0719722e-06
-1.68579814e-06
8.48928919e-06
-2.13428547e-06
9.93833298e-06
-2.60867418e-06
1.14168125e-05
-3.09635199e-06
1.29222413e-05
-3.58297723e-06
1.44515343e-05
-4.0519251e-06
1.60002197e-05
-4.48397911e-06
1.7562466e-05
-4.85683984e-06
1.91307374e-05
-5.14473111e-06
2.06957497e-05
-5.31790548e-06
2.22462632e-05
-5.34190209e-06
2.37687702e-05
-5.17651937e-06
2.52472632e-05
-4.77551583e-06
2.66635539e-05
-4.08718728e-06
2.79964411e-05
-3.05121515e-06
2.92200392e-05
-1.59631971e-06
3.0304138e-05
3.61436115e-07
3.12134e-05
2.91848439e-06
3.19094653e-05
6.18232876e-06
3.23495693e-05
1.02750269e-05
3.24814446e-05
1.53351758e-05
3.224515e-05
2.15194792e-05
3.157155e-05
2.90084412e-05
3.03814306e-05
3.80155681e-05
2.8584995e-05
4.8781408e-05
2.60800653e-05
6.15866367e-05
2.27401711e-05
7.67414135e-05
1.84386377e-05
9.44426665e-05
1.31791537e-05
0.000115221269
6.48780325e-06
0.000139545671
-1.69799688e-06
0.0001679454
-1.14159086e-05
0.000201029028
-2.33044507e-05
0.000239490214
-3.74963495e-05
0.000284290278
-5.42823133e-05
0.000336028284
-7.40394728e-05
0.000395558215
-9.71625882e-05
0.000463840949
-0.000124079737
0.000541902776
-0.000155257987
0.000630832828
-0.000191196427
0.000731770405
-0.000232415154
0.000845875093
-0.000279446456
0.000974292511
-0.000332823898
0.00111811588
-0.000393066912
0.00127833365
-0.000460663781
0.00145576953
-0.000536048087
0.00165103427
-0.000619597894
0.00186443914
-0.000711576389
0.00209586457
-0.000812094814
0.00234457027
-0.00092097544
0.00260912632
-0.00103781417
0.00288716689
-0.00116173308
0.00317539595
-0.00129149119
0.00346945429
-0.0014257229
0.00376420762
-0.00156279512
0.00405660827
-0.00170408912
0.0043391219
-0.00184038097
0.00459566098
-0.0019653148
0.00481711697
-0.00208003855
0.00499811977
-0.00218035347
0.00514389991
-0.00227082731
0.00526339027
-0.00235854912
0.0053709783
-0.00244730098
0.0054627835
-0.00253750425
0.00554653382
-0.00263226149
0.00562651375
-0.00272271619
0.00570869956
-0.00280759121
0.00578898275
-0.00289230233
0.00587029713
-0.00298348887
0.00595750427
-0.00307518266
0.00604533574
-0.00316696874
0.00614246674
-0.00327713515
0.00624886404
-0.00338611984
0.00635672124
-0.00348695535
-0.00357862272
0.00645718564
-4.20440818e-08
6.24482536e-07
-1.607298e-07
1.89873626e-06
-3.49172696e-07
3.22552609e-06
-5.99075895e-07
4.59240568e-06
-9.00850513e-07
5.99104834e-06
-1.24352535e-06
7.41550014e-06
-1.61458944e-06
8.86127766e-06
-1.99978489e-06
1.0324528e-05
-2.38313119e-06
1.18012391e-05
-2.7459611e-06
1.32862377e-05
-3.06669557e-06
1.47735269e-05
-3.32044582e-06
1.62553247e-05
-3.47846519e-06
1.77219454e-05
-3.50769731e-06
1.91615444e-05
-3.37037923e-06
2.05601275e-05
-3.02300618e-06
2.19007113e-05
-2.4157594e-06
2.31634782e-05
-1.49107759e-06
2.4324683e-05
-1.81760965e-07
2.53564946e-05
1.58839917e-06
2.62286991e-05
3.90651143e-06
2.69045153e-05
6.87136555e-06
2.73420531e-05
1.05949842e-05
2.74927409e-05
1.52064935e-05
2.73011137e-05
2.08558989e-05
2.67035293e-05
2.7713267e-05
2.56276584e-05
3.59705068e-05
2.39917183e-05
4.58470419e-05
2.16990596e-05
5.75956837e-05
1.86370761e-05
7.15034041e-05
1.46818236e-05
8.77688206e-05
9.8194813e-06
0.000106861447
3.6526003e-06
0.00012919841
-3.89305204e-06
0.00015525381
-1.28706317e-05
0.000185569011
-2.38214119e-05
0.000220750761
-3.6873415e-05
0.000261638963
-5.22974137e-05
0.000308777132
-7.04355359e-05
0.000362933513
-9.16452348e-05
0.000424974813
-0.000116315673
0.000495814546
-0.000144870776
0.000576422514
-0.00017776161
0.000667811076
-0.000215458842
0.000771008294
-0.000258445224
0.000887026639
-0.000307204242
0.0010168274
-0.000362204806
0.00116127617
-0.000423883508
0.00132108798
-0.000492623341
0.00149676857
-0.000568734384
0.00168854813
-0.000652429344
0.00189630392
-0.000743789525
0.00211945176
-0.000842731798
0.00235682096
-0.000948932297
0.00260664251
-0.00106190368
0.00286626217
-0.00118058302
0.00313238378
-0.00130392419
0.0034005517
-0.00142988994
0.00366634027
-0.00155726892
0.0039238055
-0.00168317758
0.00416654611
-0.00180552596
0.00438044405
-0.00191797842
0.00456165783
-0.00202158573
0.00470993201
-0.00211357736
0.00483151121
-0.00220160613
0.00493812643
-0.00228695761
0.00503426718
-0.00236695469
0.00512024218
-0.00244450937
0.0051975922
-0.00252463608
0.00526537705
-0.00260527493
0.00532344294
-0.00269031125
0.00538168073
-0.00278093357
0.00544492682
-0.0028708139
0.00551007228
-0.00295742827
0.0055819124
-0.00305530623
0.00566319281
-0.00315643608
0.00575444199
-0.0032581898
0.00585516798
-0.00337783249
0.00596969761
-0.00350061636
0.00609245407
-0.00360968221
-0.00370138557
0.00621523689
-3.99764717e-08
6.65034025e-07
-1.49205376e-07
2.00877263e-06
-3.17034402e-07
3.3942776e-06
-5.31137419e-07
4.80753627e-06
-7.7748367e-07
6.23851986e-06
-1.04014185e-06
7.67937755e-06
-1.3009931e-06
9.12344115e-06
-1.53934163e-06
1.05642835e-05
-1.73149787e-06
1.19949023e-05
-1.85060039e-06
1.3406952e-05
-1.86548295e-06
1.47901292e-05
-1.74042607e-06
1.61320987e-05
-1.43454637e-06
1.74180156e-05
-9.00971148e-07
1.8630046e-05
-8.57589435e-08
1.9747123e-05
1.07271188e-06
2.0744586e-05
2.64501207e-06
2.15936693e-05
4.71149651e-06
2.22608412e-05
7.36330305e-06
2.27074894e-05
1.07057419e-05
2.2889231e-05
1.48589891e-05
2.27544173e-05
1.99600036e-05
2.22443742e-05
2.61641788e-05
2.12920975e-05
3.36477008e-05
1.98213307e-05
4.26124342e-05
1.7742751e-05
5.32899439e-05
1.49543289e-05
6.58765063e-05
1.14095882e-05
8.06693054e-05
6.91096841e-06
9.80426231e-05
1.26869385e-06
0.000118363532
-5.63392003e-06
0.000142051936
-1.38634134e-05
0.000169586484
-2.38760622e-05
0.000201497311
-3.57976311e-05
0.000238516099
-4.98827811e-05
0.000281137301
-6.64355577e-05
0.000330048485
-8.57770949e-05
0.000386017157
-0.000108258098
0.000449850492
-0.000134260351
0.00052240482
-0.000164190485
0.000604572693
-0.00019847391
0.000697260071
-0.00023754795
0.000801361111
-0.000281851854
0.000917727182
-0.000331813513
0.00104712703
-0.000387833046
0.00119019869
-0.000450263236
0.00134739449
-0.000519387287
0.0015189209
-0.000595395861
0.00170467121
-0.000678358739
0.00190417118
-0.000768218929
0.00211647102
-0.000864714048
0.00234003457
-0.000967338674
0.00257268689
-0.00107537042
0.00281159054
-0.00118782293
0.00305353896
-0.00130383968
0.00329425236
-0.00142128453
0.00352975215
-0.0015394126
0.00375511639
-0.00165524339
0.00396232108
-0.00176446355
0.00414415899
-0.00186500644
0.00429624208
-0.00195759958
0.00441692839
-0.00203865381
0.00451529734
-0.00211994195
0.00460424201
-0.00220251116
0.0046865953
-0.00228395015
0.00476347283
-0.00236382406
0.00483327206
-0.00243674203
0.00489910139
-0.00251032708
0.00496290485
-0.00258842667
0.00502465613
-0.00266701425
0.00508038068
-0.00274602237
0.00513459643
-0.00283512718
0.00519066826
-0.00292686246
0.00525048287
-0.00301722223
0.00531105622
-0.00311585502
0.00537962183
-0.00322497547
0.00545851571
-0.00333705543
0.00554232725
-0.0034616153
0.00563741899
-0.0035956787
0.00575035746
-0.00372259115
-0.00382921731
0.00587821653
-3.23281848e-08
6.97728147e-07
-1.14621831e-07
2.09157954e-06
-2.31512156e-07
3.51175438e-06
-3.65461979e-07
4.94214076e-06
-4.96643898e-07
6.37042155e-06
-6.02585337e-07
7.78610375e-06
-6.5772079e-07
9.17942805e-06
-6.32906179e-07
1.05403902e-05
-4.94766833e-07
1.18577595e-05
-2.05136362e-07
1.31183989e-05
2.7944086e-07
1.43067155e-05
1.00854092e-06
1.54042553e-05
2.03876857e-06
1.63891448e-05
3.43466016e-06
1.72356189e-05
5.26968749e-06
1.79136748e-05
7.62791802e-06
1.83880569e-05
1.06050322e-05
1.86183886e-05
1.4309989e-05
1.85578585e-05
1.88666982e-05
1.81529031e-05
2.44159707e-05
1.73422392e-05
3.11168393e-05
1.60559965e-05
3.91510085e-05
1.42128278e-05
4.87206457e-05
1.17252712e-05
6.00090819e-05
8.53591178e-06
7.33208333e-05
4.43420661e-06
8.89487144e-05
-6.70172175e-07
0.00010722531
-6.86340179e-06
0.000128530283
-1.43901302e-05
0.00015328098
-2.34778643e-05
0.000181940916
-3.428945e-05
0.000215142622
-4.70604308e-05
0.000253333177
-6.20616305e-05
0.000297122861
-7.95820143e-05
0.000347182723
-9.99370094e-05
0.000404221824
-0.000123468667
0.000468992525
-0.000150541432
0.000542278994
-0.000181537835
0.000624878357
-0.000216852606
0.000717579677
-0.000256884316
0.00082113797
-0.000302024317
0.000936240975
-0.000352642668
0.00106346893
-0.000409071106
0.00120324729
-0.000471582735
0.00135579288
-0.000540369068
0.00152105576
-0.00061551609
0.00169866039
-0.000696981328
0.001887854
-0.000784578311
0.00208744503
-0.00087793851
0.00229573462
-0.000976497696
0.00251042896
-0.001079398
0.0027286816
-0.00118558135
0.00294706093
-0.00129374017
0.00316185818
-0.00140261094
0.00336989276
-0.00151186527
0.00356697691
-0.00161836009
0.00374546769
-0.00171789546
0.0038997656
-0.00180953423
0.00402856833
-0.00189325928
0.00413418151
-0.00197061081
0.0042217504
-0.00204516021
0.00430037907
-0.00211727518
0.00436752556
-0.00218707929
0.00442487397
-0.0022598511
0.00447612267
-0.00233519181
0.00452464427
-0.00241233776
0.0045762888
-0.00248837818
0.00463069383
-0.00256472229
0.00468658588
-0.00264430513
0.00474531561
-0.00272573054
0.00480785549
-0.00280854754
0.00487146785
-0.00289872209
0.00493700941
-0.00299238594
0.00500909995
-0.00308929267
0.00508318762
-0.00318992018
0.00515593143
-0.003297695
0.00522972675
-0.00341082482
0.00530200727
-0.00353386882
0.00537587028
-0.00366950959
0.00545675696
-0.003803449
-0.0039211893
0.00554875062
-1.83645217e-08
7.1662953e-07
-5.39949325e-08
2.12796174e-06
-8.52595686e-08
3.54387657e-06
-8.7772149e-08
4.94560768e-06
-3.40748265e-08
6.31776885e-06
1.06861032e-07
7.64630013e-06
3.7022646e-07
8.91728224e-06
7.95992285e-07
1.01159328e-05
1.42952257e-06
1.12256296e-05
2.32233398e-06
1.2227084e-05
3.53297381e-06
1.30976732e-05
5.12809812e-06
1.38108348e-05
7.1833639e-06
1.43356936e-05
9.78521585e-06
1.46356979e-05
1.30317652e-05
1.46691813e-05
1.70344971e-05
1.43875129e-05
2.19197729e-05
1.37354389e-05
2.7830425e-05
1.26496782e-05
3.49288071e-05
1.10571453e-05
4.33975929e-05
8.87624212e-06
5.34085444e-05
6.04801037e-06
6.52228247e-05
2.40167695e-06
7.9103276e-05
-2.15188085e-06
9.5343207e-05
-7.70050411e-06
0.000114273314
-1.44921558e-05
0.00013625637
-2.26492527e-05
0.000161760716
-3.23635215e-05
0.000191224495
-4.38494145e-05
0.000225094073
-5.73426619e-05
0.000263909806
-7.31000956e-05
0.000308258182
-9.14033909e-05
0.000358760053
-0.000112557728
0.000416072944
-0.000136888754
0.000480881823
-0.000164739351
0.000553884849
-0.000196464761
0.000635776413
-0.000232425652
0.000727225632
-0.000272979285
0.000828849035
-0.000318467801
0.00094117738
-0.000369204003
0.00106461639
-0.000425454207
0.00119940183
-0.000487418517
0.0013455496
-0.000555208802
0.00150280274
-0.000628825333
0.00167057835
-0.000708133602
0.00184792232
-0.000792848385
0.00203347811
-0.000882525031
0.00222544821
-0.000976536515
0.00242154949
-0.00107402834
0.00261905365
-0.00117399088
0.00281483863
-0.00127517241
0.00300558159
-0.00137631413
0.00318809633
-0.00147624489
0.003358826
-0.00157333111
0.00351165827
-0.00166468922
0.00364251149
-0.00174920569
0.00375051353
-0.00182588904
0.00383967818
-0.00189869075
0.00391747505
-0.00197104696
0.0039886258
-0.00204175231
0.00405278502
-0.00210931186
0.00410933829
-0.00217382025
0.00416081603
-0.00223854847
0.00420903632
-0.00230806423
0.00425482588
-0.002380975
0.00429672908
-0.00245423391
0.00434072635
-0.00253236726
0.00438986415
-0.00261385027
0.00444133522
-0.00269576559
0.0044967579
-0.00278114153
0.0045581306
-0.00286990714
0.00462278729
-0.00296336419
0.00469331589
-0.0030628978
0.0047717423
-0.00316770037
0.0048581468
-0.00327630375
0.00494603813
-0.00338556364
0.00503159056
-0.0034963528
0.0051113775
-0.00361363022
0.00518444123
-0.00374254394
0.00525427971
-0.00387326183
-0.00399377708
0.00532688618
2.57911986e-09
7.1436871e-07
3.57484953e-08
2.09523793e-06
1.28895935e-07
3.45123786e-06
3.14971134e-07
4.76010054e-06
6.30909544e-07
6.00245568e-06
1.11827001e-06
7.15962208e-06
1.82392311e-06
8.21237067e-06
2.80090039e-06
9.13975949e-06
4.10929606e-06
9.91810501e-06
5.8172431e-06
1.05200804e-05
8.00178912e-06
1.09141481e-05
1.07507371e-05
1.10629915e-05
1.41634469e-05
1.09241803e-05
1.83524542e-05
1.04479865e-05
2.3444994e-05
9.57804386e-06
2.95848625e-05
8.24916048e-06
3.69346538e-05
6.38728743e-06
4.56543012e-05
3.93180439e-06
5.59685732e-05
7.44778619e-07
6.81073614e-05
-3.26050251e-06
8.23284763e-05
-8.17089677e-06
9.89215806e-05
-1.41890428e-05
0.00011820997
-2.1437705e-05
0.000140595318
-3.00830941e-05
0.000166422258
-4.03161348e-05
0.000196121379
-5.23451975e-05
0.000230160765
-6.6399503e-05
0.000269044603
-8.27296067e-05
0.000313312271
-0.000101606426
0.000363535939
-0.000123319588
0.000420312167
-0.000148175169
0.000484250925
-0.000176491756
0.000555961984
-0.000208594797
0.000636037481
-0.00024480954
0.000725029851
-0.000285451526
0.000823424974
-0.000330814865
0.000931609962
-0.000381158059
0.00104983617
-0.000436687483
0.00117817756
-0.000497538556
0.00131648611
-0.000563755614
0.00146434568
-0.000635270642
0.00162102747
-0.000711882832
0.00178545072
-0.000793240472
0.00195615581
-0.000878830176
0.00213131257
-0.000967996472
0.00230871311
-0.00105991707
0.0024857894
-0.00115360461
0.00265967459
-0.00124790562
0.00282735579
-0.00134166441
0.00298600227
-0.00143381149
0.00313308749
-0.0015233924
0.00326445204
-0.00160760295
0.00337773101
-0.00168660406
0.00347115596
-0.00175810744
0.00354719548
-0.0018252386
0.00361462917
-0.00189331758
0.00367593494