/*--------------------------------*- C++ -*----------------------------------*\
  =========                 |
  \\      /  F ield         | OpenFOAM: The Open Source CFD Toolbox
   \\    /   O peration     | Website:  https://openfoam.org
    \\  /    A nd           | Version:  8
     \\/     M anipulation  |
\*---------------------------------------------------------------------------*/
FoamFile
{
    version     2.0;
    format      ascii;
    class       volScalarField;
    location    "0.025";
    object      T;
}
// * * * * * * * * * * * * * * * * * * * * * * * * * * * * * * * * * * * * * //

dimensions      [0 0 0 1 0 0 0];

internalField   nonuniform List<scalar> 
42400
(
472.236209
470.691654
469.10636
467.479302
465.809496
464.096017
462.338008
460.534696
458.685412
456.789608
454.84688
452.856995
450.819915
448.735831
446.605191
444.428735
442.207534
439.943022
437.637038
435.291861
432.910249
430.49547
428.051338
425.58224
423.093153
420.589666
418.077981
415.56491
413.057863
410.564818
408.094284
405.655245
403.257101
400.909585
398.622683
396.406543
394.271381
392.227373
390.284545
388.452693
386.741353
385.15969
383.716389
382.419431
381.275998
380.292354
379.473649
378.823869
378.345662
378.040238
377.909869
377.943086
378.141215
378.496927
379.000367
379.637777
380.390709
381.237139
382.138225
383.059861
383.984741
384.946046
385.574078
385.809933
385.636755
384.908944
383.905915
382.540927
380.739244
378.199205
375.157372
371.357962
365.733817
359.890875
354.980427
348.47332
340.016163
333.160348
326.103355
321.506981
472.267268
470.785543
469.264799
467.704103
466.102573
464.45939
462.773812
461.045188
459.272978
457.456774
455.596317
453.691532
451.742545
449.749724
447.7137
445.635413
443.51614
441.357534
439.161665
436.931058
434.668724
432.378202
430.063588
427.729564
425.381417
423.025056
420.667018
418.314461
415.975149
413.657426
411.370168
409.122733
406.924889
404.78674
402.718621
400.73101
398.834448
397.039452
395.356375
393.795254
392.365637
391.076376
389.935402
388.949424
388.123813
387.462396
386.96718
386.637863
386.471993
386.463973
386.604065
386.88429
387.28718
387.793556
388.374108
388.999814
389.649254
390.337261
390.784182
390.933765
390.770226
390.048467
389.10248
387.842636
386.187928
383.991767
381.118505
377.573375
373.376685
368.288162
362.701686
356.899998
349.758166
341.895803
335.258544
328.857435
322.316947
315.632547
310.313193
305.718452
472.308086
470.908931
469.473007
467.999498
466.487646
464.936767
463.34626
461.715627
460.044487
458.332603
456.579896
454.786479
452.952677
451.079063
449.166485
447.216107
445.229435
443.208362
441.155201
439.072723
436.964191
434.833396
432.684685
430.52299
428.353842
426.183388
424.018391
421.866223
419.734843
417.632767
415.569014
413.553055
411.594741
409.704241
407.891917
406.168201
404.543452
403.027766
401.63072
400.361122
399.226701
398.233882
397.387493
396.690427
396.143187
395.743699
395.487744
395.366756
395.367835
395.467063
395.650363
395.891781
396.17042
396.482515
396.631696
396.573582
396.210105
395.438047
394.470627
393.23335
391.656729
389.642455
387.063442
383.871336
380.015761
375.47261
370.23007
364.397506
358.223118
351.554803
344.514115
337.735936
330.97941
324.062143
317.737523
312.452309
308.011111
304.334018
301.31091
300.236084
472.35542
471.052009
469.71443
468.341996
466.93409
465.490176
464.009814
462.492678
460.938571
459.347447
457.719434
456.054858
454.354269
452.618473
450.848561
449.045941
447.212373
445.350004
443.4614
441.549579
439.618046
437.67082
435.712457
433.748074
431.783355
429.824557
427.878507
425.952583
424.054694
422.193228
420.376998
418.615144
416.917038
415.292145
413.749832
412.29916
410.94863
409.705886
408.57743
407.568289
406.681631
405.918329
405.27662
404.752245
404.336585
404.017561
403.781577
403.612371
403.49551
403.345897
403.100425
402.705391
402.097055
401.195245
400.12189
398.816115
397.216284
395.2475
392.797079
389.82211
386.286142
382.165454
377.448457
372.160276
366.334064
360.036572
353.35212
346.428539
339.575221
332.901648
326.382535
320.316538
314.926328
310.258001
306.358204
303.316831
300.924715
300.102725
299.915281
299.873395
472.405568
471.203589
469.970194
468.70483
467.407022
466.076392
464.712667
463.315698
461.885479
460.422165
458.926093
457.397811
455.838097
454.247991
452.628821
450.982234
449.310226
447.615169
445.899839
444.167449
442.421663
440.666621
438.906951
437.147781
435.394728
433.653894
431.931833
430.235508
428.572233
426.949581
425.375266
423.857003
422.402317
421.018325
419.711488
418.487331
417.350111
416.302451
415.344966
414.475892
413.691092
412.9832
412.342134
411.756733
411.188883
410.600839
409.951674
409.193649
408.271432
407.206784
405.983336
404.55413
402.868161
400.858748
398.444993
395.587539
392.252575
388.415584
384.065198
379.203881
373.845615
368.039293
361.845099
355.365817
348.685877
341.93212
335.248523
328.795378
322.747462
317.280479
312.476679
308.428072
305.151061
302.778984
300.984698
300.108329
299.924778
299.889773
299.879921
299.879461
472.454432
471.351289
470.219412
469.05838
467.867858
466.647613
465.397532
464.117629
462.808072
461.469194
460.101517
458.705774
457.282929
455.834203
454.361096
452.86541
451.349275
449.815163
448.265912
446.704737
445.135238
443.561404
441.987601
440.418559
438.859333
437.315262
435.791894
434.294896
432.829933
431.402515
430.017825
428.6805
427.39438
426.162219
424.985388
423.863507
422.794096
421.772454
420.791034
419.839384
418.897374
417.93937
416.935707
415.853409
414.683367
413.404003
411.982848
410.383337
408.562056
406.459453
404.026095
401.225547
398.0256
394.401027
390.336659
385.828115
380.881939
375.516886
369.758948
363.665354
357.310671
350.798523
344.227223
337.727081
331.421834
325.441947
319.896509
314.911411
310.593089
307.039608
304.286034
302.293557
300.948213
300.11985
299.92584
299.88205
299.874368
299.87481
299.871148
299.862585
472.497477
471.481404
470.438968
469.369862
468.273869
467.150879
466.000898
464.824066
463.620668
462.391153
461.136149
459.856481
458.553187
457.227534
455.881037
454.515466
453.132861
451.735536
450.326079
448.907347
447.482449
446.054722
444.627691
443.20501
441.790392
440.387511
438.999884
437.630726
436.282776
434.958097
433.657846
432.382014
431.129125
429.895917
428.677132
427.465065
426.248823
425.013329
423.741601
422.413414
421.010032
419.509834
417.887075
416.110621
414.140454
411.938104
409.46996
406.702999
403.607262
400.157654
396.33561
392.130378
387.54037
382.573973
377.249635
371.597143
365.649072
359.465892
353.121104
346.703583
340.316251
334.082491
328.123481
322.542934
317.45921
312.975704
309.15203
306.035477
303.637076
301.928496
300.815947
300.16297
299.943359
299.889718
299.874147
299.870179
299.866838
299.860472
299.847483
299.83421
472.529933
471.579513
470.604527
469.604748
468.580038
467.530354
466.45576
465.356438
464.232697
463.084988
461.913907
460.720214
459.504833
458.268864
457.013582
455.740437
454.451047
453.147185
451.830757
450.503769
449.168285
447.826365
446.479995
445.130987
443.780875
442.430773
441.081216
439.731983
438.381885
437.028555
435.668228
434.295693
432.903896
431.483273
430.02226
428.50676
426.920517
425.245967
423.46114
421.540997
419.460063
417.191468
414.707566
411.980739
408.984322
405.69466
402.09208
398.162007
393.896158
389.29364
384.361877
379.117136
373.584925
367.799707
361.800367
355.644005
349.406418
343.173715
337.039706
331.105988
325.484494
320.274298
315.582841
311.490119
308.064107
305.327204
303.252915
301.778886
300.816083
300.253589
299.993593
299.919161
299.889876
299.876499
299.864735
299.849314
299.835512
299.826496
299.823024
299.821423
472.547322
471.63208
470.693235
469.730591
468.744018
467.73346
466.698941
465.64057
464.558543
463.453151
462.324779
461.173905
460.001104
458.80703
457.592419
456.358061
455.104786
453.833426
452.544779
451.239553
449.918302
448.58134
447.228637
445.859696
444.473423
443.067986
441.640583
440.187154
438.701995
437.177173
435.604201
433.973088
432.272027
430.487715
428.604563
426.605093
424.470148
422.179158
419.7105
417.042038
414.151752
411.018355
407.622799
403.949036
399.984864
395.722919
391.161625
386.306087
381.168863
375.770738
370.141103
364.317437
358.344477
352.272994
346.177007
340.139791
334.255663
328.622017
323.335198
318.484848
314.156842
310.414257
307.307703
304.851772
303.0167
301.725924
300.881393
300.377517
300.110307
299.98562
299.933985
299.903234
299.877872
299.855477
299.83902
299.828054
299.820905
299.820593
299.820738
299.820966
472.546558
471.629771
470.689325
469.724989
468.736577
467.723951
466.687017
465.625728
464.540079
463.430102
462.295856
461.137413
459.95484
458.748182
457.517446
456.262572
454.983388
453.679558
452.350514
450.995378
449.612856
448.201117
446.757633
445.277507
443.754544
442.183321
440.557743
438.870612
437.113826
435.278773
433.354426
431.327799
429.184546
426.909081
424.484742
421.894069
419.119162
416.142108
412.945436
409.513221
405.83173
401.890038
397.680843
393.201297
388.453835
383.446985
378.196143
372.724351
367.062915
361.252128
355.340628
349.382044
343.442052
337.599894
331.947185
326.578074
321.582769
317.042293
313.032751
309.603791
306.785728
304.563128
302.8926
301.70755
300.92384
300.443114
300.169261
300.024138
299.946348
299.899039
299.870967
299.85329
299.84119
299.833555
299.828984
299.824669
299.819644
299.815135
299.812468
299.810851
472.528086
471.573971
470.595251
469.591664
468.562955
467.508881
466.4292
465.323669
464.192032
463.034022
461.849348
460.637684
459.397607
458.127262
456.825315
455.490338
454.120569
452.713853
451.267568
449.77856
448.243064
446.656646
445.014192
443.311369
441.543343
439.702686
437.780644
435.767416
433.652152
431.423003
429.067152
426.570912
423.919911
421.099337
418.094236
414.889849
411.472364
407.829516
403.951023
399.829255
395.459959
390.843031
385.983317
380.891436
375.584592
370.087353
364.432393
358.661191
352.82428
346.981314
341.196364
335.545485
330.111025
324.98212
320.242343
315.966518
312.214433
309.027763
306.421784
304.37777
302.842817
301.74191
300.991035
300.50598
300.209781
300.037463
299.938951
299.882155
299.853585
299.845506
299.840065
299.834961
299.831102
299.827558
299.823946
299.819311
299.81344
299.808001
299.806163
299.807023
472.490417
471.460138
470.403227
469.319304
468.207947
467.068684
465.900981
464.703831
463.47577
462.215581
460.921818
459.592763
458.227414
456.824753
455.382711
453.898683
452.369658
450.792166
449.162215
447.475255
445.726112
443.908896
442.017025
440.043157
437.979083
435.815736
433.543189
431.150697
428.626772
425.959303
423.135716
420.143181
416.968858
413.600383
410.026441
406.237064
402.224194
397.982299
393.509072
388.806188
383.880127
378.743021
373.413527
367.917634
362.289348
356.571295
350.815024
345.080964
339.437216
333.956836
328.716775
323.799683
319.279419
315.225787
311.685497
308.688338
306.237912
304.308252
302.848505
301.791109
301.059311
300.57422
300.265957
300.077613
299.965914
299.900428
299.867253
299.85392
299.848579
299.844114
299.8391
299.833579
299.828107
299.823792
299.820024
299.815499
299.810339
299.804086
299.799263
299.800615
472.434931
471.292435
470.120257
468.917815
467.684417
466.419248
465.120697
463.787746
462.419487
461.014351
459.570527
458.085932
456.558177
454.984522
453.361826
451.686495
449.954448
448.161068
446.301135
444.368821
442.357645
440.260405
438.069201
435.775423
433.369773
430.842297
428.182464
425.379261
422.421345
419.297218
415.995517
412.505557
408.817533
404.922982
400.815318
396.490437
391.947417
387.189282
382.223836
377.064535
371.73136
366.251638
360.660707
355.002305
349.328574
343.699934
338.183968
332.853695
327.783586
323.046149
318.708292
314.827092
311.44652
308.587436
306.243535
304.383774
302.960174
301.910555
301.166979
300.661209
300.330538
300.122772
299.997379
299.925079
299.885412
299.86609
299.856323
299.848998
299.8414
299.83376
299.826468
299.819047
299.810676
299.802569
299.797149
299.793407
299.78957
299.784056
299.780904
299.7823
472.36601
471.084137
469.768852
468.419376
467.034768
465.613706
464.155098
462.657409
461.118852
459.537356
457.910527
456.235616
454.509485
452.728563
450.888812
448.985674
447.014058
444.9683
442.842111
440.628581
438.320169
435.9087
433.385394
430.740903
427.965387
425.048607
421.980065
418.749167
415.345693
411.759967
407.983219
404.008041
399.828909
395.442794
390.849863
386.054243
381.064854
375.896266
370.569549
365.113035
359.562912
353.963535
348.367309
342.833877
337.428752
332.221968
327.284722
322.68637
318.485787
314.73092
311.454587
308.673317
306.382841
304.555376
303.140085
302.078206
301.309326
300.772571
300.411874
300.178914
300.034416
299.948496
299.899236
299.871737
299.856062
299.845271
299.836162
299.828043
299.820712
299.814285
299.808701
299.803387
299.798594
299.793369
299.787772
299.78515
299.783922
299.783345
299.780236
299.777574
472.286717
470.844501
469.364615
467.846088
466.287732
464.688107
463.045699
461.358587
459.624537
457.840962
456.00489
454.112927
452.161225
450.145445
448.060726
445.901646
443.66221
441.335834
438.915338
436.392956
433.760356
431.008692
428.128666
425.110633
421.944728
418.621143
415.130385
411.463524
407.612568
403.570904
399.333828
394.899148
390.267875
385.444979
380.440192
375.268838
369.952622
364.520317
359.008259
353.460539
347.928775
342.471327
337.151805
332.036501
327.191563
322.680923
318.560391
314.873686
311.649355
308.899441
306.617095
304.775581
303.332763
302.239167
301.437538
300.868944
300.479339
300.222556
300.06011
299.961367
299.903853
299.871239
299.852887
299.841784
299.833417
299.826061
299.819431
299.813659
299.808233
299.803212
299.799393
299.79799
299.79751
299.793589
299.789149
299.785653
299.784686
299.785969
299.787888
299.78415
472.199014
470.579452
468.917521
467.212055
465.461605
463.664559
461.819021
459.922679
457.972842
455.966411
453.899836
451.769091
449.569636
447.296395
444.943734
442.505448
439.974754
437.344307
434.60622
431.752114
428.773188
425.660319
422.40421
418.995676
415.425812
411.686297
407.769758
403.670214
399.383587
394.908306
390.245968
385.402074
380.386801
375.215777
369.910812
364.500511
359.020678
353.514426
348.031844
342.629137
337.367189
332.309425
327.518988
323.05477
318.968663
315.301781
312.08111
309.319018
307.009848
305.129557
303.63967
302.492737
301.636125
301.017262
300.58671
300.298271
300.111995
299.996481
299.927568
299.887579
299.864527
299.85144
299.843581
299.837611
299.832067
299.825887
299.819145
299.812282
299.806231
299.801407
299.798134
299.795949
299.794196
299.79292
299.792517
299.79186
299.789771
299.787697
299.788299
299.800447
472.104144
470.292741
468.43389
466.526244
464.568172
462.557769
460.492728
458.370329
456.187414
453.940357
451.625034
449.236795
446.770441
444.220213
441.579791
438.842296
436.000325
433.045993
429.971005
426.766758
423.424519
419.935629
416.291711
412.484962
408.508518
404.356882
400.026424
395.515961
390.827396
385.966425
380.943264
375.77338
370.478169
365.085508
359.630106
354.153551
348.703953
343.335103
338.105024
333.073899
328.301598
323.844493
319.752563
316.064968
312.809326
309.996286
307.622428
305.667343
304.098396
302.873398
301.944127
301.260229
300.772723
300.435954
300.21106
300.066364
299.976294
299.92178
299.889384
299.869648
299.856719
299.847278
299.839335
299.831768
299.824629
299.818031
299.811255
299.805052
299.798333
299.793135
299.789
299.786748
299.786011
299.786548
299.789389
299.798207
299.796994
299.79019
299.786656
299.789707
472.003113
469.987407
467.918866
465.795963
463.616821
461.379177
459.080346
456.717187
454.286073
451.782861
449.202872
446.540876
443.791086
440.947165
438.002254
434.949016
431.779704
428.486261
425.060502
421.49428
417.779701
413.909416
409.876967
405.677198
401.306739
396.764558
392.052574
387.176323
382.14565
376.9754
371.686046
366.304214
360.863007
355.402043
349.967119
344.609399
339.384097
334.348622
329.56013
325.072677
320.934358
317.184057
313.848997
310.942917
308.466284
306.402673
304.722049
303.386845
302.354339
301.578267
301.011339
300.609051
300.332454
300.148192
300.028717
299.953301
299.906637
299.878127
299.86024
299.848006
299.838235
299.829916
299.822307
299.815787
299.809713
299.804912
299.802443
299.80048
299.797517
299.794244
299.789844
299.786672
299.786165
299.786829
299.788825
299.79716
299.800372
299.79554
299.78848
299.785687
471.896891
469.666377
467.377329
465.028
462.616244
460.139475
457.594641
454.978187
452.286032
449.513557
446.65559
443.706415
440.65979
437.508992
434.246875
430.865967
427.358641
423.717255
419.934375
416.003043
411.917108
407.67162
403.263281
398.690973
393.956337
389.0644
384.024234
378.8496
373.559558
368.178961
362.738782
357.276186
351.834267
346.461355
341.209831
336.134414
331.290006
326.729198
322.499421
318.640255
315.180589
312.135905
309.512124
307.299987
305.475588
304.005473
302.848547
301.960587
301.296799
300.814341
300.474412
300.24215
300.088211
299.989372
299.927615
299.889662
299.866247
299.851192
299.840714
299.832549
299.825254
299.817895
299.811763
299.807429
299.804725
299.802382
299.800414
299.798482
299.79648
299.796036
299.797414
299.795365
299.791687
299.790963
299.79247
299.798086
299.807703
299.80973
299.803905
299.797846
471.78648
469.332677
466.814405
464.229685
461.576096
458.850737
456.050201
453.17055
450.207305
447.155445
444.009418
440.763181
437.410247
433.943776
430.356714
426.641936
422.79245
418.801641
414.663588
410.37342
405.927751
401.325167
396.566771
391.656773
386.603113
381.418074
376.118872
370.72814
365.274273
359.791556
354.319984
348.904739
343.595224
338.443645
333.503075
328.825116
324.457378
320.440936
316.807928
313.580065
310.766999
308.363495
306.353374
304.711894
303.404021
302.387963
301.617794
301.048736
300.639929
300.354864
300.162282
300.036534
299.9571
299.908021
299.878217
299.859616
299.847153
299.837935
299.830615
299.824343
299.81902
299.814508
299.809581
299.804874
299.800689
299.796984
299.794098
299.792581
299.792472
299.793773
299.799103
299.808393
299.811893
299.812364
299.812629
299.818638
299.821252
299.827072
299.826717
299.819592
472.593586
471.771792
470.928494
470.063235
469.175548
468.264959
467.330988
466.373141
465.390914
464.383792
463.351243
462.29272
461.207659
460.095476
458.955568
457.78731
456.590053
455.363124
454.105821
452.817413
451.497136
450.144192
448.757738
447.336891
445.880711
444.388203
442.858272
441.289731
439.681284
438.031501
436.338796
434.601394
432.817295
430.984235
429.099634
427.160546
425.163605
423.104973
420.980295
418.784641
416.512496
414.157156
411.711091
409.16585
406.512061
403.740042
400.840317
397.788403
394.555151
391.117942
387.493125
383.669367
379.644157
375.423544
371.025954
366.48579
361.85656
357.212821
352.650132
348.28103
344.226383
340.602138
337.502709
334.984142
333.051718
331.656886
330.706495
330.082908
329.668447
329.36546
329.106332
328.853558
328.593476
328.32611
328.05374
327.774803
327.491776
327.2275
327.028081
326.936272
472.595851
471.778592
470.939862
470.079143
469.195914
468.28964
467.359778
466.405772
465.427053
464.423037
463.393127
462.336708
461.253148
460.141799
459.001996
457.833057
456.634282
455.404954
454.144338
452.851682
451.526212
450.167137
448.77364
447.344881
445.879985
444.378041
442.838123
441.259255
439.640411
437.980493
436.278317
434.532595
432.7419
430.904636
429.018992
427.082886
425.093904
423.049217
420.945485
418.77873
416.544216
414.236637
411.850116
409.378003
406.812961
404.147191
401.371325
398.474257
395.445326
392.275965
388.918361
385.348953
381.591423
377.639085
373.496943
369.18361
364.734185
360.204607
355.673596
351.241444
347.02495
343.147641
339.724591
336.844217
334.550872
332.83377
331.627923
330.828906
330.316463
329.977926
329.724427
329.497485
329.26626
329.01723
328.742784
328.437988
328.109628
327.779892
327.4688
327.166501
472.595197
471.776575
470.936365
470.073995
469.188886
468.280445
467.348069
466.391138
465.40902
464.401066
463.366611
462.304971
461.215449
460.097331
458.949887
457.772374
456.564038
455.324113
454.051822
452.746386
451.407015
450.03292
448.623308
447.177388
445.694369
444.17346
442.613874
441.014823
439.375513
437.695143
435.972894
434.207918
432.39932
430.54614
428.647325
426.701686
424.707853
422.664209
420.568815
418.419337
416.212942
413.946186
411.61486
409.213825
406.73682
404.176267
401.522955
398.769251
395.907293
392.929836
389.824937
386.585703
383.162361
379.534214
375.713835
371.719199
367.563191
363.278971
358.919494
354.560775
350.302708
346.262412
342.561897
339.312059
336.59594
334.452596
332.867505
331.774434
331.069524
330.633713
330.356046
330.150368
329.961132
329.758397
329.528216
329.266271
328.977729
328.670152
328.343817
327.988662
472.591481
471.765308
470.917278
470.046767
469.153142
468.235758
467.293956
466.327061
465.334384
464.315217
463.268835
462.194499
461.091451
459.958922
458.796128
457.602276
456.376565
455.118189
453.826342
452.500221
451.139026
449.741972
448.308288
446.837222
445.328048
443.780067
442.192614
440.565062
438.89682
437.187338
435.436108
433.642658
431.806546
429.927355
428.004676
426.038085
424.027109
421.971176
419.86957
417.721378
415.525403
413.280058
410.983237
408.632171
406.223249
403.751832
401.212054
398.596631
395.896566
393.100767
390.200544
387.189375
384.058578
380.800472
377.382157
373.771138
369.970028
366.023716
361.955049
357.812313
353.666541
349.610423
345.755261
342.219538
339.112794
336.519395
334.481217
332.988673
331.979849
331.352754
330.987672
330.771916
330.618628
330.473028
330.306931
330.108525
329.873385
329.596226
329.269139
328.901491
472.584498
471.744176
470.88157
469.996012
469.086825
468.15332
467.194793
466.210525
465.199781
464.161809
463.095841
462.001092
460.876764
459.722046
458.536119
457.318155
456.067324
454.782797
453.463752
452.109374
450.718868
449.291458
447.826397
446.322975
444.780521
443.198416
441.576095
439.913061
438.208884
436.463214
434.675785
432.846418
430.975027
429.06162
427.106293
425.109225
423.070656
420.990868
418.870159
416.708799
414.506972
412.264699
409.981731
407.657431
405.290611
402.879346
400.420755
397.910762
395.343852
392.712853
390.008822
387.220924
384.334388
381.343031
378.242189
375.022976
371.669815
368.141189
364.431388
360.611072
356.71572
352.806771
348.969014
345.306561
341.933451
338.961284
336.481075
334.543566
333.14448
332.222769
331.674847
331.377621
331.217667
331.110544
331.00433
330.871674
330.698251
330.475618
330.207149
329.920827
472.573979
471.712366
470.827878
469.919812
468.98746
468.030101
467.047003
466.037417
465.000581
463.935716
462.842027
461.718709
460.564941
459.379894
458.162735
456.912624
455.628724
454.310204
452.956244
451.566039
450.13881
448.673806
447.170312
445.627661
444.045238
442.422492
440.758942
439.054193
437.307939
435.519983
433.690239
431.818747
429.905682
427.951367
425.956272
423.921025
421.846407
419.73335
417.582927
415.396332
413.174845
410.919781
408.632424
406.31393
403.965201
401.586722
399.178365
396.739139
394.266919
391.758139
389.207496
386.607671
383.949168
381.220418
378.407922
375.49812
372.487072
369.36939
366.145412
362.770054
359.249385
355.657174
352.041688
348.47612
345.052993
341.878057
339.058324
336.685114
334.816121
333.460214
332.569057
332.045315
331.774447
331.647492
331.5803
331.519667
331.433712
331.30723
331.142328
330.957462
472.559641
471.669028
470.754768
469.816139
468.852415
467.862858
466.846721
465.803244
464.731655
463.631168
462.500984
461.340295
460.148283
458.924123
457.666989
456.376055
455.0505
453.689514
452.292302
450.858091
449.386135
447.875724
446.326193
444.736925
443.107368
441.437038
439.725537
437.972558
436.177901
434.341488
432.463379
430.543781
428.583062
426.581771
424.540651
422.460654
420.342953
418.188952
416.000292
413.778849
411.526726
409.24623
406.939833
404.610111
402.259654
399.89094
397.506172
395.107058
392.694548
390.268524
387.827446
385.367982
382.884678
380.369724
377.812887
375.201773
372.522454
369.755889
366.899269
363.953397
360.918536
357.766378
354.516322
351.238106
347.990005
344.84935
341.909482
339.268421
337.012759
335.201802
333.855043
332.947234
332.409509
332.138952
332.027806
332.012632
332.018819
332.000197
331.927491
331.815429
472.541194
471.613281
470.660753
469.682879
468.678923
467.648144
466.589793
465.503115
464.38734
463.241692
462.065387
460.857633
459.617631
458.344585
457.037696
455.696174
454.319236
452.906116
451.456068
449.968372
448.442341
446.877329
445.272738
443.628026
441.942719
440.21642
438.448822
436.639722
434.789028
432.896781
430.963167
428.988539
426.973426
424.918564
422.82491
420.693665
418.526298
416.324563
414.09052
411.82655
409.535365
407.220008
404.88384
402.530513
400.163912
397.788065
395.407013
393.024629
390.644387
388.269075
385.900441
383.538785
381.182537
378.827863
376.468344
374.094827
371.695525
369.25659
366.763418
364.20169
361.560354
358.841709
356.052
353.184131
350.271932
347.365038
344.535632
341.861272
339.427333
337.314275
335.583461
334.265179
333.352607
332.801577
332.535489
332.490379
332.518231
332.552906
332.574102
332.572714
472.518372
471.544323
470.544474
469.518087
468.464425
467.382751
466.272321
465.132389
463.962203
462.761006
461.528037
460.262535
458.963737
457.630887
456.263235
454.86004
453.420581
451.944157
450.430093
448.877747
447.286518
445.655853
443.98525
442.274274
440.522562
438.729835
436.895908
435.020707
433.104279
431.146809
429.148636
427.110275
425.032437
422.916049
420.762283
418.572576
416.348663
414.092602
411.806802
409.494051
407.157537
404.800868
402.428078
400.043618
397.652327
395.259373
392.870166
390.490204
388.124846
385.779137
383.457458
381.163072
378.897698
376.661041
374.450383
372.260219
370.082053
367.904485
365.713815
363.494993
361.233196
358.915844
356.531419
354.084882
351.588072
349.058893
346.529631
344.051047
341.685167
339.501898
337.571856
335.955577
334.692368
333.794006
333.241619
332.987725
332.98069
333.116959
333.275898
333.391124
472.491026
471.461695
470.405145
469.320632
468.207416
467.064761
465.891932
464.688194
463.452812
462.185052
460.884184
459.549481
458.180226
456.775711
455.335244
453.858154
452.343794
450.791547
449.200832
447.571111
445.901897
444.192759
442.44333
440.653318
438.822515
436.950804
435.038177
433.084743
431.090745
429.056574
426.982789
424.870136
422.719568
420.532273
418.309693
416.053558
413.765914
411.449153
409.106045
406.739772
404.353955
401.952679
399.540513
397.122525
394.70426
392.291687
389.891149
387.509299
385.152808
382.828297
380.541991
378.29927
376.104259
373.959277
371.864434
369.817101
367.811617
365.839201
363.888138
361.944511
359.993258
358.019486
356.010475
353.958342
351.861341
349.726369
347.570047
345.419416
343.31124
341.290968
339.410424
337.723194
336.280156
335.124854
334.285822
333.771843
333.57131
333.652896
333.98335
334.383241
472.459254
471.365689
470.24325
469.091178
467.908725
466.69515
465.449718
464.171701
462.860377
461.51503
460.134958
458.71947
457.267893
455.779572
454.253881
452.690224
451.088042
449.446819
447.766088
446.045441
444.284534
442.483095
440.640935
438.757955
436.834158
434.869657
432.864692
430.819638
428.735023
426.611543
424.450078
422.251714
420.017761
417.749778
415.449598
413.119353
410.761504
408.378871
405.974661
403.552502
401.116474
398.671136
396.221542
393.773296
391.332522
388.905794
386.500069
384.122665
381.781015
379.482539
377.234391
375.043096
372.914149
370.851472
368.857002
366.93011
365.067312
363.262041
361.504569
359.782396
358.081091
356.385488
354.681129
352.956284
351.203581
349.4225
347.619624
345.815737
344.029971
342.285281
340.623567
339.081128
337.695288
336.503331
335.542229
334.850451
334.46761
334.442257
334.807404
335.532483
472.423531
471.257745
470.061209
468.833141
467.572771
466.279341
464.952106
463.590331
462.193297
460.760301
459.290657
457.783706
456.238813
454.65538
453.032846
451.370697
449.668473
447.925774
446.142272
444.317713
442.451934
440.544867
438.596552
436.607147
434.576936
432.506346
430.395956
428.246512
426.05894
423.834362
421.574112
419.279756
416.953104
414.596238
412.21153
409.801663
407.369659
404.918912
402.453203
399.976717
397.494065
395.010306
392.530945
390.061988
387.609916
385.181672
382.784585
380.426298
378.114639
375.857394
373.662115
371.535808
369.484537
367.512958
365.623784
363.817256
362.090735
360.438477
358.851685
357.318812
355.826239
354.359334
352.90383
351.447451
349.981592
348.502829
347.013186
345.513637
344.021977
342.558247
341.162235
339.858405
338.672396
337.629345
336.757245
336.093868
335.692728
335.635796
335.986209
336.938776
472.384841
471.140824
469.864012
468.553583
467.208729
465.828663
464.412613
462.959826
461.469571
459.941145
458.373872
456.767113
455.120271
453.432798
451.704204
449.934064
448.122029
446.267834
444.371312
442.432402
440.45116
438.427774
436.362573
434.256042
432.108832
429.921774
427.695893
425.43242
423.132807
420.79874
418.432156
416.035254
413.610508
411.160682
408.688841
406.198366
403.692968
401.17671
398.654022
396.129719
393.609013
391.097518
388.601255
386.12666
383.680569
381.270209
378.903159
376.58725
374.330454
372.140642
370.02533
367.99137
366.044578
364.189316
362.428009
360.760754
359.184924
357.694956
356.282381
354.936141
353.643279
352.389959
351.162756
349.95006
348.743401
347.539493
346.341991
345.154504
343.982329
342.823821
341.754657
340.786541
339.936555
339.220181
338.655756
338.272428
338.113353
338.235154
338.83337
340.013545
472.344752
471.019675
469.659666
468.26385
466.831372
465.361397
463.853114
462.30574
460.718521
459.090741
457.421727
455.710856
453.957564
452.161357
450.321819
448.438627
446.511558
444.540508
442.525502
440.466707
438.364452
436.219233
434.031738
431.802853
429.53368
427.225549
424.880034
422.498961
420.084423
417.638789
415.164712
412.665146
410.14335
407.602897
405.047682
402.481926
399.910179
397.337328
394.768596
392.209556
389.666131
387.144597
384.651578
382.19401
379.779114
377.414346
375.107339
372.86582
370.697466
368.609767