/*--------------------------------*- C++ -*----------------------------------*\
  =========                 |
  \\      /  F ield         | OpenFOAM: The Open Source CFD Toolbox
   \\    /   O peration     | Website:  https://openfoam.org
    \\  /    A nd           | Version:  8
     \\/     M anipulation  |
\*---------------------------------------------------------------------------*/
FoamFile
{
    version     2.0;
    format      ascii;
    class       volVectorField;
    location    "0.025";
    object      U;
}
// * * * * * * * * * * * * * * * * * * * * * * * * * * * * * * * * * * * * * //

dimensions      [0 1 -1 0 0 0 0];

internalField   nonuniform List<vector> 
42400
(
(-0.0176971861 0.0169208316 -1.08865952e-26)
(-0.0541804136 0.0506683582 3.53675501e-26)
(-0.0919517514 0.0842680791 3.72149713e-26)
(-0.130502363 0.117169942 0)
(-0.169474505 0.149048974 0)
(-0.208660322 0.179698255 5.37447098e-28)
(-0.247956186 0.209002924 0)
(-0.28732434 0.236913295 -6.05074027e-28)
(-0.326763478 0.263417112 0)
(-0.366287734 0.288518913 -6.79376452e-28)
(-0.405913084 0.312227342 -7.19185865e-28)
(-0.445649606 0.334548452 7.60851873e-28)
(-0.485497872 0.355483029 -2.73483161e-26)
(-0.525448057 0.375026551 -2.58304842e-26)
(-0.565480627 0.393170702 8.97650414e-28)
(-0.605567804 0.40990566 0)
(-0.645675265 0.425222604 0)
(-0.685763721 0.439116122 0)
(-0.725790207 0.451586314 0)
(-0.765709018 0.462640539 0)
(-0.805472237 0.472294763 0)
(-0.84502989 0.480574536 2.58891803e-27)
(-0.884329698 0.487515621 -1.19343202e-26)
(-0.923316469 0.493164302 -2.62509935e-26)
(-0.961931097 0.497577383 -1.48940604e-26)
(-1.0001092 0.50082191 3.15336262e-27)
(-1.03777933 0.502974629 3.30817967e-27)
(-1.0748608 0.504121163 -6.93731031e-27)
(-1.11126098 0.504354889 0)
(-1.14687208 0.503775448 0)
(-1.18156708 0.50248688 2.96579384e-26)
(-1.21519476 0.500595465 3.47793325e-26)
(-1.24757463 0.498206784 -8.71039458e-27)
(-1.2784932 0.495419915 -4.83610827e-26)
(-1.30770028 0.492319099 -4.71827269e-26)
(-1.33489704 0.488973806 0)
(-1.35980206 0.485534649 0)
(-1.38219917 0.482230977 0)
(-1.40193277 0.479313582 0)
(-1.4181358 0.477917256 1.56704688e-26)
(-1.43047393 0.47610522 6.97626459e-26)
(-1.43748583 0.475023278 -1.06152798e-26)
(-1.43969765 0.472656292 -4.41145619e-25)
(-1.43390298 0.473593732 2.57896512e-26)
(-1.4203583 0.47561234 3.39526511e-25)
(-1.39556848 0.47884402 3.08914105e-25)
(-1.35780106 0.481905244 -2.77216405e-26)
(-1.30547322 0.48494331 -1.23261116e-25)
(-1.23617824 0.488758904 -3.36214794e-26)
(-1.14781552 0.493437737 -1.69893498e-25)
(-1.03766141 0.49906218 -2.12224108e-33)
(-0.903383598 0.505494338 3.82095158e-25)
(-0.743635406 0.512039289 2.55838679e-25)
(-0.553077542 0.519897037 -9.41998341e-26)
(-0.337462669 0.529712933 0)
(-0.0838348091 0.54518313 0)
(0.199501904 0.564408415 0)
(0.540353245 0.582895279 1.21029266e-25)
(0.941237932 0.599042253 1.21457288e-25)
(1.40526252 0.615159443 0)
(1.93419434 0.634104184 1.33203147e-24)
(2.53721839 0.656452031 1.2895895e-24)
(3.21951776 0.680775326 -1.70052729e-24)
(3.98533056 0.706601175 -2.28662256e-24)
(4.83904289 0.734230068 0)
(5.78660062 0.761143411 0)
(6.84375968 0.791840224 -4.28851808e-24)
(7.96209577 0.866447672 -3.2480823e-24)
(9.16052051 0.912316703 5.31072517e-25)
(10.6650232 0.780278396 0)
(11.7843884 1.14443119 0)
(12.750316 1.7147057 6.05587605e-25)
(15.2940626 0.408540358 1.26878056e-25)
(17.3066877 -0.58927106 0)
(17.318872 1.66896082 8.17906105e-25)
(18.1613511 3.08237937 4.14633573e-24)
(20.8237815 0.891026327 8.25693413e-24)
(22.3387785 -0.706552537 -1.85830501e-24)
(22.7390423 0.0396964574 -3.19370077e-23)
(22.7915544 1.47054014 -8.79322819e-23)
(-0.0225253097 0.0199437772 0)
(-0.0682651837 0.0595456238 2.91641666e-26)
(-0.114973603 0.0989127322 3.09757575e-26)
(-0.162083246 0.137493449 0)
(-0.209223393 0.174970906 0)
(-0.256176013 0.21114759 2.96246044e-26)
(-0.302834295 0.245917691 2.88492559e-26)
(-0.349160275 0.279238591 -4.12289772e-28)
(-0.395152439 0.31110268 0)
(-0.440822806 0.341516732 -4.69376579e-28)
(-0.486182281 0.370489364 -5.00361648e-28)
(-0.531232404 0.398024506 -2.45333399e-26)
(-0.575961559 0.424118891 -4.72233921e-26)
(-0.62034406 0.448762164 -2.20511139e-26)
(-0.664340941 0.471938541 2.1373663e-26)
(-0.707901564 0.493629256 1.80123146e-26)
(-0.750965478 0.513815256 0)
(-0.79346415 0.532479834 -1.55581185e-27)
(-0.835322365 0.549610987 0)
(-0.876459186 0.565203431 0)
(-0.916788451 0.579260232 0)
(-0.956218762 0.591794046 -1.11256048e-26)
(-0.99465299 0.602827983 -2.34630139e-26)
(-1.0319873 0.612396131 -1.28248451e-26)
(-1.06810968 0.620543766 0)
(-1.10289806 0.627327332 5.02846256e-27)
(-1.13621792 0.632814258 2.66763328e-27)
(-1.16791945 0.63708266 -5.67227987e-27)
(-1.19783446 0.640220893 -2.044473e-26)
(-1.22577397 0.642326887 -2.39364262e-26)
(-1.25152418 0.643505577 6.85933455e-27)
(-1.2748405 0.643864867 7.29665787e-27)
(-1.29544362 0.643509208 -5.65966292e-26)
(-1.31307104 0.642565291 -4.86219593e-26)
(-1.32750656 0.641209548 4.47273706e-26)
(-1.33813683 0.640131378 7.72037367e-27)
(-1.34482948 0.638262998 0)
(-1.34651874 0.636269412 -1.06153992e-26)
(-1.342528 0.634470247 0)
(-1.33367408 0.631848527 -2.33184355e-26)
(-1.3162538 0.631264874 -2.98818304e-25)
(-1.28987288 0.630548913 -2.47559174e-25)
(-1.25099776 0.630405871 -2.60818039e-26)
(-1.20013159 0.629180392 2.95242176e-26)
(-1.13469862 0.628453146 -6.67972711e-26)
(-1.05307012 0.628412855 3.64663154e-26)
(-0.95303659 0.629107171 -3.98541758e-26)
(-0.832353318 0.630504434 -1.12849277e-25)
(-0.688734062 0.632426442 -2.60204134e-25)
(-0.520906799 0.634160953 0)
(-0.323776566 0.63654733 5.4541556e-26)
(-0.0976832669 0.643334402 -1.13645289e-25)
(0.15075358 0.656039792 -3.17284757e-26)
(0.446186345 0.669647669 -5.34040222e-25)
(0.796604746 0.680949833 -1.42835927e-25)
(1.20306296 0.691857952 1.9014802e-25)
(1.66766232 0.705706813 4.27311209e-25)
(2.19838915 0.723407479 1.76696317e-25)
(2.79911213 0.744322007 1.98507593e-25)
(3.4736439 0.768481998 8.2700496e-25)
(4.22646432 0.796062927 1.2860165e-24)
(5.06250934 0.827176813 -2.4922393e-25)
(5.98642169 0.862026608 2.66557095e-25)
(7.00180275 0.90080929 0)
(8.10869536 0.944291479 -3.01834785e-24)
(9.30689317 0.984398417 -9.09561705e-24)
(10.6299243 0.99891551 -4.798543e-24)
(11.9739018 1.08150033 0)
(13.2328435 1.29578665 2.16955156e-26)
(14.8643562 1.13920601 6.93143433e-25)
(16.4099692 0.981293184 3.16084763e-24)
(17.1181772 1.93680659 1.61475138e-24)
(18.5367886 2.17901744 -7.51077039e-24)
(20.885562 0.443008052 -9.16906962e-24)
(22.1145279 0.1215347 4.47161775e-26)
(22.2436721 1.67676791 1.79092102e-23)
(22.6702386 2.29259523 2.48919451e-23)
(23.1311929 1.50643957 -2.98047791e-24)
(23.2093634 0.978065513 -1.52936385e-23)
(23.1749591 0.938076291 -1.91099108e-23)
(-0.0267136215 0.021868308 3.54483414e-27)
(-0.0805102766 0.0652206392 -9.37389645e-29)
(-0.135011564 0.108313944 9.71048836e-29)
(-0.189600588 0.150604463 -1.0826665e-28)
(-0.243860764 0.1917686 0)
(-0.297572997 0.231622619 -2.30219905e-26)
(-0.350620725 0.270070501 -2.45536445e-34)
(-0.402960835 0.307075841 2.18599517e-26)
(-0.454586429 0.342634764 2.10094834e-26)
(-0.505501693 0.376755503 3.99865245e-26)
(-0.555706215 0.409446011 1.84652399e-26)
(-0.605186242 0.440707593 -3.73118918e-28)
(-0.653910683 0.470532568 -4.01043789e-28)
(-0.701830162 0.498904494 1.44290117e-26)
(-0.748877866 0.525799922 1.27240719e-26)
(-0.794971258 0.551190932 -1.49967187e-27)
(-0.84001403 0.575047925 -7.99353258e-27)
(-0.883897916 0.597342364 -1.43570635e-26)
(-0.926504134 0.618049282 -5.28786239e-27)
(-0.96770432 0.637149447 -1.34496199e-27)
(-1.00736093 0.654631172 1.44980752e-27)
(-1.04532707 0.670491757 1.56430796e-27)
(-1.08144581 0.684738599 0)
(-1.11554881 0.697389982 -3.65505548e-27)
(-1.14745429 0.708475574 -3.83654036e-27)
(-1.17696424 0.71803638 2.80990591e-30)
(-1.20386077 0.726123691 5.01224649e-27)
(-1.22790105 0.732798102 5.22033747e-27)
(-1.2488153 0.738135456 4.76650112e-27)
(-1.26631351 0.742225029 -8.52324927e-27)
(-1.28010298 0.745154054 6.58092664e-27)
(-1.28989911 0.74700903 2.79424542e-26)
(-1.29520678 0.748165658 1.61596465e-26)
(-1.2957205 0.748216177 0)
(-1.29077564 0.747754022 0)
(-1.28026846 0.746824101 9.41912242e-27)
(-1.26360282 0.746197971 0)
(-1.23815075 0.745557775 -2.1315172e-26)
(-1.20281049 0.744099783 -1.16741277e-25)
(-1.15474252 0.742382364 -4.97670538e-26)
(-1.09446929 0.73971273 -1.05943199e-26)
(-1.01986242 0.737201543 0)
(-0.929367373 0.734997064 0)
(-0.820791292 0.733025384 -5.29319133e-26)
(-0.691787945 0.731162694 -1.43342675e-25)
(-0.541074707 0.728810816 -4.78069152e-26)
(-0.364487055 0.726572706 0)
(-0.164322529 0.725841755 0)
(0.0685501992 0.730337775 1.61473966e-25)
(0.321167281 0.738987493 -1.48252523e-25)
(0.628638989 0.746986116 6.86663826e-26)
(0.984140929 0.753747733 0)
(1.3927372 0.76272135 -3.18110958e-25)
(1.85960936 0.775401326 -1.42466726e-25)
(2.389618 0.79183156 -4.16351742e-25)
(2.98625261 0.812050515 -7.31579038e-25)
(3.65383835 0.836460184 -7.73597428e-25)
(4.39733876 0.865461125 2.88789372e-32)
(5.22119186 0.900038897 -3.87568908e-32)
(6.12859175 0.94093017 -3.27232548e-24)
(7.12132333 0.988258336 -2.06857899e-24)
(8.1987218 1.04210764 2.5153398e-24)
(9.35786521 1.10160429 3.35966833e-24)
(10.5931412 1.16507099 0)
(11.8925978 1.2286777 4.94248083e-24)
(13.2403327 1.29721025 1.03730915e-23)
(14.6734443 1.3184116 6.6022857e-24)
(16.1557676 1.30978506 0)
(17.3583443 1.55846005 -2.68232807e-26)
(18.5783566 1.79694532 7.43710044e-24)
(20.1249503 1.4544148 5.89304846e-24)
(21.2439525 1.4337576 0)
(22.0035151 2.11306841 0)
(22.7706698 2.0359358 1.28708442e-24)
(23.2221038 1.44263067 -1.23160575e-24)
(23.2917903 1.42316098 5.29772758e-24)
(23.3190653 1.59175298 1.11739463e-23)
(23.2575865 1.86402757 0)
(23.1651772 1.79510807 -1.94468872e-24)
(23.1553548 1.67803439 1.21642286e-23)
(-0.0303451339 0.0229267689 -3.48870156e-29)
(-0.0911462322 0.0683170195 -5.36128153e-29)
(-0.152433633 0.113414747 9.88747015e-27)
(-0.21352914 0.157684786 -9.67160099e-27)
(-0.27400011 0.200815737 -9.27780649e-27)
(-0.333574318 0.242619935 0)
(-0.392146117 0.283016296 -1.67070124e-26)
(-0.449658736 0.321978739 -1.53965622e-26)
(-0.506094026 0.35950824 -1.42408128e-26)
(-0.561442702 0.395615496 -1.26699863e-26)
(-0.615686704 0.430309212 -1.13042899e-26)
(-0.668789952 0.463589902 -5.86207438e-35)
(-0.72069421 0.495447666 -2.64874211e-28)
(-0.771318105 0.525862538 -3.69544135e-34)
(-0.820557996 0.55480632 3.15356419e-28)
(-0.868289736 0.582245174 1.00645223e-27)
(-0.914370659 0.608142466 -4.10502243e-27)
(-0.958641398 0.632461558 8.3499921e-28)
(-1.00092729 0.65516838 1.17419524e-26)
(-1.04103919 0.67623371 -1.01440377e-27)
(-1.07877354 0.695635253 2.22836962e-27)
(-1.11391168 0.713359623 -2.31629162e-26)
(-1.14621874 0.729404043 -2.71919888e-26)
(-1.17544181 0.743777029 -1.51018789e-27)
(-1.2013029 0.756494154 0)
(-1.22350247 0.767574521 -1.8425756e-27)
(-1.24172919 0.777042972 0)
(-1.25563549 0.784968316 4.59231694e-26)
(-1.26484657 0.791317475 1.1512783e-25)
(-1.26903297 0.796273445 6.46378044e-26)
(-1.26777692 0.800021774 -8.47817484e-26)
(-1.26061186 0.802951315 -7.25334292e-26)
(-1.24750115 0.804963261 -1.46487166e-26)
(-1.22625683 0.80640254 -7.99525032e-27)
(-1.1959352 0.8067358 -4.9786414e-28)
(-1.15510461 0.805778682 -8.26936619e-27)
(-1.1014658 0.803945764 0)
(-1.03543035 0.801268613 7.20634913e-26)
(-0.955104264 0.798402784 7.89561657e-26)
(-0.858894392 0.795428562 -3.04844483e-26)
(-0.744699549 0.792347901 -3.34203617e-26)
(-0.610259851 0.789161081 0)
(-0.4542196 0.785378447 0)
(-0.272874202 0.781570781 0)
(-0.0655009224 0.781499113 -4.61087653e-26)
(0.159215354 0.78574593 -5.08264592e-26)
(0.430391028 0.789895687 -1.00884419e-25)
(0.744333862 0.792707064 0)
(1.10569681 0.796871925 0)
(1.51739383 0.80453514 2.25824853e-25)
(1.9858118 0.81635222 2.56235459e-25)
(2.51444464 0.832207157 1.79272902e-25)
(3.10760453 0.852555257 2.31180267e-25)
(3.77018081 0.877967355 1.98657758e-25)
(4.50679161 0.909324212 -2.01889205e-25)
(5.32099827 0.947597604 -7.53190995e-25)
(6.21504676 0.993436928 -1.26211756e-24)
(7.18957486 1.04723215 -1.85825526e-24)
(8.24362105 1.10893145 0)
(9.37323987 1.17918398 -3.04633848e-25)
(10.5736516 1.25754869 -2.95343858e-24)
(11.8336997 1.34143846 -6.59678564e-24)
(13.1424891 1.43012792 3.1205377e-25)
(14.4725063 1.52764132 3.14407873e-25)
(15.8118994 1.61589586 -5.73810357e-24)
(17.1375156 1.70262552 5.90919516e-24)
(18.4264285 1.77227764 7.20387091e-24)
(19.7537371 1.76359077 -6.73029806e-25)
(20.864713 1.78000317 -3.3140119e-24)
(21.7806636 2.02982309 -9.84564965e-24)
(22.5423502 2.08932701 8.45900353e-26)
(23.1598834 1.91341799 -1.72215671e-23)
(23.2541527 2.00012278 -6.81169038e-24)
(23.3159217 2.05079403 0)
(23.2952627 2.05313229 -5.59750562e-24)
(23.2533321 1.89272296 -3.80294603e-23)
(23.254294 1.83531268 1.22786177e-24)
(23.2570027 1.76041113 1.65461555e-23)
(23.2628724 1.77525504 7.99110186e-24)
(23.2237027 1.77103609 1.42238766e-23)
(-0.0337195687 0.0234605861 2.60905487e-27)
(-0.101005412 0.069788355 0)
(-0.168550231 0.115720276 0)
(-0.235614604 0.160733859 2.45468093e-30)
(-0.30172888 0.204533809 0)
(-0.36662361 0.246949318 0)
(-0.430125876 0.287894231 0)
(-0.492182511 0.327352178 9.92665741e-29)
(-0.552774704 0.365340006 0)
(-0.611870701 0.401876761 -6.68011559e-29)
(-0.669427964 0.436974531 -2.31669398e-27)
(-0.725380386 0.47063626 -1.11609049e-34)
(-0.779633827 0.50285384 -4.92672944e-27)
(-0.832065208 0.533608406 0)
(-0.882523368 0.562872181 1.43591587e-28)
(-0.930830755 0.590611118 -3.30245839e-28)
(-0.976785311 0.616787834 0)
(-1.02016216 0.641364728 2.92001958e-26)
(-1.06071501 0.664307037 -5.10792479e-28)
(-1.09817704 0.685584927 -8.4012877e-26)
(-1.13225398 0.705170748 -4.77546472e-26)
(-1.16262293 0.723038663 -8.04745312e-28)
(-1.18894024 0.739167229 0)
(-1.21087082 0.753503092 -6.33655697e-26)
(-1.22799871 0.766151305 -7.15732136e-26)
(-1.24001722 0.777171905 -8.53445498e-26)
(-1.24654921 0.786728021 -9.5514006e-26)
(-1.24721862 0.794942459 1.00993091e-25)
(-1.24133997 0.801924589 1.04777833e-25)
(-1.2276964 0.807450753 0)
(-1.20538147 0.811484322 -1.06518851e-25)
(-1.17325153 0.81397493 -1.18157641e-25)
(-1.12967879 0.8150528 -6.76194064e-27)
(-1.07443433 0.815066696 -1.668491e-25)
(-1.00614529 0.814339493 -1.63351155e-25)
(-0.92330185 0.812973146 1.98785035e-26)
(-0.824269745 0.811063992 -1.08937446e-26)
(-0.706998288 0.808707732 -1.68758048e-25)
(-0.569269501 0.806012753 -1.4383928e-25)
(-0.409533148 0.802620391 1.58847274e-25)
(-0.224389544 0.798984553 6.11009314e-25)
(-0.0121898608 0.798637254 2.90680088e-25)
(0.217881727 0.802040134 0)
(0.494887422 0.805314857 4.42614168e-26)
(0.813431178 0.807766482 -2.16542868e-25)
(1.17837061 0.812411086 5.01507565e-26)
(1.59332729 0.820625787 -1.10610429e-32)
(2.06231733 0.832715955 -3.20317508e-25)
(2.58959055 0.849153604 0)
(3.17978452 0.870813106 7.34479265e-26)
(3.83769158 0.898485073 -2.14024971e-25)
(4.56718537 0.932993872 -4.28533554e-25)
(5.3711841 0.975150602 3.83424297e-25)
(6.25140549 1.02556782 -1.73987861e-25)
(7.20801549 1.08470829 -7.28001578e-25)
(8.23971232 1.15298744 -9.1100607e-25)
(9.34307774 1.23046237 -3.67903092e-24)
(10.5123075 1.31741648 -2.9103089e-24)
(11.7401836 1.41276407 -3.02242907e-24)
(13.0116296 1.51457713 -3.73900811e-24)
(14.3138476 1.62507253 0)
(15.6177438 1.7393289 3.1945378e-25)
(16.9174238 1.85269663 -3.72795405e-24)
(18.1529991 1.9729539 -4.62706392e-24)
(19.3373573 2.08874628 -2.24863508e-26)
(20.4513913 2.17587093 0)
(21.4745157 2.21985396 9.21971819e-24)
(22.3996252 2.24048761 1.32114489e-23)
(23.0213574 2.19637989 8.90666012e-25)
(23.2732443 2.24652704 -8.30499976e-25)
(23.3281541 2.35183348 -1.41707458e-26)
(23.3048346 2.35917485 -8.5208386e-25)
(23.2501942 2.34472145 -9.18702672e-24)
(23.2273934 2.33218989 -9.33366712e-24)
(23.2314396 2.24312826 -8.76317896e-25)
(23.2401723 2.18392002 0)
(23.2406459 2.11246545 -7.56907927e-24)
(23.2313159 2.0409355 -1.16132404e-23)
(23.2333563 1.96681161 0)
(23.2282818 1.88834216 -1.41443805e-23)
(-0.0371567153 0.0237424556 -5.22516208e-27)
(-0.110955994 0.0704147458 -8.30494055e-27)
(-0.18469621 0.116491119 -8.28217071e-27)
(-0.257579315 0.161467703 -5.762127e-29)
(-0.329099435 0.205069532 6.22584714e-27)
(-0.398959531 0.247148057 -1.20823378e-28)
(-0.467001616 0.287636916 -3.98363605e-27)
(-0.53311349 0.326523136 -2.63527328e-27)
(-0.597256157 0.363826737 1.32208247e-28)
(-0.659383298 0.399579232 2.66990887e-28)
(-0.719417212 0.433803259 -3.56216985e-27)
(-0.777252104 0.466508765 -1.85038719e-26)
(-0.832747201 0.497694567 -1.78388411e-26)
(-0.885725422 0.527349012 -2.37823218e-26)
(-0.935974184 0.555451797 1.16182932e-28)
(-0.983247226 0.581976727 3.80076962e-26)
(-1.02726608 0.606895035 0)
(-1.06771514 0.630176736 0)
(-1.10424403 0.651790747 6.07297211e-26)
(-1.13651134 0.671658799 1.31378863e-25)
(-1.16408296 0.68987214 7.39302432e-26)
(-1.18663158 0.706420377 8.69328432e-26)
(-1.20375498 0.721398127 -7.89081934e-35)
(-1.21488044 0.734835783 -1.20922021e-25)
(-1.21926131 0.746553757 1.34717881e-25)
(-1.21614594 0.756601928 2.87387327e-25)
(-1.20469568 0.764988038 1.55108572e-25)
(-1.18390374 0.771692469 1.01725479e-27)
(-1.15280613 0.776876381 -1.24670192e-27)
(-1.11079647 0.780867123 3.02290759e-27)
(-1.05661657 0.783757734 0)
(-0.988909176 0.785629171 2.14190704e-25)
(-0.90619765 0.786582178 5.05988839e-27)
(-0.806802642 0.786753022 -2.42685399e-25)
(-0.688652621 0.786303897 0)
(-0.549597628 0.785405378 -2.28793483e-25)
(-0.387959168 0.78382534 -2.74800019e-25)
(-0.200615414 0.781967364 0)
(0.014638797 0.782943898 0)
(0.249179879 0.787043977 -2.38766697e-25)
(0.530270674 0.791145531 -2.07384955e-25)
(0.851972791 0.794874657 -6.00048149e-26)
(1.21841365 0.801306047 0)
(1.63386878 0.811602828 4.03548516e-25)
(2.10203403 0.82605256 7.7097895e-25)
(2.62713093 0.845315681 4.27209541e-25)
(3.21365235 0.870117797 -5.02906613e-26)
(3.86570681 0.901288894 -1.06538668e-27)
(4.58670183 0.939706098 0)
(5.37916558 0.986198326 -4.65433526e-25)
(6.2445284 1.04149139 1.50529313e-25)
(7.18282271 1.10626526 7.31680359e-25)
(8.19232258 1.18100599 1.87334872e-25)
(9.26958026 1.2659784 -8.34541691e-25)
(10.4087007 1.36083294 -2.76323058e-24)
(11.6021618 1.46536955 2.97730734e-32)
(12.8388309 1.57819673 1.59932614e-24)
(14.1024819 1.69695292 0)
(15.3786246 1.82022255 0)
(16.64184 1.94169035 2.7727783e-25)
(17.8779689 2.06622377 2.93579576e-25)
(19.0365638 2.18897545 0)
(20.1335052 2.30755063 5.67748538e-24)
(21.0979905 2.4000298 5.06999074e-24)
(22.0029835 2.4827643 -8.16072032e-24)
(22.6934626 2.52340027 -2.82936223e-23)
(23.128203 2.56351579 -1.0262315e-23)
(23.22784 2.58043522 -4.3425722e-24)
(23.3046682 2.54418724 -2.46688244e-24)
(23.3221277 2.51013692 -6.91905815e-25)
(23.30624 2.48842574 1.13007144e-23)
(23.2536783 2.52299864 1.0376235e-23)
(23.2304998 2.47782821 -1.23808483e-23)
(23.2209296 2.44374996 -1.13026003e-23)
(23.2123618 2.45905304 -7.56885124e-24)
(23.2232671 2.39969122 -1.0920346e-23)
(23.2389024 2.34677249 -6.86325385e-24)
(23.2329558 2.30520976 1.01053726e-31)
(23.2375128 2.26792655 1.71691738e-23)
(23.2185012 2.19551044 1.92203638e-23)
(-0.0408724551 0.0239078294 2.73101545e-27)
(-0.121568137 0.070603501 1.47952596e-28)
(-0.201722557 0.116415395 7.9890421e-27)
(-0.28048111 0.16086602 -2.55683236e-34)
(-0.357301255 0.203706884 -5.14819108e-27)
(-0.431859425 0.244811868 -3.87718579e-27)
(-0.503971173 0.284138081 -3.58987312e-27)
(-0.573531549 0.321685196 -1.50979129e-28)
(-0.640411127 0.357484443 2.93710023e-27)
(-0.704561971 0.391571373 5.95598775e-27)
(-0.765853653 0.423986668 9.08634217e-27)
(-0.824125421 0.454751592 1.20629549e-26)
(-0.879174083 0.483876668 1.63294237e-26)
(-0.930748445 0.511362458 2.10434461e-26)
(-0.978550833 0.537204672 4.74569094e-28)
(-1.02224124 0.561396274 4.78496872e-28)
(-1.06146166 0.58388153 6.54304457e-26)
(-1.09578113 0.604738498 7.71734998e-26)
(-1.12479571 0.623972557 -9.23141881e-28)
(-1.14791009 0.641546032 -9.58135063e-28)
(-1.16455253 0.657391999 1.28750111e-25)
(-1.17400968 0.671557349 1.41741894e-25)
(-1.17551034 0.684003816 0)
(-1.16831477 0.694855174 7.54817696e-28)
(-1.15170661 0.704261216 0)
(-1.12467686 0.712258622 0)
(-1.08613179 0.718913972 4.69074204e-28)
(-1.03486328 0.724311433 -2.34060106e-25)
(-0.969539992 0.72855675 -2.50811813e-25)
(-0.888667208 0.731801245 2.69445638e-25)
(-0.790546357 0.734228369 2.88019947e-25)
(-0.673194779 0.736030209 -1.22957261e-27)
(-0.534511279 0.737423925 2.09266745e-27)
(-0.372719437 0.738282829 0)
(-0.184923645 0.738961432 -2.6631295e-27)
(0.0315168284 0.742097963 0)
(0.268678266 0.747892578 0)
(0.551500413 0.754018179 -5.50960786e-27)
(0.874195368 0.760310981 0)
(1.24023225 0.769725387 0)
(1.65425526 0.783218493 4.52349017e-25)
(2.11967709 0.801023196 4.35267977e-25)
(2.64050481 0.823872849 0)
(3.22092487 0.85254779 0)
(3.86467329 0.887890209 0)
(4.57489083 0.930810582 -3.44013824e-26)
(5.35392676 0.982214205 -4.07029161e-26)
(6.2030369 1.0429397 7.17758475e-25)
(7.12207423 1.11373032 7.55533667e-25)
(8.10921853 1.19515638 8.6265826e-25)
(9.16070439 1.28748939 1.00157963e-24)
(10.2708575 1.39068436 1.24488988e-24)
(11.431585 1.50402712 1.47329045e-24)
(12.6334489 1.62677371 0)
(13.8631378 1.75684874 0)
(15.1043173 1.8919046 -1.67888555e-24)
(16.3371099 2.02999796 -3.90393381e-24)
(17.5374982 2.16720954 -2.2775126e-24)
(18.6866353 2.30139647 -2.45455138e-24)
(19.7592317 2.41914794 -2.2140126e-24)
(20.7542568 2.5275443 5.52686596e-24)
(21.6084575 2.61567521 1.14575064e-23)
(22.3688279 2.69997685 3.93365068e-25)
(22.936861 2.73837274 -1.13597619e-23)
(23.1888823 2.77829133 3.30902645e-25)
(23.2357417 2.83921717 -6.75424642e-25)
(23.2178096 2.8281583 3.6181479e-24)
(23.2133719 2.81050847 -4.7362244e-32)
(23.2399004 2.75411951 -7.20748365e-24)
(23.2710194 2.65041517 -8.41518944e-25)
(23.2850416 2.60448039 6.81640841e-24)
(23.2458336 2.59449767 8.33603125e-24)
(23.2271466 2.59880874 0)
(23.2307229 2.56721594 6.63011477e-25)
(23.2267085 2.55683201 0)
(23.2213612 2.56584262 7.46870136e-24)
(23.2782763 2.52287853 2.15909309e-23)
(23.3221768 2.51215761 9.64367103e-24)
(23.3486306 2.541084 7.30725282e-24)
(23.3052697 2.51704305 1.86086313e-23)
(-0.044920971 0.0239582487 2.74437583e-27)
(-0.132929333 0.0703838897 8.48930003e-27)
(-0.219672202 0.115580506 -2.96853824e-28)
(-0.304239138 0.159105614 -5.55550647e-27)
(-0.386048956 0.200742839 -3.43446574e-27)
(-0.464746999 0.2403922 -1.45133987e-27)
(-0.540118271 0.278033567 -7.2482546e-28)
(-0.612019184 0.313693664 -4.96578048e-27)
(-0.680326137 0.347409467 -8.12576003e-27)
(-0.744842291 0.379237563 -1.217935e-26)
(-0.805428542 0.409214936 0)
(-0.861842263 0.43739377 -1.79346049e-27)
(-0.913808896 0.463775284 9.34652349e-28)
(-0.960944975 0.488449974 0)
(-1.00288855 0.511363586 0)
(-1.03916117 0.532556884 0)
(-1.06922011 0.552090043 0)
(-1.09247962 0.56988698 -1.08426587e-27)
(-1.10823705 0.585973136 0)
(-1.115836 0.600493166 -7.53216013e-26)
(-1.114472 0.613449136 -8.40163851e-26)
(-1.1032405 0.624881151 1.79060176e-25)
(-1.08112317 0.634867791 2.00017151e-25)
(-1.047038 0.643481555 -2.17722229e-25)
(-0.999770279 0.650844126 -2.430733e-25)
(-0.937975942 0.657101568 -2.61704897e-25)
(-0.86017049 0.662415968 -2.81110725e-25)
(-0.764672113 0.666961571 -3.10359544e-25)
(-0.649595318 0.6709615 -6.51786958e-25)
(-0.512894634 0.674665323 -3.32419744e-25)
(-0.352717664 0.67802934 0)
(-0.166354928 0.681371607 -3.92926075e-27)
(0.0491618296 0.68689101 -3.55988072e-27)
(0.28666935 0.694780266 0)
(0.568553123 0.703448965 2.1322603e-27)
(0.889431367 0.712846706 0)
(1.25268332 0.72559662 0)
(1.66272499 0.742529245 5.18460775e-25)
(2.12279165 0.763906326 -2.60352009e-28)
(2.63666231 0.790506904 -5.54310463e-25)
(3.20824256 0.823165862 5.77665664e-25)
(3.84100072 0.862768225 6.09021829e-25)
(4.53787787 0.910256484 -4.08285022e-27)
(5.30108321 0.966550322 0)
(6.13180117 1.03250562 7.55608851e-25)
(7.02990372 1.10888494 7.84683805e-25)
(7.99367713 1.19628651 0)
(9.01956951 1.29506955 0)
(10.1019961 1.40525643 -1.09213248e-24)
(11.2332653 1.52649303 -1.2432285e-24)
(12.4033554 1.65776399 1.49199419e-24)
(13.6007662 1.79778276 1.70623681e-24)
(14.8108932 1.94395433 -1.68422868e-24)
(16.0171083 2.09386899 2.40839912e-32)
(17.1983516 2.24448546 2.0535166e-24)
(18.3344667 2.39293537 1.07632266e-26)
(19.4007544 2.53541029 0)
(20.3761686 2.66806259 2.42887953e-25)
(21.245065 2.78917408 -2.00734129e-24)
(21.98685 2.87596812 3.61923337e-25)
(22.6488403 2.94091065 5.08588119e-24)
(23.0800716 2.97158232 0)
(23.2175382 3.00093978 2.93836339e-25)
(23.2382513 3.01328401 0)
(23.24439 3.03647556 1.54563979e-25)
(23.2172238 3.00695368 -2.23982105e-25)
(23.1816359 3.01433628 -5.18747554e-25)
(23.1567379 2.96662787 -9.16984801e-24)
(23.1575856 2.94980494 -7.22868814e-24)
(23.1810263 2.85806829 -7.30984345e-25)
(23.2002594 2.79424856 -8.10814167e-24)
(23.207149 2.72681889 -1.05497433e-23)
(23.2174017 2.69190573 -7.67396688e-24)
(23.2393684 2.63614407 -7.41949511e-24)
(23.2579089 2.60574443 -1.09981962e-23)
(23.2743682 2.60141751 -1.14547899e-23)
(23.3900165 2.55915507 1.05679745e-23)
(23.4863822 2.54062907 1.09615949e-23)
(23.5127416 2.6108653 -2.20101369e-24)
(23.4430563 2.70364796 1.69393042e-24)
(-0.0490816171 0.0237537886 2.43025438e-27)
(-0.144330425 0.069384645 -7.74648732e-27)
(-0.237292177 0.113434478 -4.88896446e-28)
(-0.327002263 0.155505686 -5.00974574e-34)
(-0.412838125 0.1954177 -4.71943624e-28)
(-0.494405717 0.233099117 -5.65810154e-28)
(-0.571448091 0.268552974 5.99839593e-27)
(-0.643772963 0.301828601 9.41172015e-34)
(-0.711201077 0.332993642 -2.66555407e-26)
(-0.773510494 0.362127649 -1.87113031e-26)
(-0.830412318 0.389277805 1.42904172e-27)
(-0.881563136 0.41450474 -3.17178603e-26)
(-0.926536688 0.437889761 -3.53824534e-26)
(-0.964879188 0.459407793 -4.31795558e-26)
(-0.996001436 0.479181391 -4.9816336e-26)
(-1.01927865 0.497227412 5.75785729e-26)
(-1.03399229 0.513601235 6.59545909e-26)
(-1.03933459 0.52836392 -1.83308609e-27)
(-1.03440115 0.541590845 0)
(-1.01822815 0.553343996 -9.17697995e-26)
(-0.989666527 0.563756888 -1.04264553e-25)
(-0.947532261 0.572933917 -4.24849211e-27)
(-0.890476028 0.581031273 1.26590797e-25)
(-0.817018153 0.588221311 1.43002943e-25)
(-0.72550269 0.594710694 -8.98945943e-27)
(-0.614133482 0.600765283 0)
(-0.481143754 0.60652266 4.66021382e-27)
(-0.324482876 0.612091471 2.27807773e-28)
(-0.141500629 0.617937673 -4.51606592e-25)
(0.0708557103 0.625782931 -4.63485704e-25)
(0.306361917 0.63577631 4.03955987e-25)
(0.584711964 0.646941896 4.15349255e-25)
(0.901096606 0.659310619 -1.98754896e-26)
(1.25905154 0.67512438 -5.42368005e-25)
(1.66250982 0.695177783 -6.76475807e-33)
(2.1145576 0.719832259 5.79167537e-25)
(2.61874799 0.749903216 -6.1810842e-25)
(3.17871546 0.78624392 -6.38769043e-25)
(3.79770878 0.82973904 -1.66577661e-26)
(4.47850928 0.88131711 7.98862853e-27)
(5.22323258 0.9418855 6.03733055e-27)
(6.03306254 1.0122965 -8.04698361e-25)
(6.90799553 1.0933137 -1.73309915e-24)
(7.84657543 1.1855468 -9.4593083e-25)
(8.84563462 1.28938436 -1.03764445e-24)
(9.90005892 1.40491921 -1.15891316e-24)
(11.0026163 1.53187832 0)
(12.1438399 1.6695339 1.49388716e-24)
(13.3121659 1.81658111 1.7128253e-24)
(14.494136 1.9712872 1.89294744e-24)
(15.6739978 2.13103683 3.99718421e-24)
(16.8340195 2.29278109 4.22309471e-24)
(17.954014 2.45214063 4.57136353e-24)
(19.0166535 2.60638276 4.91750578e-24)
(19.9970575 2.75005523 2.6778251e-24)
(20.8836616 2.88384447 -2.90425185e-25)
(21.6500155 2.99727631 0)
(22.3030518 3.09707953 -3.15480806e-24)
(22.7878538 3.14462473 -4.75107666e-24)
(23.1313697 3.22114126 0)
(23.1710383 3.22278216 -3.27399075e-24)
(23.2045462 3.23602004 -1.71075014e-24)
(23.2117079 3.19461875 0)
(23.2195454 3.16807275 -1.56201943e-25)
(23.2122465 3.14523993 0)
(23.1572505 3.13953884 -9.34039824e-24)
(23.1195058 3.1335947 -1.08689338e-24)
(23.0972561 3.11227512 7.64259641e-24)
(23.0854018 3.08594195 -6.97256045e-25)
(23.0856688 3.07522212 -4.53203674e-25)
(23.1292054 2.98200255 -8.45468897e-24)
(23.1559043 2.89772825 -9.32473456e-24)
(23.1505309 2.8800849 -4.87266702e-25)
(23.2065632 2.80186783 -5.32255825e-25)
(23.2796506 2.7184163 -4.957774e-26)
(23.3498823 2.67109415 -6.07634614e-25)
(23.4789971 2.5998129 1.13155771e-23)
(23.6287898 2.53577541 2.16619432e-23)
(23.7036343 2.51720146 1.09777998e-23)
(23.6988445 2.63435613 -1.05318841e-24)
(-0.0529178351 0.0230994632 0)
(-0.154462944 0.0670748119 -6.86699761e-28)
(-0.252387486 0.10916254 7.21258369e-28)
(-0.345672676 0.149020482 -1.47016913e-27)
(-0.433649215 0.186509722 7.97699072e-28)
(-0.515873862 0.221589193 8.38003284e-28)
(-0.5920229 0.254303301 -1.30420735e-26)
(-0.661829198 0.284705938 0)
(-0.724999634 0.312895736 1.92268246e-27)
(-0.781203219 0.33894638 -2.86466368e-26)
(-0.830023246 0.362973108 -3.25944293e-26)
(-0.870986167 0.38504987 4.16185628e-26)
(-0.903522841 0.405264196 2.32432334e-27)
(-0.926968553 0.423700574 -1.1191006e-25)
(-0.940563588 0.44044614 -1.31878741e-25)
(-0.943447347 0.455603538 -7.24698033e-26)
(-0.93467062 0.469252565 -2.74331566e-27)
(-0.913135249 0.48154609 -9.50641988e-26)
(-0.877667675 0.492596457 -1.03189978e-25)
(-0.826946299 0.502569277 3.00766105e-27)
(-0.759514776 0.511646506 -3.19816049e-27)
(-0.673746392 0.520037401 -1.3068384e-26)
(-0.567901069 0.527974949 -1.5090672e-25)
(-0.440217774 0.535575626 -3.29085635e-25)
(-0.288565234 0.543110377 -1.92919504e-25)
(-0.110184418 0.551699353 -7.45944184e-27)
(0.0922120679 0.562057613 -1.88635653e-25)
(0.326930803 0.57383138 7.59606293e-27)
(0.599319917 0.586723895 -7.87116e-27)
(0.908748395 0.601757922 -2.5250148e-25)
(1.25868969 0.620407692 0)
(1.65275835 0.643341359 -5.75371796e-25)
(2.09399407 0.670975732 -1.72031619e-26)
(2.5857644 0.704128694 6.4753666e-25)
(3.13143805 0.743654975 6.83281763e-25)
(3.73404796 0.790445824 7.21626362e-25)
(4.39622456 0.845425736 -1.78387536e-26)
(5.12000964 0.90949935 0)
(5.90661646 0.983517345 -3.4798865e-26)
(6.75619931 1.06824258 -9.00585847e-25)